  MPI-parallelism will be employed.
------------------------------------------------------------
          Invoking FHI-aims ...

          When using FHI-aims, please cite the following reference:

          Volker Blum, Ralf Gehrke, Felix Hanke, Paula Havu,
          Ville Havu, Xinguo Ren, Karsten Reuter, and Matthias Scheffler,
          'Ab Initio Molecular Simulations with Numeric Atom-Centered Orbitals',
          Computer Physics Communications 180, 2175-2196 (2009)

          For any questions about FHI-aims, please visit the aimsclub website
          with its forums and wiki. Contributions to both the forums and the
          wiki are warmly encouraged - they are for you, and everyone is welcome there.

------------------------------------------------------------



  Date     :  20190817, Time     :  153134.998
  Time zero on CPU 1             :   0.193320000000000E-01  s.
  Internal wall clock time zero  :           335287894.998  s.

  FHI-aims created a unique identifier for this run for later identification
  aims_uuid : 9480A713-C504-4888-AF71-FE853C26E4A0

  Build configuration of the current instance of FHI-aims
  -------------------------------------------------------
  FHI-aims version      : 190813
  Commit number         : 3da7baeb3
  CMake host system     : Linux-4.4.180-94.97-default
  CMake version         : 3.5.2
  Fortran compiler      : /mpcdf/soft/SLE_12_SP3/packages/x86_64/intel_parallel_studio/2018.4/compilers_and_libraries_2018.5.274/linux/mpi/bin64/mpiifort (Intel) version 18.0.5.20180823
  Fortran compiler flags: -O3 -ip -fp-model precise
  C compiler            : /mpcdf/soft/SLE_12_SP3/packages/skylake/intel/18.0.5/bin/icc (Intel) version 18.0.5.20180823
  C compiler flags      : -O3 -ip -fp-model precise
  Architecture          :
  Using MPI
  Using Scalapack
  Using C files
  Using SPGlib
  Using i-PI
  Linking against: /mpcdf/soft/SLE_12_SP3/packages/x86_64/anaconda/3.5.1.0/lib/libmkl_intel_lp64.so
                   /mpcdf/soft/SLE_12_SP3/packages/x86_64/anaconda/3.5.1.0/lib/libmkl_sequential.so
                   /mpcdf/soft/SLE_12_SP3/packages/x86_64/anaconda/3.5.1.0/lib/libmkl_core.so
                   /mpcdf/soft/SLE_12_SP3/packages/x86_64/anaconda/3.5.1.0/lib/libmkl_blacs_intelmpi_lp64.so
                   /mpcdf/soft/SLE_12_SP3/packages/x86_64/anaconda/3.5.1.0/lib/libmkl_scalapack_lp64.so

  Using        8 parallel tasks.
  Task        0 on host co1631 reporting.
  Task        1 on host co1631 reporting.
  Task        2 on host co1631 reporting.
  Task        3 on host co1631 reporting.
  Task        4 on host co1631 reporting.
  Task        5 on host co1631 reporting.
  Task        6 on host co1631 reporting.
  Task        7 on host co1631 reporting.

  Performing system and environment tests:
  | Environment variable OMP_NUM_THREADS correctly set to 1.
  | Maximum stacksize for task 0: unlimited
  | Maximum stacksize for task 1: unlimited
  | Maximum stacksize for task 2: unlimited
  | Maximum stacksize for task 3: unlimited
  | Maximum stacksize for task 4: unlimited
  | Maximum stacksize for task 5: unlimited
  | Maximum stacksize for task 6: unlimited
  | Maximum stacksize for task 7: unlimited
  | Current stacksize for task 0: unlimited
  | Current stacksize for task 1: unlimited
  | Current stacksize for task 2: unlimited
  | Current stacksize for task 3: unlimited
  | Current stacksize for task 4: unlimited
  | Current stacksize for task 5: unlimited
  | Current stacksize for task 6: unlimited
  | Current stacksize for task 7: unlimited
  | Checking for scalapack...
  | Testing pdtran()...
  | All pdtran() tests passed.

  Obtaining array dimensions for all initial allocations:
  
  -----------------------------------------------------------------------
  Parsing control.in (first pass over file, find array dimensions only).
  The contents of control.in will be repeated verbatim below
  unless switched off by setting 'verbatim_writeout .false.' .
  in the first line of control.in .
  -----------------------------------------------------------------------
  
    output basis
  
  ### Physical model
    xc                 hse06   0.11
    hse_unit           bohr-1
    spin               none
    relativistic       none
    charge             0.
  
  ### RI
  
    RI_method V
    use_logsbt .true.
    default_max_l_prodbas 7
  
  ### SCF convergence
  
    occupation_type    gaussian 0.01
    mixer              pulay
      n_max_pulay        10
      charge_mix_param   0.5
    sc_accuracy_rho    1E-4
    sc_accuracy_eev    1E-2
    sc_accuracy_etot   1E-6
  #  sc_accuracy_forces 1e-3
    sc_iter_limit      100
  
  ################################################################################
  #
  #  FHI-aims code project
  # Volker Blum, Fritz Haber Institute Berlin, 2009
  #
  #  Suggested "tight" defaults for H atom (to be pasted into control.in file)
  #
  ################################################################################
    species        H
  #     global species definitions
      nucleus             1
      mass                1.00794
  #
      l_hartree           4
  #
      cut_pot             4.0  2.0  1.0
      basis_dep_cutoff    1e-4
  #
      radial_base         24 5.0
      radial_multiplier   1
      angular_grids       specified
        division   0.2421   50
        division   0.3822  110
        division   0.4799  194
        division   0.5341  302
  #      division   0.5626  434
  #      division   0.5922  590
  #      division   0.6542  770
  #      division   0.6868 1202
  #      outer_grid  770
        outer_grid  302
  ################################################################################
  #
  #  Definition of "minimal" basis
  #
  ################################################################################
  #     valence basis states
      valence      1  s   1.
  #     ion occupancy
      ion_occ      1  s   0.5
  ################################################################################
  #
  #  Suggested additional basis functions. For production calculations,
  #  uncomment them one after another (the most important basis functions are
  #  listed first).
  #
  #  Basis constructed for dimers: 0.5 A, 0.7 A, 1.0 A, 1.5 A, 2.5 A
  #
  ################################################################################
  #  "First tier" - improvements: -1014.90 meV to -62.69 meV
       hydro 2 s 2.1
       hydro 2 p 3.5
  #  "Second tier" - improvements: -12.89 meV to -1.83 meV
       hydro 1 s 0.85
       hydro 2 p 3.7
       hydro 2 s 1.2
       hydro 3 d 7
  #  "Third tier" - improvements: -0.25 meV to -0.12 meV
  #     hydro 4 f 11.2
  #     hydro 3 p 4.8
  #     hydro 4 d 9
  #     hydro 3 s 3.2
  
  -----------------------------------------------------------------------
  Completed first pass over input file control.in .
  -----------------------------------------------------------------------
  
  
  -----------------------------------------------------------------------
  Parsing geometry.in (first pass over file, find array dimensions only).
  The contents of geometry.in will be repeated verbatim below
  unless switched off by setting 'verbatim_writeout .false.' .
  in the first line of geometry.in .
  -----------------------------------------------------------------------
  
  atom   -0.34   0.    0.    H
  atom    0.34   0.    0.    H
  
  atom    0.     4.66  0.    H
  atom    0.     5.34  0.    H
  
  atom    0.     0.   10.34  H
  atom    0.     0.    9.66  H
  
  -----------------------------------------------------------------------
  Completed first pass over input file geometry.in .
  -----------------------------------------------------------------------
  

  Basic array size parameters:
  | Number of species                 :        1
  | Number of atoms                   :        6
  | Max. basis fn. angular momentum   :        2
  | Max. atomic/ionic basis occupied n:        1
  | Max. number of basis fn. types    :        2
  | Max. radial fns per species/type  :        6
  | Max. logarithmic grid size        :     1131
  | Max. radial integration grid size :       24
  | Max. angular integration grid size:      302
  | Max. angular grid division number :        8
  | Radial grid for Hartree potential :     1131
  | Number of spin channels           :        1

------------------------------------------------------------
          Reading file control.in.
------------------------------------------------------------
  Numerical basis data will be written out.
  XC: Using HSE-functional with OMEGA =  0.110000E+00 <units>.
  XC: For the actual units (bohr^-1 or Angstrom^-1), see below.
  hse_unit: Unit for the HSE06 hybrid functional screening parameter set to bohr^(-1).
  Spin treatment: No spin polarisation.
  Non-relativistic treatment of kinetic energy.
  Charge =   0.000000E+00: Neutral system requested explicitly.
 The 'V' version of RI (resolution of identity) technique is used.
  Using 1D integrations for auxiliary 2-center integrals.
  Occupation type: Gaussian broadening, width =   0.100000E-01 eV.
  Using pulay charge density mixing.
  Pulay mixing - number of memorized iterations:   10
  Charge density mixing - mixing parameter:     0.5000
  Convergence accuracy of self-consistent charge density:  0.1000E-03
  Convergence accuracy of sum of eigenvalues:  0.1000E-01
  Convergence accuracy of total energy:  0.1000E-05
  Maximum number of s.-c. iterations  :   100
 
  Reading configuration options for species H                   .
  | Found nuclear charge :   1.0000
  | Found atomic mass :    1.00794000000000      amu
  | Found l_max for Hartree potential  :   4
  | Found cutoff potl. onset [A], width [A], scale factor :    4.00000    2.00000    1.00000
  | Threshold for basis-dependent cutoff potential is   0.100000E-03
  | Found data for basic radial integration grid :    24 points, outermost radius =    5.000 A
  | Found multiplier for basic radial grid :   1
  | Found angular grid specification: user-specified.
  | Specified grid contains     5 separate shells.
  | Check grid settings after all constraints further below.
  | Found free-atom valence shell :  1 s   1.000
  | No ionic wave fns used. Skipping ion_occ.
  | Found hydrogenic basis function :  2 s   2.100
  | Found hydrogenic basis function :  2 p   3.500
  | Found hydrogenic basis function :  1 s   0.850
  | Found hydrogenic basis function :  2 p   3.700
  | Found hydrogenic basis function :  2 s   1.200
  | Found hydrogenic basis function :  3 d   7.000
  Species H                   : Missing cutoff potential type.
  Defaulting to exp(1/x)/(1-x)^2 type cutoff potential.
  Species H : No 'logarithmic' tag. Using default grid for free atom:
  | Default logarithmic grid data [bohr] : 0.1000E-03 0.1000E+03 0.1012E+01
  Species H : On-site basis accuracy parameter (for Gram-Schmidt orthonormalisation) not specified.
  Using default value basis_acc =  0.1000000E-03.
  Species H                   : Using default innermost maximum threshold i_radial=  2 for radial functions.
  Species H                   : Default cutoff onset for free atom density etc. is infinite
  since the product basis is used (hybrid functionals, Hartree-Fock, GW etc.).
  Species H                   : Basic radial grid will be enhanced according to radial_multiplier =   1, to contain    24 grid points.
 
  Finished reading input file 'control.in'. Consistency checks are next.
 
  HSE06 screening parameters: omega_HF  =      0.11000000 bohr^-1, and
                              omega_PBE =      0.11000000 bohr^-1.
  MPI_IN_PLACE appears to work with this MPI implementation.
  | Keeping use_mpi_in_place .true. (see manual).
  Species H: Using default value for prodbas_acc =   1.000000E-02.
  Species H: Using default value max_l_prodbas =     7.
 * Species H: Specified min. number of angular integration points is    50
 * The angular momenta for this species require   110 for RI_type 'V'. Increasing angular_min to   110.
 * Species H: Grid shell     1 contains only    50 angular integration points.
 * Increasing to angular_min =   110 integration points.
 * This change is related to the three-center integrals used in RI_method 'V'.
  Target number of points in a grid batch is not set. Defaulting to  100
  Method for grid partitioning is not set. Defaulting to parallel hash+maxmin partitioning.
  Batch size limit is not set. Defaulting to    200
  By default, will store active basis functions for each batch.
  If in need of memory, prune_basis_once .false. can be used to disable this option.
  communication_type for Hartree potential was not specified.
  Defaulting to calc_hartree .
  Pulay mixer: Number of initial linear mixing iterations not set.
  Defaulting to    0 iterations.
  Work space size for distributed Hartree potential not set.
  Defaulting to   0.200000E+03 MB.
  Algorithm-dependent basis array size parameters:
  | n_max_pulay                         :       10
  Presetting      1001 iterations before the initial mixing cycle
  is restarted anyway using the sc_init_iter criterion / keyword.
  Presetting a factor      1.000 between actual scf density residual
  and density convergence criterion sc_accuracy_rho below which sc_init_iter
  takes no effect.
  Calculation of forces was not defined in control.in. No forces will be calculated.
  Geometry relaxation not requested: no relaxation will be performed.
  No accuracy limit for integral partition fn. given. Defaulting to  0.1000E-14.
  No threshold value for u(r) in integrations given. Defaulting to  0.1000E-05.
  No accuracy for occupation numbers given. Defaulting to  0.1000E-12.
  No threshold value for occupation numbers given. Defaulting to  0.0000E+00.
  No accuracy for fermi level given. Defaulting to  0.1000E-19.
  Maximum # of iterations to find E_F not set. Defaulting to  200.
  Preferred method for the eigenvalue solver ('KS_method') not specified in 'control.in'.
  Calling BLACS routine to test compilation state
  Since ScaLAPACK support is enabled, defaulting to ELPA (via ELSI).
  Will not use alltoall communication since running on < 1024 CPUs.
  Threshold for basis singularities not set.
  Default threshold for basis singularities:  0.1000E-04
  partition_type (choice of integration weights) for integrals was not specified.
  | Using a version of the partition function of Stratmann and coworkers ('stratmann_sparse').
  | At each grid point, the set of atoms used to build the partition table is smoothly restricted to
  | only those atoms whose free-atom density would be non-zero at that grid point.
  Partitioning for Hartree potential was not defined. Using partition_type for integrals.
  | Adjusted default value of keyword multip_moments_threshold to:       0.10000000E-11
  | This value may affect high angular momentum components of the Hartree potential in periodic systems.
  Threshold for auxiliary basis singularities not set.
  Default threshold for auxiliary basis singularities:  0.1000E-04
  No q(lm)/r^(l+1) cutoff set for long-range Hartree potential.
  | Using default value of  0.100000E-09 .
  | Verify using the multipole_threshold keyword.
  Defaulting to new monopole extrapolation.
  Density update method: automatic selection selected.
  KS-based density update method is selected as as Hartree-Fock with RI-V needs packed_matrix_format "none"
  Charge integration errors on the 3D integration grid will be compensated
  by explicit normalization and distribution of residual charges.
  Use the "compensate_multipole_errors" flag to change this behaviour.
  Default onset of logarithmic r-grid for SBT is-38.000000000000
  Default onset of logarithmic k-grid for SBT is-25.000000000000
  Default range of logarithmic r- and k-grid for SBT is 45.000000000000
  Default number of logarithmic r- and k-grid for SBT is  4096
  * Use logSBT for radial HSE integration, too
  Default of use_2d_corr is to use the efficient 2D distribution where possible
------------------------------------------------------------


------------------------------------------------------------
          Reading geometry description geometry.in.
------------------------------------------------------------
  Input structure read successfully.
  The structure contains        6 atoms,  and a total of          6.000 electrons.

  Input geometry:
  | No unit cell requested.
  | Atomic structure:
  |       Atom                x [A]            y [A]            z [A]
  |    1: Species H            -0.34000000        0.00000000        0.00000000
  |    2: Species H             0.34000000        0.00000000        0.00000000
  |    3: Species H             0.00000000        4.66000000        0.00000000
  |    4: Species H             0.00000000        5.34000000        0.00000000
  |    5: Species H             0.00000000        0.00000000       10.34000000
  |    6: Species H             0.00000000        0.00000000        9.66000000
  | The smallest distance between any two atoms is         0.68000000 AA.
  | The first atom of this pair is atom number                      1 .
  | The second atom of this pair is atom number                     2 .

  Number of empty states per atom not set in control.in - providing a guess from actual geometry.
  | Total number of empty states used during s.c.f. cycle:        9
  If you use a very high smearing, use empty_states (per atom!) in control.in to increase this value.

  Structure-dependent array size parameters: 
  | Maximum number of distinct radial functions  :        7
  | Maximum number of basis functions            :       90
  | Number of Kohn-Sham states (occupied + empty):       12
------------------------------------------------------------

------------------------------------------------------------
          Preparing all fixed parts of the calculation.
------------------------------------------------------------
  Determining machine precision:
    2.225073858507201E-308
  Setting up grids for atomic and cluster calculations.

  Creating wave function, potential, and density for free atoms.

  Species: H

  List of occupied orbitals and eigenvalues:
    n    l              occ      energy [Ha]    energy [eV]
    1    0           1.0000        -0.238600        -6.4926

  Writing atomic data for atom type H .
  | Potential: H_free_pot.dat 
  | Density: H_free_rho.dat 
  | Atomic shell            1 s: H_free_1_s.dat 
  | Eigenvalue:  -0.238599898845471     

  Creating fixed part of basis set: Ionic, confined, hydrogenic.
 
  H                    hydrogenic:
 
  List of hydrogenic basis orbitals: 
    n    l      effective z      eigenvalue [eV]  inner max. [A]     outer max. [A]     outer radius [A]   
    2    0         2.100000       -14.9965           0.193243           1.317208           5.373006
    2    1         3.500000       -41.6672           0.602369           0.602369           4.056063
    1    0         0.850000        -9.8292           0.624871           0.624871           5.373006
    2    1         3.700000       -46.5653           0.573622           0.573622           3.910002
    2    0         1.200000        -4.5995           0.334980           2.228188           5.505995
    3    2         7.000000       -74.0753           0.680699           0.680699           3.769201
 
  Writing hydrogenic fns. for species            1 .
  | Kinetic: H1_1_2s_base_kin.dat 
  | Atomic shell            2 s: H1_1_2s_base.dat     
  | Kinetic: H1_2_2p_base_kin.dat 
  | Atomic shell            2 p: H1_2_2p_base.dat     
  | Kinetic: H1_3_1s_base_kin.dat 
  | Atomic shell            1 s: H1_3_1s_base.dat     
  | Kinetic: H1_4_2p_base_kin.dat 
  | Atomic shell            2 p: H1_4_2p_base.dat     
  | Kinetic: H1_5_2s_base_kin.dat 
  | Atomic shell            2 s: H1_5_2s_base.dat     
  | Kinetic: H1_6_3d_base_kin.dat 
  | Atomic shell            3 d: H1_6_3d_base.dat     


  Adding cutoff potential to free-atom effective potential.
  Creating atomic-like basis functions for current effective potential.

  Species H                   :

  List of atomic basis orbitals and eigenvalues:
    n    l      energy [Ha]    energy [eV]    outer radius [A]
    1    0        -0.238565        -6.4917       5.373006

  Writing atomic data for atom type H .
  | Potential: H_base_pot.dat 
  | Density: H_base_rho.dat 
  | Atomic shell            1 s: H_base_1_s.dat 
  | Eigenvalue:  -0.238564789215434     

  Writing atomic fns. for species            1 .
  | Kinetic: A1_1_1s_base_kin.dat 
  | Atomic            1 , l = s: A1_1_1s_base.dat     

  Assembling full basis from fixed parts.
  | Species H :   atomic orbital   1 s accepted.
  | Species H :    hydro orbital   2 s accepted.
  | Species H :    hydro orbital   1 s accepted.
  | Species H :    hydro orbital   2 s accepted.
  | Species H :    hydro orbital   2 p accepted.
  | Species H :    hydro orbital   2 p accepted.
  | Species H :    hydro orbital   3 d accepted.
 
  Basis size parameters after reduction:
  | Total number of radial functions:        7
  | Total number of basis functions :       90
 
  Per-task memory consumption for arrays in subroutine allocate_ext:
  |           1.522500MB.
  Testing on-site integration grid accuracy.
  |  Species  Function  <phi|h_atom|phi> (log., in eV)  <phi|h_atom|phi> (rad., in eV)
           1        1                 -6.4919552428                 -6.4918308351
           1        2                 13.4986917152                 13.4991868476
           1        3                 32.6319349878                 32.6473898684
           1        4                 34.2277079553                 34.4735916783 ***
           1        5                 28.8505628158                 28.8505850048
           1        6                 59.6317636848                 59.6327245755
           1        7                 60.2685444968                 60.2685145724
 * Note: Onsite integrals marked "***" above are less accurate than
 * onsite_accuracy_threshold =    0.03000 eV. Usually, this is harmless.
 * When in doubt, tighten the "radial" and/or "radial_multiplier" flags to check.

  Preparing densities etc. for the partition functions (integrals / Hartree potential).

  Preparations completed.
  max(cpu_time)          :      0.113 s.
  Wall clock time (cpu1) :      0.148 s.
------------------------------------------------------------

------------------------------------------------------------
          Begin self-consistency loop: Initialization.

          Date     :  20190817, Time     :  153135.192
------------------------------------------------------------

  Initializing index lists of integration centers etc. from given atomic structure:
  | Number of centers in hartree potential         :         6
  | Number of centers in hartree multipole         :         6
  | Number of centers in electron density summation:         6
  | Number of centers in basis integrals           :         6
  | Number of centers in integrals                 :         6
  | Number of centers in hamiltonian               :         6
  * Using 8 tasks for Scalapack Eigenvalue solver.
  Detailed listing of tasks and assigned k-points:
  (for non-periodic systems, the "k-point" denotes an internal label only)
   Task     0 k-point     1 on co1631
   Task     1 k-point     1 on co1631
   Task     2 k-point     1 on co1631
   Task     3 k-point     1 on co1631
   Task     4 k-point     1 on co1631
   Task     5 k-point     1 on co1631
   Task     6 k-point     1 on co1631
   Task     7 k-point     1 on co1631
  Tasks:     8 split into      4 X      2 BLACS grid
  Calculating block size based on n_basis =           90  max_nprow =            4  max_npcol =            2
  ScaLAPACK block size set to:           16
  Allocating        0.012 MB for ovlp
  Allocating        0.012 MB for ham
  Allocating        0.012 MB for eigenvec
  Required Scalapack workspace - INTEGER:            1  REAL:             1
  Partitioning the integration grid into batches with parallel hashing+maxmin method.
  | Number of batches:      297
  | Maximal batch size:     188
  | Minimal batch size:      67
  | Average batch size:     105.455
  | Standard deviation of batch sizes:      35.771

  Integration load balanced across     8 MPI tasks.
  Work distribution over tasks is as follows:
  Task     0 has       3884 integration points.
  Task     1 has       3869 integration points.
  Task     2 has       3886 integration points.
  Task     3 has       3970 integration points.
  Task     4 has       3902 integration points.
  Task     5 has       3901 integration points.
  Task     6 has       3979 integration points.
  Task     7 has       3929 integration points.
  Initializing partition tables, free-atom densities, potentials, etc. across the integration grid (initialize_grid_storage).
  | Species        1: outer_partition_radius set to             16.344003741102970 AA .
  | The sparse table of interatomic distances needs          0.39 kbyte instead of         0.29 kbyte of memory.
  | Using the partition_type stratmann_smoother will reduce your memory usage.
  | Net number of integration points:    31320
  | of which are non-zero points    :    28921
  Renormalizing the initial density to the exact electron count on the 3D integration grid.
  | Initial density: Formal number of electrons (from input files) :       6.0000000000
  | Integrated number of electrons on 3D grid     :       5.9999765322
  | Charge integration error                      :      -0.0000234678
  | Normalization factor for density and gradient :       1.0000039113
  Renormalizing the free-atom superposition density to the exact electron count on the 3D integration grid.
  | Formal number of electrons (from input files) :       6.0000000000
  | Integrated number of electrons on 3D grid     :       5.9999765322
  | Charge integration error                      :      -0.0000234678
  | Normalization factor for density and gradient :       1.0000039113
  Obtaining max. number of non-zero basis functions in each batch (get_n_compute_maxes).
  | Maximal number of non-zero basis functions:       60 in task     0
  | Maximal number of non-zero basis functions:       66 in task     1
  | Maximal number of non-zero basis functions:       60 in task     2
  | Maximal number of non-zero basis functions:       60 in task     3
  | Maximal number of non-zero basis functions:       60 in task     4
  | Maximal number of non-zero basis functions:       60 in task     5
  | Maximal number of non-zero basis functions:       60 in task     6
  | Maximal number of non-zero basis functions:       60 in task     7
  Allocating        0.008 MB for KS_eigenvector
  Integrating Hamiltonian matrix: batch-based integration.
  Time summed over all CPUs for integration: real work        0.089 s, elapsed        0.092 s
  Integrating overlap matrix.
  Time summed over all CPUs for integration: real work        0.028 s, elapsed        0.029 s
  Deallocating overlap matrix.

  Updating Kohn-Sham eigenvalues and eigenvectors using ELSI and the ELPA eigensolver.
  Overlap matrix is not singular
  | Lowest and highest eigenvalues :  0.1655E-03,  0.2463E+01
  Finished singularity check of overlap matrix
  | Time :     0.060 s
  Starting ELPA eigensolver
  Finished Cholesky decomposition
  | Time :     0.001 s
  Finished transformation to standard eigenproblem
  | Time :     0.000 s
  Finished solving standard eigenproblem
  | Time :     0.002 s
  Finished back-transformation of eigenvectors
  | Time :     0.000 s

  Obtaining occupation numbers and chemical potential using ELSI.
  | Chemical potential (Fermi level):    -5.77758263 eV
  Writing Kohn-Sham eigenvalues.

  State    Occupation    Eigenvalue [Ha]    Eigenvalue [eV]
      1       2.00000          -0.532922          -14.50156
      2       2.00000          -0.532826          -14.49893
      3       2.00000          -0.532738          -14.49654
      4       0.00000          -0.021985           -0.59824
      5       0.00000          -0.020572           -0.55979
      6       0.00000          -0.019413           -0.52825
      7       0.00000           0.009908            0.26962
      8       0.00000           0.020212            0.54999
      9       0.00000           0.037836            1.02958
     10       0.00000           0.102875            2.79938
     11       0.00000           0.107173            2.91634
     12       0.00000           0.108278            2.94639

  Highest occupied state (VBM) at    -14.49654277 eV
  | Occupation number:      2.00000000

  Lowest unoccupied state (CBM) at    -0.59823791 eV
  | Occupation number:      0.00000000

  Overall HOMO-LUMO gap:     13.89830486 eV.
  Calculating total energy contributions from superposition of free atom densities.

  Total energy components:
  | Sum of eigenvalues            :          -3.19697326 Ha         -86.99406875 eV
  | XC energy correction          :          -1.70600408 Ha         -46.42273309 eV
  | XC potential correction       :           2.19118930 Ha          59.62529460 eV
  | Free-atom electrostatic energy:          -0.87191800 Ha         -23.72609594 eV
  | Hartree energy correction     :           0.00000000 Ha           0.00000000 eV
  | Entropy correction            :           0.00000000 Ha           0.00000000 eV
  | ---------------------------
  | Total energy                  :          -3.58370605 Ha         -97.51760318 eV
  | Total energy, T -> 0          :          -3.58370605 Ha         -97.51760318 eV  <-- do not rely on this value for anything but (periodic) metals
  | Electronic free energy        :          -3.58370605 Ha         -97.51760318 eV

  Derived energy quantities:
  | Kinetic energy                :           1.96081114 Ha          53.35638592 eV
  | Electrostatic energy          :          -3.83851310 Ha        -104.45125600 eV
  | Energy correction for multipole
  | error in Hartree potential    :           0.00000000 Ha           0.00000000 eV
  | Sum of eigenvalues per atom                           :         -14.49901146 eV
  | Total energy (T->0) per atom                          :         -16.25293386 eV  <-- do not rely on this value for anything but (periodic) metals
  | Electronic free energy per atom                       :         -16.25293386 eV
 
 --------------------------------------------
  Constructing auxiliary basis (full product) ...
 
  Product basis:
  | charge radius: extent of product basis function
  | field radius: extent of its Coulomb potential
  | Species   l  charge radius    field radius
  |    H      0     5.373006 A     12.489789 A
  |    H      0     5.373006 A     20.119426 A
  |    H      0     5.439094 A     23.015333 A
  |    H      0     5.439094 A     24.466028 A
  |    H      0     5.505995 A     25.379976 A
  |    H      0     5.505995 A     26.008164 A
  |    H      0     5.505995 A     25.692150 A
  |    H      1     4.418445 A     18.696492 A
  |    H      1     4.472792 A     21.916959 A
  |    H      1     4.472792 A     23.584993 A
  |    H      1     4.472792 A     24.466028 A
  |    H      1     4.472792 A     24.766961 A
  |    H      2     4.105953 A     20.871003 A
  |    H      2     4.156456 A     22.735684 A
  |    H      2     4.156456 A     23.875088 A
  |    H      3     3.910002 A     21.387588 A
  |    H      3     3.958095 A     23.015333 A
  |    H      4     3.723403 A     21.916959 A

  | Shrink_full_auxil_basis : there are       18  radial auxiliary wave functions
                            accepted and      24 rejected.
  | Shrink_full_auxil_basis : there are totally                 360 partial auxiliary wave functions.
 
  | Maximal number of product basis functions per thread :    48    48
 
  | Minimal total memory requirement for three-center overlap :       0.014 Gbs
  | Number of local auxiliary basis functions on task:      0    48
  | Number of local auxiliary basis functions on task:      1    48
  | Number of local auxiliary basis functions on task:      2    48
  | Number of local auxiliary basis functions on task:      3    48
  | Number of local auxiliary basis functions on task:      4    48
  | Number of local auxiliary basis functions on task:      5    48
  | Number of local auxiliary basis functions on task:      6    40
  | Number of local auxiliary basis functions on task:      7    32
  | 2D aux task distribution:      2 X      4
  | 2D block size (nb_aux_2d):     64
  | Task at    0 x    0 gets    192 x    128 entries of 2D aux
  | Task at    0 x    1 gets    192 x    104 entries of 2D aux
  | Task at    0 x    2 gets    192 x     64 entries of 2D aux
  | Task at    0 x    3 gets    192 x     64 entries of 2D aux
  | Task at    1 x    0 gets    168 x    128 entries of 2D aux
  | Task at    1 x    1 gets    168 x    104 entries of 2D aux
  | Task at    1 x    2 gets    168 x     64 entries of 2D aux
  | Task at    1 x    3 gets    168 x     64 entries of 2D aux
 
  Basis pair condensation :      4095  -->       2510
 
 ----------------------------------------------------
  Integrating the 3-basis-function HSE-pot matrix ...
  | i_atom:            1
  | i_atom:            2
  | i_atom:            3
  | i_atom:            4
  | i_atom:            5
  | i_atom:            6
  Integrating the HSE-pot interaction matrix for auxiliary basis functions (by atoms)

  SBT integration errors (all should be 'small'):
  large logFT aliasing -> increase N/lnrange
  large SBT aliasing -> decrease lnk0 & increase lnk0+lnrange
  large SBT ringing -> decrease lnr0 & increase lnr0+lnrange
  |            El't  L: logFT-al.   small-k   large-k   small-r   large-r
  Atomic logSBT for 2-center HSE-pot matrix    :  max(cpu_time)    wall_clock(cpu1)
  | Multiplication with kernel                 :        0.007 s           0.008 s
  | Main matrix multiplication                 :        0.031 s           0.032 s
  | Analytic angular integration               :        0.010 s           0.005 s
  | Kernel construction                        :        0.005 s           0.005 s
  | Overall 2-center overlap time              :        0.073 s           0.072 s

  Diagonalizing the Coulomb matrix and checking for singularities with ScaLapack .
 
  Difference of Coulomb matrix to its transposed:  4.9960E-16
  Eigenvalues of the Coulomb matrix range from    2.3793E+00 to    3.5964E-08.
  Using      351   eigenvalues out of rank      360   Coulomb matrix (auxiliary basis).
  Still using eigenvalue     3.8168E-05 while cutting     8.6924E-06 in Coulomb matrix.
 
  Multiplying ovlp_3fn x V^-0.5 (2d-scalapack)

  Initialize hartree_potential_storage
  Max. number of atoms included in rho_multipole:            6

  End scf initialization - timings             :  max(cpu_time)    wall_clock(cpu1)
  | Time for scf. initialization               :        1.167 s           1.291 s
  | Boundary condition initialization          :        0.000 s           0.000 s
  | Integration                                :        0.016 s           0.016 s
  | Solution of K.-S. eqns.                    :        0.010 s           0.064 s
  | Grid partitioning                          :        0.009 s           0.009 s
  | Preloading free-atom quantities on grid    :        0.001 s           0.001 s
  | Free-atom superposition energy             :        0.004 s           0.003 s
  | Total energy evaluation                    :        0.000 s           0.001 s
  | Product basis setup: Total time            :        1.120 s           1.189 s
  | Product basis: | 3-center integrations     :        0.425 s           0.426 s
  | Product basis: | 2-center integrations     :        0.523 s           0.523 s
  | Product basis: | 2-center linear algebra   :        0.016 s           0.017 s
  | Product basis: | 3-center x 2-center       :        0.011 s           0.011 s

  Partial memory accounting:
  | Current value for overall tracked memory usage:
  |   Minimum:        0.055 MB (on task 5)
  |   Maximum:        0.075 MB (on task 0)
  |   Average:        0.063 MB
  | Peak value for overall tracked memory usage:
  |   Minimum:        0.373 MB (on task 5 after allocating wave)
  |   Maximum:        0.421 MB (on task 1 after allocating wave)
  |   Average:        0.385 MB
  | Largest tracked array allocation so far:
  |   Minimum:        0.086 MB (H_times_psi on task 6)
  |   Maximum:        0.127 MB (all_coords on task 2)
  |   Average:        0.110 MB
  Note:  These values currently only include a subset of arrays which are explicitly tracked.
  The "true" memory usage will be greater.
------------------------------------------------------------

------------------------------------------------------------
          Begin self-consistency iteration #    1

  Date     :  20190817, Time     :  153136.483
------------------------------------------------------------
  Evaluating new KS density.
  Integration grid: deviation in total charge (<rho> - N_e) =  -8.881784E-16
  Pulay mixing of updated and previous charge densities.
  Renormalizing the density to the exact electron count on the 3D integration grid.
  | Formal number of electrons (from input files) :       6.0000000000
  | Integrated number of electrons on 3D grid     :       6.0000000000
  | Charge integration error                      :       0.0000000000
  | Normalization factor for density and gradient :       1.0000000000

  Evaluating partitioned Hartree potential by multipole expansion.
  | Original multipole sum: apparent total charge =   0.624010E-14
  | Sum of charges compensated after spline to logarithmic grids =  -0.600857E-04
  | Analytical far-field extrapolation by fixed multipoles:
  | Hartree multipole sum: apparent total charge =   0.620116E-14
  Summing up the Hartree potential.
  Time summed over all CPUs for potential: real work        0.078 s, elapsed        0.080 s
  | RMS charge density error from multipole expansion :   0.500808E-02

  Integrating Hamiltonian matrix: batch-based integration.
  Time summed over all CPUs for integration: real work        0.133 s, elapsed        0.138 s
  Evaluating the exchange matrix ... 

  Updating Kohn-Sham eigenvalues and eigenvectors using ELSI and the ELPA eigensolver.
  Starting ELPA eigensolver
  Finished transformation to standard eigenproblem
  | Time :     0.000 s
  Finished solving standard eigenproblem
  | Time :     0.002 s
  Finished back-transformation of eigenvectors
  | Time :     0.000 s

  Obtaining occupation numbers and chemical potential using ELSI.
  | Chemical potential (Fermi level):    -4.73623440 eV
  Writing Kohn-Sham eigenvalues.

  State    Occupation    Eigenvalue [Ha]    Eigenvalue [eV]
      1       2.00000          -0.500613          -13.62237
      2       2.00000          -0.500271          -13.61306
      3       2.00000          -0.500149          -13.60976
      4       0.00000           0.010108            0.27506
      5       0.00000           0.010845            0.29512
      6       0.00000           0.012957            0.35257
      7       0.00000           0.032088            0.87315
      8       0.00000           0.040801            1.11024
      9       0.00000           0.060553            1.64773
     10       0.00000           0.145009            3.94590
     11       0.00000           0.148590            4.04333
     12       0.00000           0.152506            4.14991

  Highest occupied state (VBM) at    -13.60975512 eV
  | Occupation number:      2.00000000

  Lowest unoccupied state (CBM) at     0.27506006 eV
  | Occupation number:      0.00000000

  Overall HOMO-LUMO gap:     13.88481518 eV.

  Total energy components:
  | Sum of eigenvalues            :          -3.00206601 Ha         -81.69037239 eV
  | XC energy correction          :          -1.14623297 Ha         -31.19058617 eV
  | XC potential correction       :           2.03386219 Ha          55.34420608 eV
  | Free-atom electrostatic energy:          -0.87191800 Ha         -23.72609594 eV
  | Hartree energy correction     :          -0.52760454 Ha         -14.35685003 eV
  | Entropy correction            :           0.00000000 Ha           0.00000000 eV
  | ---------------------------
  | Total energy                  :          -3.51395933 Ha         -95.61969845 eV
  | Total energy, T -> 0          :          -3.51395933 Ha         -95.61969845 eV  <-- do not rely on this value for anything but (periodic) metals
  | Electronic free energy        :          -3.51395933 Ha         -95.61969845 eV

  Derived energy quantities:
  | Kinetic energy                :           5.88604996 Ha         160.16756855 eV
  | Electrostatic energy          :          -4.61603665 Ha        -125.60874812 eV
  | Energy correction for multipole
  | error in Hartree potential    :          -0.00245796 Ha          -0.06688462 eV
  | Sum of eigenvalues per atom                           :         -13.61506207 eV
  | Total energy (T->0) per atom                          :         -15.93661641 eV  <-- do not rely on this value for anything but (periodic) metals
  | Electronic free energy per atom                       :         -15.93661641 eV

  Self-consistency convergence accuracy:
  | Change of charge density      :  0.3434E+00
  | Change of sum of eigenvalues  :  0.5304E+01 eV
  | Change of total energy        :  0.1898E+01 eV

  End self-consistency iteration #     1       :  max(cpu_time)    wall_clock(cpu1)
  | Time for this iteration                    :        0.044 s           0.044 s
  | Charge density update                      :        0.008 s           0.008 s
  | Density mixing                             :        0.000 s           0.001 s
  | Hartree multipole update                   :        0.001 s           0.001 s
  | Hartree multipole summation                :        0.010 s           0.010 s
  | Integration                                :        0.017 s           0.017 s
  | Fock matrix evaluation                     :        0.004 s           0.005 s
  | Solution of K.-S. eqns.                    :        0.002 s           0.002 s
  | Total energy evaluation                    :        0.000 s           0.000 s

  Partial memory accounting:
  | Current value for overall tracked memory usage:
  |   Minimum:        0.055 MB (on task 5)
  |   Maximum:        0.075 MB (on task 0)
  |   Average:        0.063 MB
  | Peak value for overall tracked memory usage:
  |   Minimum:        0.399 MB (on task 5 after allocating gradient_basis_wave)
  |   Maximum:        0.449 MB (on task 1 after allocating gradient_basis_wave)
  |   Average:        0.412 MB
  | Largest tracked array allocation so far:
  |   Minimum:        0.258 MB (gradient_basis_wave on task 0)
  |   Maximum:        0.284 MB (gradient_basis_wave on task 1)
  |   Average:        0.261 MB
  Note:  These values currently only include a subset of arrays which are explicitly tracked.
  The "true" memory usage will be greater.
------------------------------------------------------------

------------------------------------------------------------
          Begin self-consistency iteration #    2

  Date     :  20190817, Time     :  153136.528
------------------------------------------------------------
  Evaluating new KS density.
  Integration grid: deviation in total charge (<rho> - N_e) =  -4.440892E-15
  Pulay mixing of updated and previous charge densities.
  Renormalizing the density to the exact electron count on the 3D integration grid.
  | Formal number of electrons (from input files) :       6.0000000000
  | Integrated number of electrons on 3D grid     :       6.0000000000
  | Charge integration error                      :      -0.0000000000
  | Normalization factor for density and gradient :       1.0000000000

  Evaluating partitioned Hartree potential by multipole expansion.
  | Original multipole sum: apparent total charge =   0.881590E-14
  | Sum of charges compensated after spline to logarithmic grids =  -0.103500E-03
  | Analytical far-field extrapolation by fixed multipoles:
  | Hartree multipole sum: apparent total charge =   0.852509E-14
  Summing up the Hartree potential.
  Time summed over all CPUs for potential: real work        0.078 s, elapsed        0.080 s
  | RMS charge density error from multipole expansion :   0.856607E-02

  Integrating Hamiltonian matrix: batch-based integration.
  Time summed over all CPUs for integration: real work        0.129 s, elapsed        0.133 s
  Evaluating the exchange matrix ... 

  Updating Kohn-Sham eigenvalues and eigenvectors using ELSI and the ELPA eigensolver.
  Starting ELPA eigensolver
  Finished transformation to standard eigenproblem
  | Time :     0.000 s
  Finished solving standard eigenproblem
  | Time :     0.001 s
  Finished back-transformation of eigenvectors
  | Time :     0.000 s

  Obtaining occupation numbers and chemical potential using ELSI.
  | Chemical potential (Fermi level):    -3.52709692 eV
  Highest occupied state (VBM) at    -11.78273369 eV
  | Occupation number:      2.00000000

  Lowest unoccupied state (CBM) at     0.67404244 eV
  | Occupation number:      0.00000000

  Overall HOMO-LUMO gap:     12.45677613 eV.

  Checking to see if s.c.f. parameters should be adjusted.

  Total energy components:
  | Sum of eigenvalues            :          -2.60004736 Ha         -70.75088838 eV
  | XC energy correction          :          -1.31390076 Ha         -35.75305867 eV
  | XC potential correction       :           2.23081840 Ha          60.70365731 eV
  | Free-atom electrostatic energy:          -0.87191800 Ha         -23.72609594 eV
  | Hartree energy correction     :          -0.94391963 Ha         -25.68535998 eV
  | Entropy correction            :           0.00000000 Ha           0.00000000 eV
  | ---------------------------
  | Total energy                  :          -3.49896734 Ha         -95.21174567 eV
  | Total energy, T -> 0          :          -3.49896734 Ha         -95.21174567 eV  <-- do not rely on this value for anything but (periodic) metals
  | Electronic free energy        :          -3.49896734 Ha         -95.21174567 eV

  Derived energy quantities:
  | Kinetic energy                :           6.39188154 Ha         173.93194639 eV
  | Electrostatic energy          :          -5.05227603 Ha        -137.47942569 eV
  | Energy correction for multipole
  | error in Hartree potential    :          -0.00431974 Ha          -0.11754609 eV
  | Sum of eigenvalues per atom                           :         -11.79181473 eV
  | Total energy (T->0) per atom                          :         -15.86862428 eV  <-- do not rely on this value for anything but (periodic) metals
  | Electronic free energy per atom                       :         -15.86862428 eV

  Self-consistency convergence accuracy:
  | Change of charge density      :  0.1357E+00
  | Change of sum of eigenvalues  :  0.1094E+02 eV
  | Change of total energy        :  0.4080E+00 eV

  End self-consistency iteration #     2       :  max(cpu_time)    wall_clock(cpu1)
  | Time for this iteration                    :        0.042 s           0.042 s
  | Charge density update                      :        0.008 s           0.007 s
  | Density mixing                             :        0.001 s           0.001 s
  | Hartree multipole update                   :        0.001 s           0.001 s
  | Hartree multipole summation                :        0.010 s           0.010 s
  | Integration                                :        0.017 s           0.017 s
  | Fock matrix evaluation                     :        0.004 s           0.004 s
  | Solution of K.-S. eqns.                    :        0.002 s           0.002 s
  | Total energy evaluation                    :        0.000 s           0.000 s

  Partial memory accounting:
  | Current value for overall tracked memory usage:
  |   Minimum:        0.056 MB (on task 5)
  |   Maximum:        0.076 MB (on task 0)
  |   Average:        0.064 MB
  | Peak value for overall tracked memory usage:
  |   Minimum:        0.399 MB (on task 5 after allocating gradient_basis_wave)
  |   Maximum:        0.449 MB (on task 1 after allocating gradient_basis_wave)
  |   Average:        0.412 MB
  | Largest tracked array allocation so far:
  |   Minimum:        0.258 MB (gradient_basis_wave on task 0)
  |   Maximum:        0.284 MB (gradient_basis_wave on task 1)
  |   Average:        0.261 MB
  Note:  These values currently only include a subset of arrays which are explicitly tracked.
  The "true" memory usage will be greater.
------------------------------------------------------------

------------------------------------------------------------
          Begin self-consistency iteration #    3

  Date     :  20190817, Time     :  153136.570
------------------------------------------------------------
  Evaluating new KS density.
  Integration grid: deviation in total charge (<rho> - N_e) =   1.776357E-15
  Pulay mixing of updated and previous charge densities.
  Renormalizing the density to the exact electron count on the 3D integration grid.
  | Formal number of electrons (from input files) :       6.0000000000
  | Integrated number of electrons on 3D grid     :       6.0000000000
  | Charge integration error                      :       0.0000000000
  | Normalization factor for density and gradient :       1.0000000000

  Evaluating partitioned Hartree potential by multipole expansion.
  | Original multipole sum: apparent total charge =   0.655794E-14
  | Sum of charges compensated after spline to logarithmic grids =  -0.924709E-04
  | Analytical far-field extrapolation by fixed multipoles:
  | Hartree multipole sum: apparent total charge =   0.668211E-14
  Summing up the Hartree potential.
  Time summed over all CPUs for potential: real work        0.079 s, elapsed        0.081 s
  | RMS charge density error from multipole expansion :   0.794627E-02

  Integrating Hamiltonian matrix: batch-based integration.
  Time summed over all CPUs for integration: real work        0.129 s, elapsed        0.134 s
  Evaluating the exchange matrix ... 

  Updating Kohn-Sham eigenvalues and eigenvectors using ELSI and the ELPA eigensolver.
  Starting ELPA eigensolver
  Finished transformation to standard eigenproblem
  | Time :     0.000 s
  Finished solving standard eigenproblem
  | Time :     0.001 s
  Finished back-transformation of eigenvectors
  | Time :     0.000 s

  Obtaining occupation numbers and chemical potential using ELSI.
  | Chemical potential (Fermi level):    -3.71720555 eV
  Highest occupied state (VBM) at    -12.06257417 eV
  | Occupation number:      2.00000000

  Lowest unoccupied state (CBM) at     0.62341017 eV
  | Occupation number:      0.00000000

  Overall HOMO-LUMO gap:     12.68598434 eV.

  Total energy components:
  | Sum of eigenvalues            :          -2.66172767 Ha         -72.42929507 eV
  | XC energy correction          :          -1.29925308 Ha         -35.35447512 eV
  | XC potential correction       :           2.18971824 Ha          59.58526484 eV
  | Free-atom electrostatic energy:          -0.87191800 Ha         -23.72609594 eV
  | Hartree energy correction     :          -0.85913013 Ha         -23.37812024 eV
  | Entropy correction            :           0.00000000 Ha           0.00000000 eV
  | ---------------------------
  | Total energy                  :          -3.50231064 Ha         -95.30272152 eV
  | Total energy, T -> 0          :          -3.50231064 Ha         -95.30272152 eV  <-- do not rely on this value for anything but (periodic) metals
  | Electronic free energy        :          -3.50231064 Ha         -95.30272152 eV

  Derived energy quantities:
  | Kinetic energy                :           6.13328791 Ha         166.89525555 eV
  | Electrostatic energy          :          -4.95150389 Ha        -134.73727607 eV
  | Energy correction for multipole
  | error in Hartree potential    :          -0.00408892 Ha          -0.11126529 eV
  | Sum of eigenvalues per atom                           :         -12.07154918 eV
  | Total energy (T->0) per atom                          :         -15.88378692 eV  <-- do not rely on this value for anything but (periodic) metals
  | Electronic free energy per atom                       :         -15.88378692 eV

  Self-consistency convergence accuracy:
  | Change of charge density      :  0.2259E-01
  | Change of sum of eigenvalues  : -0.1678E+01 eV
  | Change of total energy        : -0.9098E-01 eV

  End self-consistency iteration #     3       :  max(cpu_time)    wall_clock(cpu1)
  | Time for this iteration                    :        0.043 s           0.043 s
  | Charge density update                      :        0.007 s           0.008 s
  | Density mixing                             :        0.001 s           0.000 s
  | Hartree multipole update                   :        0.001 s           0.001 s
  | Hartree multipole summation                :        0.010 s           0.011 s
  | Integration                                :        0.017 s           0.017 s
  | Fock matrix evaluation                     :        0.004 s           0.004 s
  | Solution of K.-S. eqns.                    :        0.002 s           0.001 s
  | Total energy evaluation                    :        0.000 s           0.000 s

  Partial memory accounting:
  | Current value for overall tracked memory usage:
  |   Minimum:        0.056 MB (on task 5)
  |   Maximum:        0.076 MB (on task 0)
  |   Average:        0.064 MB
  | Peak value for overall tracked memory usage:
  |   Minimum:        0.400 MB (on task 5 after allocating gradient_basis_wave)
  |   Maximum:        0.450 MB (on task 1 after allocating gradient_basis_wave)
  |   Average:        0.412 MB
  | Largest tracked array allocation so far:
  |   Minimum:        0.258 MB (gradient_basis_wave on task 0)
  |   Maximum:        0.284 MB (gradient_basis_wave on task 1)
  |   Average:        0.261 MB
  Note:  These values currently only include a subset of arrays which are explicitly tracked.
  The "true" memory usage will be greater.
------------------------------------------------------------

------------------------------------------------------------
          Begin self-consistency iteration #    4

  Date     :  20190817, Time     :  153136.613
------------------------------------------------------------
  Evaluating new KS density.
  Integration grid: deviation in total charge (<rho> - N_e) =   7.105427E-15
  Pulay mixing of updated and previous charge densities.
  Renormalizing the density to the exact electron count on the 3D integration grid.
  | Formal number of electrons (from input files) :       6.0000000000
  | Integrated number of electrons on 3D grid     :       6.0000000000
  | Charge integration error                      :       0.0000000000
  | Normalization factor for density and gradient :       1.0000000000

  Evaluating partitioned Hartree potential by multipole expansion.
  | Original multipole sum: apparent total charge =   0.141217E-13
  | Sum of charges compensated after spline to logarithmic grids =  -0.941053E-04
  | Analytical far-field extrapolation by fixed multipoles:
  | Hartree multipole sum: apparent total charge =   0.144223E-13
  Summing up the Hartree potential.
  Time summed over all CPUs for potential: real work        0.077 s, elapsed        0.080 s
  | RMS charge density error from multipole expansion :   0.813198E-02

  Integrating Hamiltonian matrix: batch-based integration.
  Time summed over all CPUs for integration: real work        0.126 s, elapsed        0.130 s
  Evaluating the exchange matrix ... 

  Updating Kohn-Sham eigenvalues and eigenvectors using ELSI and the ELPA eigensolver.
  Starting ELPA eigensolver
  Finished transformation to standard eigenproblem
  | Time :     0.000 s
  Finished solving standard eigenproblem
  | Time :     0.001 s
  Finished back-transformation of eigenvectors
  | Time :     0.000 s

  Obtaining occupation numbers and chemical potential using ELSI.
  | Chemical potential (Fermi level):    -3.63743612 eV
  Highest occupied state (VBM) at    -11.95380112 eV
  | Occupation number:      2.00000000

  Lowest unoccupied state (CBM) at     0.67191160 eV
  | Occupation number:      0.00000000

  Overall HOMO-LUMO gap:     12.62571272 eV.

  Total energy components:
  | Sum of eigenvalues            :          -2.63784566 Ha         -71.77943257 eV
  | XC energy correction          :          -1.30832639 Ha         -35.60137242 eV
  | XC potential correction       :           2.19758300 Ha          59.79927598 eV
  | Free-atom electrostatic energy:          -0.87191800 Ha         -23.72609594 eV
  | Hartree energy correction     :          -0.87702440 Ha         -23.86504829 eV
  | Entropy correction            :           0.00000000 Ha           0.00000000 eV
  | ---------------------------
  | Total energy                  :          -3.49753146 Ha         -95.17267323 eV
  | Total energy, T -> 0          :          -3.49753146 Ha         -95.17267323 eV  <-- do not rely on this value for anything but (periodic) metals
  | Electronic free energy        :          -3.49753146 Ha         -95.17267323 eV

  Derived energy quantities:
  | Kinetic energy                :           6.13112270 Ha         166.83633728 eV
  | Electrostatic energy          :          -4.95962751 Ha        -134.95833120 eV
  | Energy correction for multipole
  | error in Hartree potential    :          -0.00422741 Ha          -0.11503369 eV
  | Sum of eigenvalues per atom                           :         -11.96323876 eV
  | Total energy (T->0) per atom                          :         -15.86211221 eV  <-- do not rely on this value for anything but (periodic) metals
  | Electronic free energy per atom                       :         -15.86211221 eV

  Self-consistency convergence accuracy:
  | Change of charge density      :  0.7398E-02
  | Change of sum of eigenvalues  :  0.6499E+00 eV
  | Change of total energy        :  0.1300E+00 eV

  End self-consistency iteration #     4       :  max(cpu_time)    wall_clock(cpu1)
  | Time for this iteration                    :        0.042 s           0.042 s
  | Charge density update                      :        0.007 s           0.007 s
  | Density mixing                             :        0.001 s           0.001 s
  | Hartree multipole update                   :        0.001 s           0.001 s
  | Hartree multipole summation                :        0.010 s           0.010 s
  | Integration                                :        0.017 s           0.017 s
  | Fock matrix evaluation                     :        0.004 s           0.004 s
  | Solution of K.-S. eqns.                    :        0.002 s           0.002 s
  | Total energy evaluation                    :        0.000 s           0.000 s

  Partial memory accounting:
  | Current value for overall tracked memory usage:
  |   Minimum:        0.056 MB (on task 5)
  |   Maximum:        0.076 MB (on task 0)
  |   Average:        0.064 MB
  | Peak value for overall tracked memory usage:
  |   Minimum:        0.400 MB (on task 5 after allocating gradient_basis_wave)
  |   Maximum:        0.450 MB (on task 1 after allocating gradient_basis_wave)
  |   Average:        0.412 MB
  | Largest tracked array allocation so far:
  |   Minimum:        0.258 MB (gradient_basis_wave on task 0)
  |   Maximum:        0.284 MB (gradient_basis_wave on task 1)
  |   Average:        0.261 MB
  Note:  These values currently only include a subset of arrays which are explicitly tracked.
  The "true" memory usage will be greater.
------------------------------------------------------------

------------------------------------------------------------
          Begin self-consistency iteration #    5

  Date     :  20190817, Time     :  153136.655
------------------------------------------------------------
  Evaluating new KS density.
  Integration grid: deviation in total charge (<rho> - N_e) =  -8.881784E-16
  Pulay mixing of updated and previous charge densities.
  Renormalizing the density to the exact electron count on the 3D integration grid.
  | Formal number of electrons (from input files) :       6.0000000000
  | Integrated number of electrons on 3D grid     :       6.0000000000
  | Charge integration error                      :      -0.0000000000
  | Normalization factor for density and gradient :       1.0000000000

  Evaluating partitioned Hartree potential by multipole expansion.
  | Original multipole sum: apparent total charge =   0.107108E-14
  | Sum of charges compensated after spline to logarithmic grids =  -0.942918E-04
  | Analytical far-field extrapolation by fixed multipoles:
  | Hartree multipole sum: apparent total charge =   0.123748E-14
  Summing up the Hartree potential.
  Time summed over all CPUs for potential: real work        0.078 s, elapsed        0.080 s
  | RMS charge density error from multipole expansion :   0.812704E-02

  Integrating Hamiltonian matrix: batch-based integration.
  Time summed over all CPUs for integration: real work        0.128 s, elapsed        0.132 s
  Evaluating the exchange matrix ... 

  Updating Kohn-Sham eigenvalues and eigenvectors using ELSI and the ELPA eigensolver.
  Starting ELPA eigensolver
  Finished transformation to standard eigenproblem
  | Time :     0.001 s
  Finished solving standard eigenproblem
  | Time :     0.001 s
  Finished back-transformation of eigenvectors
  | Time :     0.000 s

  Obtaining occupation numbers and chemical potential using ELSI.
  | Chemical potential (Fermi level):    -3.63977854 eV
  Highest occupied state (VBM) at    -11.95684736 eV
  | Occupation number:      2.00000000

  Lowest unoccupied state (CBM) at     0.67032158 eV
  | Occupation number:      0.00000000

  Overall HOMO-LUMO gap:     12.62716894 eV.

  Total energy components:
  | Sum of eigenvalues            :          -2.63851809 Ha         -71.79773031 eV
  | XC energy correction          :          -1.30900377 Ha         -35.61980498 eV
  | XC potential correction       :           2.19732468 Ha          59.79224667 eV
  | Free-atom electrostatic energy:          -0.87191800 Ha         -23.72609594 eV
  | Hartree energy correction     :          -0.87645096 Ha         -23.84944407 eV
  | Entropy correction            :           0.00000000 Ha           0.00000000 eV
  | ---------------------------
  | Total energy                  :          -3.49856615 Ha         -95.20082863 eV
  | Total energy, T -> 0          :          -3.49856615 Ha         -95.20082863 eV  <-- do not rely on this value for anything but (periodic) metals
  | Electronic free energy        :          -3.49856615 Ha         -95.20082863 eV

  Derived energy quantities:
  | Kinetic energy                :           6.12342473 Ha         166.62686465 eV
  | Electrostatic energy          :          -4.95930178 Ha        -134.94946769 eV
  | Energy correction for multipole
  | error in Hartree potential    :          -0.00422359 Ha          -0.11492975 eV
  | Sum of eigenvalues per atom                           :         -11.96628838 eV
  | Total energy (T->0) per atom                          :         -15.86680477 eV  <-- do not rely on this value for anything but (periodic) metals
  | Electronic free energy per atom                       :         -15.86680477 eV

  Self-consistency convergence accuracy:
  | Change of charge density      :  0.1516E-03
  | Change of sum of eigenvalues  : -0.1830E-01 eV
  | Change of total energy        : -0.2816E-01 eV

  End self-consistency iteration #     5       :  max(cpu_time)    wall_clock(cpu1)
  | Time for this iteration                    :        0.042 s           0.042 s
  | Charge density update                      :        0.007 s           0.008 s
  | Density mixing                             :        0.001 s           0.000 s
  | Hartree multipole update                   :        0.001 s           0.001 s
  | Hartree multipole summation                :        0.010 s           0.011 s
  | Integration                                :        0.017 s           0.016 s
  | Fock matrix evaluation                     :        0.004 s           0.004 s
  | Solution of K.-S. eqns.                    :        0.002 s           0.002 s
  | Total energy evaluation                    :        0.000 s           0.000 s

  Partial memory accounting:
  | Current value for overall tracked memory usage:
  |   Minimum:        0.056 MB (on task 5)
  |   Maximum:        0.076 MB (on task 0)
  |   Average:        0.064 MB
  | Peak value for overall tracked memory usage:
  |   Minimum:        0.400 MB (on task 5 after allocating gradient_basis_wave)
  |   Maximum:        0.450 MB (on task 1 after allocating gradient_basis_wave)
  |   Average:        0.412 MB
  | Largest tracked array allocation so far:
  |   Minimum:        0.258 MB (gradient_basis_wave on task 0)
  |   Maximum:        0.284 MB (gradient_basis_wave on task 1)
  |   Average:        0.261 MB
  Note:  These values currently only include a subset of arrays which are explicitly tracked.
  The "true" memory usage will be greater.
------------------------------------------------------------

------------------------------------------------------------
          Begin self-consistency iteration #    6

  Date     :  20190817, Time     :  153136.698
------------------------------------------------------------
  Evaluating new KS density.
  Integration grid: deviation in total charge (<rho> - N_e) =  -1.243450E-14
  Pulay mixing of updated and previous charge densities.
  Renormalizing the density to the exact electron count on the 3D integration grid.
  | Formal number of electrons (from input files) :       6.0000000000
  | Integrated number of electrons on 3D grid     :       6.0000000000
  | Charge integration error                      :      -0.0000000000
  | Normalization factor for density and gradient :       1.0000000000

  Evaluating partitioned Hartree potential by multipole expansion.
  | Original multipole sum: apparent total charge =   0.715942E-14
  | Sum of charges compensated after spline to logarithmic grids =  -0.951833E-04
  | Analytical far-field extrapolation by fixed multipoles:
  | Hartree multipole sum: apparent total charge =   0.731810E-14
  Summing up the Hartree potential.
  Time summed over all CPUs for potential: real work        0.078 s, elapsed        0.081 s
  | RMS charge density error from multipole expansion :   0.813026E-02

  Integrating Hamiltonian matrix: batch-based integration.
  Time summed over all CPUs for integration: real work        0.129 s, elapsed        0.133 s
  Evaluating the exchange matrix ... 

  Updating Kohn-Sham eigenvalues and eigenvectors using ELSI and the ELPA eigensolver.
  Starting ELPA eigensolver
  Finished transformation to standard eigenproblem
  | Time :     0.000 s
  Finished solving standard eigenproblem
  | Time :     0.001 s
  Finished back-transformation of eigenvectors
  | Time :     0.000 s

  Obtaining occupation numbers and chemical potential using ELSI.
  | Chemical potential (Fermi level):    -3.63898319 eV
  Highest occupied state (VBM) at    -11.95600321 eV
  | Occupation number:      2.00000000

  Lowest unoccupied state (CBM) at     0.67117280 eV
  | Occupation number:      0.00000000

  Overall HOMO-LUMO gap:     12.62717602 eV.

  Total energy components:
  | Sum of eigenvalues            :          -2.63834445 Ha         -71.79300517 eV
  | XC energy correction          :          -1.30905478 Ha         -35.62119289 eV
  | XC potential correction       :           2.19734854 Ha          59.79289606 eV
  | Free-atom electrostatic energy:          -0.87191800 Ha         -23.72609594 eV
  | Hartree energy correction     :          -0.87651676 Ha         -23.85123451 eV
  | Entropy correction            :           0.00000000 Ha           0.00000000 eV
  | ---------------------------
  | Total energy                  :          -3.49848544 Ha         -95.19863245 eV
  | Total energy, T -> 0          :          -3.49848544 Ha         -95.19863245 eV  <-- do not rely on this value for anything but (periodic) metals
  | Electronic free energy        :          -3.49848544 Ha         -95.19863245 eV

  Derived energy quantities:
  | Kinetic energy                :           6.12339731 Ha         166.62611858 eV
  | Electrostatic energy          :          -4.95939490 Ha        -134.95200165 eV
  | Energy correction for multipole
  | error in Hartree potential    :          -0.00422429 Ha          -0.11494889 eV
  | Sum of eigenvalues per atom                           :         -11.96550086 eV
  | Total energy (T->0) per atom                          :         -15.86643874 eV  <-- do not rely on this value for anything but (periodic) metals
  | Electronic free energy per atom                       :         -15.86643874 eV

  Self-consistency convergence accuracy:
  | Change of charge density      :  0.1278E-03
  | Change of sum of eigenvalues  :  0.4725E-02 eV
  | Change of total energy        :  0.2196E-02 eV

  End self-consistency iteration #     6       :  max(cpu_time)    wall_clock(cpu1)
  | Time for this iteration                    :        0.043 s           0.042 s
  | Charge density update                      :        0.007 s           0.007 s
  | Density mixing                             :        0.001 s           0.001 s
  | Hartree multipole update                   :        0.001 s           0.001 s
  | Hartree multipole summation                :        0.010 s           0.010 s
  | Integration                                :        0.017 s           0.017 s
  | Fock matrix evaluation                     :        0.004 s           0.004 s
  | Solution of K.-S. eqns.                    :        0.002 s           0.002 s
  | Total energy evaluation                    :        0.000 s           0.000 s

  Partial memory accounting:
  | Current value for overall tracked memory usage:
  |   Minimum:        0.056 MB (on task 5)
  |   Maximum:        0.076 MB (on task 0)
  |   Average:        0.064 MB
  | Peak value for overall tracked memory usage:
  |   Minimum:        0.400 MB (on task 5 after allocating gradient_basis_wave)
  |   Maximum:        0.450 MB (on task 1 after allocating gradient_basis_wave)
  |   Average:        0.412 MB
  | Largest tracked array allocation so far:
  |   Minimum:        0.258 MB (gradient_basis_wave on task 0)
  |   Maximum:        0.284 MB (gradient_basis_wave on task 1)
  |   Average:        0.261 MB
  Note:  These values currently only include a subset of arrays which are explicitly tracked.
  The "true" memory usage will be greater.
------------------------------------------------------------

------------------------------------------------------------
          Begin self-consistency iteration #    7

  Date     :  20190817, Time     :  153136.741
------------------------------------------------------------
  Evaluating new KS density.
  Integration grid: deviation in total charge (<rho> - N_e) =  -6.217249E-15
  Pulay mixing of updated and previous charge densities.
  Renormalizing the density to the exact electron count on the 3D integration grid.
  | Formal number of electrons (from input files) :       6.0000000000
  | Integrated number of electrons on 3D grid     :       6.0000000000
  | Charge integration error                      :      -0.0000000000
  | Normalization factor for density and gradient :       1.0000000000

  Evaluating partitioned Hartree potential by multipole expansion.
  | Original multipole sum: apparent total charge =   0.955079E-14
  | Sum of charges compensated after spline to logarithmic grids =  -0.952082E-04
  | Analytical far-field extrapolation by fixed multipoles:
  | Hartree multipole sum: apparent total charge =   0.937193E-14
  Summing up the Hartree potential.
  Time summed over all CPUs for potential: real work        0.077 s, elapsed        0.079 s
  | RMS charge density error from multipole expansion :   0.813032E-02

  Integrating Hamiltonian matrix: batch-based integration.
  Time summed over all CPUs for integration: real work        0.128 s, elapsed        0.132 s
  Evaluating the exchange matrix ... 

  Updating Kohn-Sham eigenvalues and eigenvectors using ELSI and the ELPA eigensolver.
  Starting ELPA eigensolver
  Finished transformation to standard eigenproblem
  | Time :     0.001 s
  Finished solving standard eigenproblem
  | Time :     0.001 s
  Finished back-transformation of eigenvectors
  | Time :     0.000 s

  Obtaining occupation numbers and chemical potential using ELSI.
  | Chemical potential (Fermi level):    -3.63895479 eV
  Highest occupied state (VBM) at    -11.95597912 eV
  | Occupation number:      2.00000000

  Lowest unoccupied state (CBM) at     0.67120274 eV
  | Occupation number:      0.00000000

  Overall HOMO-LUMO gap:     12.62718186 eV.

  Total energy components:
  | Sum of eigenvalues            :          -2.63833821 Ha         -71.79283561 eV
  | XC energy correction          :          -1.30906513 Ha         -35.62147468 eV
  | XC potential correction       :           2.19735077 Ha          59.79295678 eV
  | Free-atom electrostatic energy:          -0.87191800 Ha         -23.72609594 eV
  | Hartree energy correction     :          -0.87652190 Ha         -23.85137437 eV
  | Entropy correction            :           0.00000000 Ha           0.00000000 eV
  | ---------------------------
  | Total energy                  :          -3.49849247 Ha         -95.19882381 eV
  | Total energy, T -> 0          :          -3.49849247 Ha         -95.19882381 eV  <-- do not rely on this value for anything but (periodic) metals
  | Electronic free energy        :          -3.49849247 Ha         -95.19882381 eV

  Derived energy quantities:
  | Kinetic energy                :           6.12333566 Ha         166.62444103 eV
  | Electrostatic energy          :          -4.95939886 Ha        -134.95210938 eV
  | Energy correction for multipole
  | error in Hartree potential    :          -0.00422431 Ha          -0.11494944 eV
  | Sum of eigenvalues per atom                           :         -11.96547260 eV
  | Total energy (T->0) per atom                          :         -15.86647064 eV  <-- do not rely on this value for anything but (periodic) metals
  | Electronic free energy per atom                       :         -15.86647064 eV

  Self-consistency convergence accuracy:
  | Change of charge density      :  0.2041E-05
  | Change of sum of eigenvalues  :  0.1696E-03 eV
  | Change of total energy        : -0.1914E-03 eV

  End self-consistency iteration #     7       :  max(cpu_time)    wall_clock(cpu1)
  | Time for this iteration                    :        0.043 s           0.042 s
  | Charge density update                      :        0.008 s           0.007 s
  | Density mixing                             :        0.001 s           0.001 s
  | Hartree multipole update                   :        0.001 s           0.001 s
  | Hartree multipole summation                :        0.010 s           0.010 s
  | Integration                                :        0.017 s           0.017 s
  | Fock matrix evaluation                     :        0.004 s           0.004 s
  | Solution of K.-S. eqns.                    :        0.002 s           0.002 s
  | Total energy evaluation                    :        0.000 s           0.000 s

  Partial memory accounting:
  | Current value for overall tracked memory usage:
  |   Minimum:        0.056 MB (on task 5)
  |   Maximum:        0.076 MB (on task 0)
  |   Average:        0.064 MB
  | Peak value for overall tracked memory usage:
  |   Minimum:        0.400 MB (on task 5 after allocating gradient_basis_wave)
  |   Maximum:        0.450 MB (on task 1 after allocating gradient_basis_wave)
  |   Average:        0.412 MB
  | Largest tracked array allocation so far:
  |   Minimum:        0.258 MB (gradient_basis_wave on task 0)
  |   Maximum:        0.284 MB (gradient_basis_wave on task 1)
  |   Average:        0.261 MB
  Note:  These values currently only include a subset of arrays which are explicitly tracked.
  The "true" memory usage will be greater.
------------------------------------------------------------

------------------------------------------------------------
          Begin self-consistency iteration #    8

  Date     :  20190817, Time     :  153136.783
------------------------------------------------------------
  Evaluating new KS density.
  Integration grid: deviation in total charge (<rho> - N_e) =   8.881784E-16
  Pulay mixing of updated and previous charge densities.
  Renormalizing the density to the exact electron count on the 3D integration grid.
  | Formal number of electrons (from input files) :       6.0000000000
  | Integrated number of electrons on 3D grid     :       6.0000000000
  | Charge integration error                      :       0.0000000000
  | Normalization factor for density and gradient :       1.0000000000

  Evaluating partitioned Hartree potential by multipole expansion.
  | Original multipole sum: apparent total charge =   0.903183E-14
  | Sum of charges compensated after spline to logarithmic grids =  -0.952094E-04
  | Analytical far-field extrapolation by fixed multipoles:
  | Hartree multipole sum: apparent total charge =   0.959292E-14
  Summing up the Hartree potential.
  Time summed over all CPUs for potential: real work        0.078 s, elapsed        0.080 s
  | RMS charge density error from multipole expansion :   0.813030E-02

  Integrating Hamiltonian matrix: batch-based integration.
  Time summed over all CPUs for integration: real work        0.128 s, elapsed        0.133 s
  Evaluating the exchange matrix ... 

  Updating Kohn-Sham eigenvalues and eigenvectors using ELSI and the ELPA eigensolver.
  Starting ELPA eigensolver
  Finished transformation to standard eigenproblem
  | Time :     0.000 s
  Finished solving standard eigenproblem
  | Time :     0.001 s
  Finished back-transformation of eigenvectors
  | Time :     0.000 s

  Obtaining occupation numbers and chemical potential using ELSI.
  | Chemical potential (Fermi level):    -3.63895110 eV
  Highest occupied state (VBM) at    -11.95597997 eV
  | Occupation number:      2.00000000

  Lowest unoccupied state (CBM) at     0.67120895 eV
  | Occupation number:      0.00000000

  Overall HOMO-LUMO gap:     12.62718891 eV.

  Total energy components:
  | Sum of eigenvalues            :          -2.63833767 Ha         -71.79282083 eV
  | XC energy correction          :          -1.30906548 Ha         -35.62148413 eV
  | XC potential correction       :           2.19735128 Ha          59.79297064 eV
  | Free-atom electrostatic energy:          -0.87191800 Ha         -23.72609594 eV
  | Hartree energy correction     :          -0.87652307 Ha         -23.85140629 eV
  | Entropy correction            :           0.00000000 Ha           0.00000000 eV
  | ---------------------------
  | Total energy                  :          -3.49849294 Ha         -95.19883655 eV
  | Total energy, T -> 0          :          -3.49849294 Ha         -95.19883655 eV  <-- do not rely on this value for anything but (periodic) metals
  | Electronic free energy        :          -3.49849294 Ha         -95.19883655 eV

  Derived energy quantities:
  | Kinetic energy                :           6.12333488 Ha         166.62441988 eV
  | Electrostatic energy          :          -4.95939798 Ha        -134.95208539 eV
  | Energy correction for multipole
  | error in Hartree potential    :          -0.00422431 Ha          -0.11494944 eV
  | Sum of eigenvalues per atom                           :         -11.96547014 eV
  | Total energy (T->0) per atom                          :         -15.86647276 eV  <-- do not rely on this value for anything but (periodic) metals
  | Electronic free energy per atom                       :         -15.86647276 eV

[...]
  | XC energy correction          :          -1.30906565 Ha         -35.62148862 eV
  | XC potential correction       :           2.19735155 Ha          59.79297778 eV
  | Free-atom electrostatic energy:          -0.87191800 Ha         -23.72609594 eV
  | Hartree energy correction     :          -0.87652366 Ha         -23.85142235 eV
  | Entropy correction            :           0.00000000 Ha           0.00000000 eV
  | ---------------------------
  | Total energy                  :          -3.49849301 Ha         -95.19883841 eV
  | Total energy, T -> 0          :          -3.49849301 Ha         -95.19883841 eV  <-- do not rely on this value for anything but (periodic) metals
  | Electronic free energy        :          -3.49849301 Ha         -95.19883841 eV

  Derived energy quantities:
  | Kinetic energy                :           6.12333515 Ha         166.62442707 eV
  | Electrostatic energy          :          -4.95939789 Ha        -134.95208284 eV
  | Energy correction for multipole
  | error in Hartree potential    :          -0.00422432 Ha          -0.11494947 eV
  | Sum of eigenvalues per atom                           :         -11.96546821 eV
  | Total energy (T->0) per atom                          :         -15.86647307 eV  <-- do not rely on this value for anything but (periodic) metals
  | Electronic free energy per atom                       :         -15.86647307 eV

  Self-consistency convergence accuracy:
  | Change of charge density      :  0.2844E-06
  | Change of sum of eigenvalues  :  0.1155E-04 eV
  | Change of total energy        : -0.1854E-05 eV

  End self-consistency iteration #     9       :  max(cpu_time)    wall_clock(cpu1)
  | Time for this iteration                    :        0.044 s           0.044 s
  | Charge density update                      :        0.008 s           0.008 s
  | Density mixing                             :        0.001 s           0.001 s
  | Hartree multipole update                   :        0.001 s           0.001 s
  | Hartree multipole summation                :        0.010 s           0.010 s
  | Integration                                :        0.017 s           0.017 s
  | Fock matrix evaluation                     :        0.004 s           0.004 s
  | Solution of K.-S. eqns.                    :        0.002 s           0.003 s
  | Total energy evaluation                    :        0.000 s           0.000 s

  Partial memory accounting:
  | Current value for overall tracked memory usage:
  |   Minimum:        0.056 MB (on task 5)
  |   Maximum:        0.076 MB (on task 0)
  |   Average:        0.064 MB
  | Peak value for overall tracked memory usage:
  |   Minimum:        0.400 MB (on task 5 after allocating gradient_basis_wave)
  |   Maximum:        0.450 MB (on task 1 after allocating gradient_basis_wave)
  |   Average:        0.413 MB
  | Largest tracked array allocation so far:
  |   Minimum:        0.258 MB (gradient_basis_wave on task 0)
  |   Maximum:        0.284 MB (gradient_basis_wave on task 1)
  |   Average:        0.261 MB
  Note:  These values currently only include a subset of arrays which are explicitly tracked.
  The "true" memory usage will be greater.
------------------------------------------------------------

------------------------------------------------------------
          Begin self-consistency iteration #   10

  Date     :  20190817, Time     :  153136.871
------------------------------------------------------------
  Evaluating new KS density.
  Integration grid: deviation in total charge (<rho> - N_e) =   3.552714E-15
  Pulay mixing of updated and previous charge densities.
  Renormalizing the density to the exact electron count on the 3D integration grid.
  | Formal number of electrons (from input files) :       6.0000000000
  | Integrated number of electrons on 3D grid     :       6.0000000000
  | Charge integration error                      :       0.0000000000
  | Normalization factor for density and gradient :       1.0000000000

  Evaluating partitioned Hartree potential by multipole expansion.
  | Original multipole sum: apparent total charge =   0.132617E-13
  | Sum of charges compensated after spline to logarithmic grids =  -0.952095E-04
  | Analytical far-field extrapolation by fixed multipoles:
  | Hartree multipole sum: apparent total charge =   0.132275E-13
  Summing up the Hartree potential.
  Time summed over all CPUs for potential: real work        0.078 s, elapsed        0.082 s
  | RMS charge density error from multipole expansion :   0.813029E-02

  Integrating Hamiltonian matrix: batch-based integration.
  Time summed over all CPUs for integration: real work        0.128 s, elapsed        0.133 s
  Evaluating the exchange matrix ... 

  Updating Kohn-Sham eigenvalues and eigenvectors using ELSI and the ELPA eigensolver.
  Starting ELPA eigensolver
  Finished transformation to standard eigenproblem
  | Time :     0.000 s
  Finished solving standard eigenproblem
  | Time :     0.001 s
  Finished back-transformation of eigenvectors
  | Time :     0.000 s

  Obtaining occupation numbers and chemical potential using ELSI.
  | Chemical potential (Fermi level):    -3.63894897 eV
  Highest occupied state (VBM) at    -11.95597804 eV
  | Occupation number:      2.00000000

  Lowest unoccupied state (CBM) at     0.67121141 eV
  | Occupation number:      0.00000000

  Overall HOMO-LUMO gap:     12.62718945 eV.

  Total energy components:
  | Sum of eigenvalues            :          -2.63833720 Ha         -71.79280793 eV
  | XC energy correction          :          -1.30906568 Ha         -35.62148956 eV
  | XC potential correction       :           2.19735156 Ha          59.79297830 eV
  | Free-atom electrostatic energy:          -0.87191800 Ha         -23.72609594 eV
  | Hartree energy correction     :          -0.87652370 Ha         -23.85142349 eV
  | Entropy correction            :           0.00000000 Ha           0.00000000 eV
  | ---------------------------
  | Total energy                  :          -3.49849302 Ha         -95.19883860 eV
  | Total energy, T -> 0          :          -3.49849302 Ha         -95.19883860 eV  <-- do not rely on this value for anything but (periodic) metals
  | Electronic free energy        :          -3.49849302 Ha         -95.19883860 eV

  Derived energy quantities:
  | Kinetic energy                :           6.12333504 Ha         166.62442432 eV
  | Electrostatic energy          :          -4.95939792 Ha        -134.95208357 eV
  | Energy correction for multipole
  | error in Hartree potential    :          -0.00422432 Ha          -0.11494948 eV
  | Sum of eigenvalues per atom                           :         -11.96546799 eV
  | Total energy (T->0) per atom                          :         -15.86647310 eV  <-- do not rely on this value for anything but (periodic) metals
  | Electronic free energy per atom                       :         -15.86647310 eV

  Self-consistency convergence accuracy:
  | Change of charge density      :  0.2043E-07
  | Change of sum of eigenvalues  :  0.1353E-05 eV
  | Change of total energy        : -0.1956E-06 eV

  Writing Kohn-Sham eigenvalues.

  State    Occupation    Eigenvalue [Ha]    Eigenvalue [eV]
      1       2.00000          -0.440204          -11.97857
      2       2.00000          -0.439590          -11.96185
      3       2.00000          -0.439374          -11.95598
      4       0.00000           0.024667            0.67121
      5       0.00000           0.024710            0.67239
      6       0.00000           0.026898            0.73192
      7       0.00000           0.046965            1.27799
      8       0.00000           0.055791            1.51815
      9       0.00000           0.075634            2.05810
     10       0.00000           0.165039            4.49094
     11       0.00000           0.168460            4.58402
     12       0.00000           0.172747            4.70067

  Highest occupied state (VBM) at    -11.95597804 eV
  | Occupation number:      2.00000000

  Lowest unoccupied state (CBM) at     0.67121141 eV
  | Occupation number:      0.00000000

  Overall HOMO-LUMO gap:     12.62718945 eV.

  Self-consistency cycle converged.

  End self-consistency iteration #    10       :  max(cpu_time)    wall_clock(cpu1)
  | Time for this iteration                    :        0.044 s           0.044 s
  | Charge density update                      :        0.007 s           0.008 s
  | Density mixing                             :        0.001 s           0.001 s
  | Hartree multipole update                   :        0.001 s           0.001 s
  | Hartree multipole summation                :        0.010 s           0.011 s
  | Integration                                :        0.017 s           0.016 s
  | Fock matrix evaluation                     :        0.004 s           0.004 s
  | Solution of K.-S. eqns.                    :        0.002 s           0.002 s
  | Total energy evaluation                    :        0.000 s           0.000 s

  Partial memory accounting:
  | Current value for overall tracked memory usage:
  |   Minimum:        0.056 MB (on task 5)
  |   Maximum:        0.076 MB (on task 0)
  |   Average:        0.064 MB
  | Peak value for overall tracked memory usage:
  |   Minimum:        0.400 MB (on task 5 after allocating gradient_basis_wave)
  |   Maximum:        0.450 MB (on task 1 after allocating gradient_basis_wave)
  |   Average:        0.413 MB
  | Largest tracked array allocation so far:
  |   Minimum:        0.258 MB (gradient_basis_wave on task 0)
  |   Maximum:        0.284 MB (gradient_basis_wave on task 1)
  |   Average:        0.261 MB
  Note:  These values currently only include a subset of arrays which are explicitly tracked.
  The "true" memory usage will be greater.
------------------------------------------------------------

  Energy and forces in a compact form:
  | Total energy uncorrected      :         -0.951988386041702E+02 eV
  | Total energy corrected        :         -0.951988386041702E+02 eV  <-- do not rely on this value for anything but (periodic) metals
  | Electronic free energy        :         -0.951988386041702E+02 eV

  ------------------------------------ 
  Start decomposition of the XC Energy 
  ------------------------------------ 
  X and C from original XC functional choice 
  Hartree-Fock Energy :          0.419170558 Ha             11.406211225 eV
  X Energy            :         -1.178555519 Ha            -32.070127385 eV
  C Energy            :         -0.130510161 Ha             -3.551362171 eV
  Total XC Energy     :         -1.309065680 Ha            -35.621489556 eV
  ------------------------------------ 
  LDA X and C from self-consistent density 
  X Energy LDA        :         -1.757352974 Ha            -47.820007466 eV
  C Energy LDA        :         -0.287564492 Ha             -7.825027962 eV
  ------------------------------------ 
  End decomposition of the XC Energy 
  ------------------------------------ 

------------------------------------------------------------
  |------------------------------------------------------
  | Final ELSI Output
  |------------------------------------------------------
  |
  | Physical Properties
  |   Number of electrons       :        0.60000000E+01
  |   Number of spins           :                     1
  |   Number of k-points        :                     1
  |   Number of states          :                    12
  |
  | Matrix Properties
  |   Matrix format             :           BLACS_DENSE
  |   Number of basis functions :                    90
  |   Matrix sparsity           :        0.52049383E+00
  |
  | Computational Details
  |   Parallel mode             :            MULTI_PROC
  |   Number of MPI tasks       :                     8
  |   Solver requested          :                  ELPA
  |   Number of ELSI calls      :                    11
  |
  |------------------------------------------------------
  | ELSI Project (c)  elsi-interchange.org
  |------------------------------------------------------

------------------------------------------------------------------------------
  Final output of selected total energy values:

  The following output summarizes some interesting total energy values
  at the end of a run (AFTER all relaxation, molecular dynamics, etc.).

  | Total energy of the DFT / Hartree-Fock s.c.f. calculation      :            -95.198838604 eV
  | Final zero-broadening corrected energy (caution - metals only) :            -95.198838604 eV
  | For reference only, the value of 1 Hartree used in FHI-aims is :             27.211384500 eV

  Before relying on these values, please be sure to understand exactly which
  total energy value is referred to by a given number. Different objects may
  all carry the same name 'total energy'. Definitions:

  Total energy of the DFT / Hartree-Fock s.c.f. calculation:
  | Note that this energy does not include ANY quantities calculated after the
  | s.c.f. cycle, in particular not ANY RPA, MP2, etc. many-body perturbation terms.

  Final zero-broadening corrected energy:
  | For metallic systems only, a broadening of the occupation numbers at the Fermi
  | level can be extrapolated back to zero broadening by an electron-gas inspired
  | formula. For all systems that are not real metals, this value can be
  | meaningless and should be avoided.

------------------------------------------------------------------------------
  Methods described in the following list of references were used in this FHI-aims run.
  If you publish the results, please make sure to cite these reference if they apply.
  FHI-aims is an academic code, and for our developers (often, Ph.D. students
  and postdocs), scientific credit in the community is essential.
  Thank you for helping us!

  For any use of FHI-aims, please cite:

    Volker Blum, Ralf Gehrke, Felix Hanke, Paula Havu, Ville Havu,
    Xinguo Ren, Karsten Reuter, and Matthias Scheffler
    'Ab initio molecular simulations with numeric atom-centered orbitals'
    Computer Physics Communications 180, 2175-2196 (2009)
    http://dx.doi.org/10.1016/j.cpc.2009.06.022


  For Hartree-Fock, hybrid functionals, or many-body perturbation theory used in your run, please cite:

    Xinguo Ren, Patrick Rinke, Volker Blum, Juergen Wieferink, Alex Tkatchenko,
    Andrea Sanfilippo, Karsten Reuter, and Matthias Scheffler,
    'Resolution-of-identity approach to Hartree-Fock, hybrid density functionals,
    RPA, MP2, and GW with numeric atom-centered orbital basis functions'
    New Journal of Physics 14, 053020 (2012).
    http://dx.doi.org/10.1088/1367-2630/14/5/053020


  The ELSI infrastructure was used in your run to solve the Kohn-Sham electronic structure.
  Please check out http://elsi-interchange.org to learn more.
  If scalability is important for your project, please acknowledge ELSI by citing:

    V. W-z. Yu, F. Corsetti, A. Garcia, W. P. Huhn, M. Jacquelin, W. Jia,
    B. Lange, L. Lin, J. Lu, W. Mi, A. Seifitokaldani, A. Vazquez-Mayagoitia,
    C. Yang, H. Yang, and V. Blum
    'ELSI: A unified software interface for Kohn-Sham electronic structure solvers'
    Computer Physics Communications 222, 267-285 (2018).
    http://dx.doi.org/10.1016/j.cpc.2017.09.007


  For the real-space grid partitioning and parallelization used in this calculation, please cite:

    Ville Havu, Volker Blum, Paula Havu, and Matthias Scheffler,
    'Efficient O(N) integration for all-electron electronic structure calculation'
    'using numerically tabulated basis functions'
    Journal of Computational Physics 228, 8367-8379 (2009).
    http://dx.doi.org/10.1016/j.jcp.2009.08.008

  Of course, there are many other important community references, e.g., those cited in the
  above references. Our list is limited to references that describe implementations in the
  FHI-aims code. The reason is purely practical (length of this list) - please credit others as well.

 * Warning - angular integration grids had to be adjusted for use with RI_method 'V'.
 * Background: You are using an electronic structure method that requires RI_method 'V'
 * for the resolution of identity of the Coulomb operator. (See Ren et al.,
 * New J. Phys 2012 for details.) This method requires three-center integrations
 * to be carried out on FHI-aims' normal angular and radial integration grids.
 * (See FHI-aims CPC Blum et al. 2009, p. 2183 for grid details and references.)
 * One of the angular grids specified in your control.in file was not large
 * enough for the maximal angular momenta of orbital and product basis functions
 * for its species.
 * This can lead to atomic total energy errors which cancel in energy differences.
 * Effective Sep 22, 2014, we have changed the default behavior of the code to
 * simply 'upgrade' the angular grids internally to a safe setting in this case.
 * Please be sure to NOT mix total energies from before and after the change.

------------------------------------------------------------
          Leaving FHI-aims.
          Date     :  20190817, Time     :  153136.925

          Computational steps:
          | Number of self-consistency cycles          :           10
          | Number of SCF (re)initializations          :            1

          Detailed time accounting                     :  max(cpu_time)    wall_clock(cpu1)
          | Total time                                 :        1.787 s           1.927 s
          | Preparation time                           :        0.113 s           0.148 s
          | Boundary condition initalization           :        0.000 s           0.000 s
          | Grid partitioning                          :        0.009 s           0.009 s
          | Preloading free-atom quantities on grid    :        0.001 s           0.001 s
          | Free-atom superposition energy             :        0.004 s           0.003 s
          | Total time for integrations                :        0.184 s           0.184 s
          | Product basis setup: Total time            :        1.120 s           1.189 s
          | Product basis: | 3-center integrations     :(       0.425 s)  (       0.426 s)
          | Product basis: | 2-center integrations     :(       0.523 s)  (       0.523 s)
          | Product basis: | 2-center linear algebra   :(       0.016 s)  (       0.017 s)
          | Product basis: | 3-center x 2-center       :(       0.011 s)  (       0.011 s)
          | Total time evaluating exchange matrix      :        0.040 s           0.041 s
          | Total time for solution of K.-S. equations :        0.028 s           0.083 s
          | Total time for density update              :        0.076 s           0.076 s
          | Total time for mixing                      :        0.009 s           0.008 s
          | Total time for Hartree multipole update    :        0.010 s           0.010 s
          | Total time for Hartree multipole sum       :        0.102 s           0.104 s
          | Total time for total energy evaluation     :        0.001 s           0.001 s

          Partial memory accounting:
          | Residual value for overall tracked memory usage across tasks:     0.000000 MB (should be 0.000000 MB)
          | Peak values for overall tracked memory usage:
          |   Minimum:        0.400 MB (on task 5 after allocating gradient_basis_wave)
          |   Maximum:        0.450 MB (on task 1 after allocating gradient_basis_wave)
          |   Average:        0.413 MB
          | Largest tracked array allocation:
          |   Minimum:        0.258 MB (gradient_basis_wave on task 0)
          |   Maximum:        0.284 MB (gradient_basis_wave on task 1)
          |   Average:        0.261 MB
          Note:  These values currently only include a subset of arrays which are explicitly tracked.
          The "true" memory usage will be greater.

          Have a nice day.
------------------------------------------------------------
