  MPI-parallelism will be employed.
------------------------------------------------------------
          Invoking FHI-aims ...
          Version 161201
          Compiled on 2016/12/02 at 03:16:31 on host hydra01.

          When using FHI-aims, please cite the following reference:

          Volker Blum, Ralf Gehrke, Felix Hanke, Paula Havu,
          Ville Havu, Xinguo Ren, Karsten Reuter, and Matthias Scheffler,
          'Ab Initio Molecular Simulations with Numeric Atom-Centered Orbitals',
          Computer Physics Communications 180, 2175-2196 (2009)

          For any questions about FHI-aims, please visit the aimsclub website
          with its forums and wiki. Contributions to both the forums and the
          wiki are warmly encouraged - they are for you, and everyone is welcome there.

------------------------------------------------------------



  Date     :  20161204, Time     :  153305.115
  Time zero on CPU 1             :   0.117207300000000E+01  s.
  Internal wall clock time zero  :           250097585.115  s.

  FHI-aims created a unique identifier for this run for later identification
  aims_uuid : 0C7710F0-C4E3-46CE-AEAF-35B359C03B7D

  Using      240 parallel tasks.
  Task        0 on host hy0314 reporting.
  Task        1 on host hy0314 reporting.
  Task        2 on host hy0314 reporting.
  Task        3 on host hy0314 reporting.
  Task        4 on host hy0314 reporting.
  Task        5 on host hy0314 reporting.
  Task        6 on host hy0314 reporting.
  Task        7 on host hy0314 reporting.
  Task        8 on host hy0314 reporting.
  Task        9 on host hy0314 reporting.
  Task       10 on host hy0314 reporting.
  Task       11 on host hy0314 reporting.
  Task       12 on host hy0314 reporting.
  Task       13 on host hy0314 reporting.
  Task       14 on host hy0314 reporting.
  Task       15 on host hy0314 reporting.
  Task       16 on host hy0038 reporting.
  Task       17 on host hy0038 reporting.
  Task       18 on host hy0038 reporting.
  Task       19 on host hy0038 reporting.
  Task       20 on host hy0038 reporting.
  Task       21 on host hy0038 reporting.
  Task       22 on host hy0038 reporting.
  Task       23 on host hy0038 reporting.
  Task       24 on host hy0038 reporting.
  Task       25 on host hy0038 reporting.
  Task       26 on host hy0038 reporting.
  Task       27 on host hy0038 reporting.
  Task       28 on host hy0038 reporting.
  Task       29 on host hy0038 reporting.
  Task       30 on host hy0038 reporting.
  Task       31 on host hy0038 reporting.
  Task       32 on host hy0077 reporting.
  Task       33 on host hy0077 reporting.
  Task       34 on host hy0077 reporting.
  Task       35 on host hy0077 reporting.
  Task       36 on host hy0077 reporting.
  Task       37 on host hy0077 reporting.
  Task       38 on host hy0077 reporting.
  Task       39 on host hy0077 reporting.
  Task       40 on host hy0077 reporting.
  Task       41 on host hy0077 reporting.
  Task       42 on host hy0077 reporting.
  Task       43 on host hy0077 reporting.
  Task       44 on host hy0077 reporting.
  Task       45 on host hy0077 reporting.
  Task       46 on host hy0077 reporting.
  Task       47 on host hy0077 reporting.
  Task       48 on host hy0429 reporting.
  Task       49 on host hy0429 reporting.
  Task       50 on host hy0429 reporting.
  Task       51 on host hy0429 reporting.
  Task       52 on host hy0429 reporting.
  Task       53 on host hy0429 reporting.
  Task       54 on host hy0429 reporting.
  Task       55 on host hy0429 reporting.
  Task       56 on host hy0429 reporting.
  Task       57 on host hy0429 reporting.
  Task       58 on host hy0429 reporting.
  Task       59 on host hy0429 reporting.
  Task       60 on host hy0429 reporting.
  Task       61 on host hy0429 reporting.
  Task       62 on host hy0429 reporting.
  Task       63 on host hy0429 reporting.
  Task       64 on host hy0469 reporting.
  Task       65 on host hy0469 reporting.
  Task       66 on host hy0469 reporting.
  Task       67 on host hy0469 reporting.
  Task       68 on host hy0469 reporting.
  Task       69 on host hy0469 reporting.
  Task       70 on host hy0469 reporting.
  Task       71 on host hy0469 reporting.
  Task       72 on host hy0469 reporting.
  Task       73 on host hy0469 reporting.
  Task       74 on host hy0469 reporting.
  Task       75 on host hy0469 reporting.
  Task       76 on host hy0469 reporting.
  Task       77 on host hy0469 reporting.
  Task       78 on host hy0469 reporting.
  Task       79 on host hy0469 reporting.
  Task       80 on host hy0331 reporting.
  Task       81 on host hy0331 reporting.
  Task       82 on host hy0331 reporting.
  Task       83 on host hy0331 reporting.
  Task       84 on host hy0331 reporting.
  Task       85 on host hy0331 reporting.
  Task       86 on host hy0331 reporting.
  Task       87 on host hy0331 reporting.
  Task       88 on host hy0331 reporting.
  Task       89 on host hy0331 reporting.
  Task       90 on host hy0331 reporting.
  Task       91 on host hy0331 reporting.
  Task       92 on host hy0331 reporting.
  Task       93 on host hy0331 reporting.
  Task       94 on host hy0331 reporting.
  Task       95 on host hy0331 reporting.
  Task       96 on host hy0334 reporting.
  Task       97 on host hy0334 reporting.
  Task       98 on host hy0334 reporting.
  Task       99 on host hy0334 reporting.
  Task      100 on host hy0334 reporting.
  Task      101 on host hy0334 reporting.
  Task      102 on host hy0334 reporting.
  Task      103 on host hy0334 reporting.
  Task      104 on host hy0334 reporting.
  Task      105 on host hy0334 reporting.
  Task      106 on host hy0334 reporting.
  Task      107 on host hy0334 reporting.
  Task      108 on host hy0334 reporting.
  Task      109 on host hy0334 reporting.
  Task      110 on host hy0334 reporting.
  Task      111 on host hy0334 reporting.
  Task      112 on host hy0163 reporting.
  Task      113 on host hy0163 reporting.
  Task      114 on host hy0163 reporting.
  Task      115 on host hy0163 reporting.
  Task      116 on host hy0163 reporting.
  Task      117 on host hy0163 reporting.
  Task      118 on host hy0163 reporting.
  Task      119 on host hy0163 reporting.
  Task      120 on host hy0163 reporting.
  Task      121 on host hy0163 reporting.
  Task      122 on host hy0163 reporting.
  Task      123 on host hy0163 reporting.
  Task      124 on host hy0163 reporting.
  Task      125 on host hy0163 reporting.
  Task      126 on host hy0163 reporting.
  Task      127 on host hy0163 reporting.
  Task      128 on host hy0582 reporting.
  Task      129 on host hy0582 reporting.
  Task      130 on host hy0582 reporting.
  Task      131 on host hy0582 reporting.
  Task      132 on host hy0582 reporting.
  Task      133 on host hy0582 reporting.
  Task      134 on host hy0582 reporting.
  Task      135 on host hy0582 reporting.
  Task      136 on host hy0582 reporting.
  Task      137 on host hy0582 reporting.
  Task      138 on host hy0582 reporting.
  Task      139 on host hy0582 reporting.
  Task      140 on host hy0582 reporting.
  Task      141 on host hy0582 reporting.
  Task      142 on host hy0582 reporting.
  Task      143 on host hy0582 reporting.
  Task      144 on host hy0165 reporting.
  Task      145 on host hy0165 reporting.
  Task      146 on host hy0165 reporting.
  Task      147 on host hy0165 reporting.
  Task      148 on host hy0165 reporting.
  Task      149 on host hy0165 reporting.
  Task      150 on host hy0165 reporting.
  Task      151 on host hy0165 reporting.
  Task      152 on host hy0165 reporting.
  Task      153 on host hy0165 reporting.
  Task      154 on host hy0165 reporting.
  Task      155 on host hy0165 reporting.
  Task      156 on host hy0165 reporting.
  Task      157 on host hy0165 reporting.
  Task      158 on host hy0165 reporting.
  Task      159 on host hy0165 reporting.
  Task      160 on host hy0378 reporting.
  Task      161 on host hy0378 reporting.
  Task      162 on host hy0378 reporting.
  Task      163 on host hy0378 reporting.
  Task      164 on host hy0378 reporting.
  Task      165 on host hy0378 reporting.
  Task      166 on host hy0378 reporting.
  Task      167 on host hy0378 reporting.
  Task      168 on host hy0378 reporting.
  Task      169 on host hy0378 reporting.
  Task      170 on host hy0378 reporting.
  Task      171 on host hy0378 reporting.
  Task      172 on host hy0378 reporting.
  Task      173 on host hy0378 reporting.
  Task      174 on host hy0378 reporting.
  Task      175 on host hy0378 reporting.
  Task      176 on host hy0448 reporting.
  Task      177 on host hy0448 reporting.
  Task      178 on host hy0448 reporting.
  Task      179 on host hy0448 reporting.
  Task      180 on host hy0448 reporting.
  Task      181 on host hy0448 reporting.
  Task      182 on host hy0448 reporting.
  Task      183 on host hy0448 reporting.
  Task      184 on host hy0448 reporting.
  Task      185 on host hy0448 reporting.
  Task      186 on host hy0448 reporting.
  Task      187 on host hy0448 reporting.
  Task      188 on host hy0448 reporting.
  Task      189 on host hy0448 reporting.
  Task      190 on host hy0448 reporting.
  Task      191 on host hy0448 reporting.
  Task      192 on host hy0068 reporting.
  Task      193 on host hy0068 reporting.
  Task      194 on host hy0068 reporting.
  Task      195 on host hy0068 reporting.
  Task      196 on host hy0068 reporting.
  Task      197 on host hy0068 reporting.
  Task      198 on host hy0068 reporting.
  Task      199 on host hy0068 reporting.
  Task      200 on host hy0068 reporting.
  Task      201 on host hy0068 reporting.
  Task      202 on host hy0068 reporting.
  Task      203 on host hy0068 reporting.
  Task      204 on host hy0068 reporting.
  Task      205 on host hy0068 reporting.
  Task      206 on host hy0068 reporting.
  Task      207 on host hy0068 reporting.
  Task      208 on host hy0137 reporting.
  Task      209 on host hy0137 reporting.
  Task      210 on host hy0137 reporting.
  Task      211 on host hy0137 reporting.
  Task      212 on host hy0137 reporting.
  Task      213 on host hy0137 reporting.
  Task      214 on host hy0137 reporting.
  Task      215 on host hy0137 reporting.
  Task      216 on host hy0137 reporting.
  Task      217 on host hy0137 reporting.
  Task      218 on host hy0137 reporting.
  Task      219 on host hy0137 reporting.
  Task      220 on host hy0137 reporting.
  Task      221 on host hy0137 reporting.
  Task      222 on host hy0137 reporting.
  Task      223 on host hy0137 reporting.
  Task      224 on host hy0208 reporting.
  Task      225 on host hy0208 reporting.
  Task      226 on host hy0208 reporting.
  Task      227 on host hy0208 reporting.
  Task      228 on host hy0208 reporting.
  Task      229 on host hy0208 reporting.
  Task      230 on host hy0208 reporting.
  Task      231 on host hy0208 reporting.
  Task      232 on host hy0208 reporting.
  Task      233 on host hy0208 reporting.
  Task      234 on host hy0208 reporting.
  Task      235 on host hy0208 reporting.
  Task      236 on host hy0208 reporting.
  Task      237 on host hy0208 reporting.
  Task      238 on host hy0208 reporting.
  Task      239 on host hy0208 reporting.

  Performing system and environment tests:
  | Environment variable OMP_NUM_THREADS correctly set to 1.
  | Maximum stacksize for task 0: unlimited
  | Maximum stacksize for task 1: unlimited
  | Maximum stacksize for task 2: unlimited
  | Maximum stacksize for task 3: unlimited
  | Maximum stacksize for task 4: unlimited
  | Maximum stacksize for task 5: unlimited
  | Maximum stacksize for task 6: unlimited
  | Maximum stacksize for task 7: unlimited
  | Maximum stacksize for task 8: unlimited
  | Maximum stacksize for task 9: unlimited
  | Maximum stacksize for task 10: unlimited
  | Maximum stacksize for task 11: unlimited
  | Maximum stacksize for task 12: unlimited
  | Maximum stacksize for task 13: unlimited
  | Maximum stacksize for task 14: unlimited
  | Maximum stacksize for task 15: unlimited
  | Maximum stacksize for task 16: unlimited
  | Maximum stacksize for task 17: unlimited
  | Maximum stacksize for task 18: unlimited
  | Maximum stacksize for task 19: unlimited
  | Maximum stacksize for task 20: unlimited
  | Maximum stacksize for task 21: unlimited
  | Maximum stacksize for task 22: unlimited
  | Maximum stacksize for task 23: unlimited
  | Maximum stacksize for task 24: unlimited
  | Maximum stacksize for task 25: unlimited
  | Maximum stacksize for task 26: unlimited
  | Maximum stacksize for task 27: unlimited
  | Maximum stacksize for task 28: unlimited
  | Maximum stacksize for task 29: unlimited
  | Maximum stacksize for task 30: unlimited
  | Maximum stacksize for task 31: unlimited
  | Maximum stacksize for task 32: unlimited
  | Maximum stacksize for task 33: unlimited
  | Maximum stacksize for task 34: unlimited
  | Maximum stacksize for task 35: unlimited
  | Maximum stacksize for task 36: unlimited
  | Maximum stacksize for task 37: unlimited
  | Maximum stacksize for task 38: unlimited
  | Maximum stacksize for task 39: unlimited
  | Maximum stacksize for task 40: unlimited
  | Maximum stacksize for task 41: unlimited
  | Maximum stacksize for task 42: unlimited
  | Maximum stacksize for task 43: unlimited
  | Maximum stacksize for task 44: unlimited
  | Maximum stacksize for task 45: unlimited
  | Maximum stacksize for task 46: unlimited
  | Maximum stacksize for task 47: unlimited
  | Maximum stacksize for task 48: unlimited
  | Maximum stacksize for task 49: unlimited
  | Maximum stacksize for task 50: unlimited
  | Maximum stacksize for task 51: unlimited
  | Maximum stacksize for task 52: unlimited
  | Maximum stacksize for task 53: unlimited
  | Maximum stacksize for task 54: unlimited
  | Maximum stacksize for task 55: unlimited
  | Maximum stacksize for task 56: unlimited
  | Maximum stacksize for task 57: unlimited
  | Maximum stacksize for task 58: unlimited
  | Maximum stacksize for task 59: unlimited
  | Maximum stacksize for task 60: unlimited
  | Maximum stacksize for task 61: unlimited
  | Maximum stacksize for task 62: unlimited
  | Maximum stacksize for task 63: unlimited
  | Maximum stacksize for task 64: unlimited
  | Maximum stacksize for task 65: unlimited
  | Maximum stacksize for task 66: unlimited
  | Maximum stacksize for task 67: unlimited
  | Maximum stacksize for task 68: unlimited
  | Maximum stacksize for task 69: unlimited
  | Maximum stacksize for task 70: unlimited
  | Maximum stacksize for task 71: unlimited
  | Maximum stacksize for task 72: unlimited
  | Maximum stacksize for task 73: unlimited
  | Maximum stacksize for task 74: unlimited
  | Maximum stacksize for task 75: unlimited
  | Maximum stacksize for task 76: unlimited
  | Maximum stacksize for task 77: unlimited
  | Maximum stacksize for task 78: unlimited
  | Maximum stacksize for task 79: unlimited
  | Maximum stacksize for task 80: unlimited
  | Maximum stacksize for task 81: unlimited
  | Maximum stacksize for task 82: unlimited
  | Maximum stacksize for task 83: unlimited
  | Maximum stacksize for task 84: unlimited
  | Maximum stacksize for task 85: unlimited
  | Maximum stacksize for task 86: unlimited
  | Maximum stacksize for task 87: unlimited
  | Maximum stacksize for task 88: unlimited
  | Maximum stacksize for task 89: unlimited
  | Maximum stacksize for task 90: unlimited
  | Maximum stacksize for task 91: unlimited
  | Maximum stacksize for task 92: unlimited
  | Maximum stacksize for task 93: unlimited
  | Maximum stacksize for task 94: unlimited
  | Maximum stacksize for task 95: unlimited
  | Maximum stacksize for task 96: unlimited
  | Maximum stacksize for task 97: unlimited
  | Maximum stacksize for task 98: unlimited
  | Maximum stacksize for task 99: unlimited
  | Maximum stacksize for task 100: unlimited
  | Maximum stacksize for task 101: unlimited
  | Maximum stacksize for task 102: unlimited
  | Maximum stacksize for task 103: unlimited
  | Maximum stacksize for task 104: unlimited
  | Maximum stacksize for task 105: unlimited
  | Maximum stacksize for task 106: unlimited
  | Maximum stacksize for task 107: unlimited
  | Maximum stacksize for task 108: unlimited
  | Maximum stacksize for task 109: unlimited
  | Maximum stacksize for task 110: unlimited
  | Maximum stacksize for task 111: unlimited
  | Maximum stacksize for task 112: unlimited
  | Maximum stacksize for task 113: unlimited
  | Maximum stacksize for task 114: unlimited
  | Maximum stacksize for task 115: unlimited
  | Maximum stacksize for task 116: unlimited
  | Maximum stacksize for task 117: unlimited
  | Maximum stacksize for task 118: unlimited
  | Maximum stacksize for task 119: unlimited
  | Maximum stacksize for task 120: unlimited
  | Maximum stacksize for task 121: unlimited
  | Maximum stacksize for task 122: unlimited
  | Maximum stacksize for task 123: unlimited
  | Maximum stacksize for task 124: unlimited
  | Maximum stacksize for task 125: unlimited
  | Maximum stacksize for task 126: unlimited
  | Maximum stacksize for task 127: unlimited
  | Maximum stacksize for task 128: unlimited
  | Maximum stacksize for task 129: unlimited
  | Maximum stacksize for task 130: unlimited
  | Maximum stacksize for task 131: unlimited
  | Maximum stacksize for task 132: unlimited
  | Maximum stacksize for task 133: unlimited
  | Maximum stacksize for task 134: unlimited
  | Maximum stacksize for task 135: unlimited
  | Maximum stacksize for task 136: unlimited
  | Maximum stacksize for task 137: unlimited
  | Maximum stacksize for task 138: unlimited
  | Maximum stacksize for task 139: unlimited
  | Maximum stacksize for task 140: unlimited
  | Maximum stacksize for task 141: unlimited
  | Maximum stacksize for task 142: unlimited
  | Maximum stacksize for task 143: unlimited
  | Maximum stacksize for task 144: unlimited
  | Maximum stacksize for task 145: unlimited
  | Maximum stacksize for task 146: unlimited
  | Maximum stacksize for task 147: unlimited
  | Maximum stacksize for task 148: unlimited
  | Maximum stacksize for task 149: unlimited
  | Maximum stacksize for task 150: unlimited
  | Maximum stacksize for task 151: unlimited
  | Maximum stacksize for task 152: unlimited
  | Maximum stacksize for task 153: unlimited
  | Maximum stacksize for task 154: unlimited
  | Maximum stacksize for task 155: unlimited
  | Maximum stacksize for task 156: unlimited
  | Maximum stacksize for task 157: unlimited
  | Maximum stacksize for task 158: unlimited
  | Maximum stacksize for task 159: unlimited
  | Maximum stacksize for task 160: unlimited
  | Maximum stacksize for task 161: unlimited
  | Maximum stacksize for task 162: unlimited
  | Maximum stacksize for task 163: unlimited
  | Maximum stacksize for task 164: unlimited
  | Maximum stacksize for task 165: unlimited
  | Maximum stacksize for task 166: unlimited
  | Maximum stacksize for task 167: unlimited
  | Maximum stacksize for task 168: unlimited
  | Maximum stacksize for task 169: unlimited
  | Maximum stacksize for task 170: unlimited
  | Maximum stacksize for task 171: unlimited
  | Maximum stacksize for task 172: unlimited
  | Maximum stacksize for task 173: unlimited
  | Maximum stacksize for task 174: unlimited
  | Maximum stacksize for task 175: unlimited
  | Maximum stacksize for task 176: unlimited
  | Maximum stacksize for task 177: unlimited
  | Maximum stacksize for task 178: unlimited
  | Maximum stacksize for task 179: unlimited
  | Maximum stacksize for task 180: unlimited
  | Maximum stacksize for task 181: unlimited
  | Maximum stacksize for task 182: unlimited
  | Maximum stacksize for task 183: unlimited
  | Maximum stacksize for task 184: unlimited
  | Maximum stacksize for task 185: unlimited
  | Maximum stacksize for task 186: unlimited
  | Maximum stacksize for task 187: unlimited
  | Maximum stacksize for task 188: unlimited
  | Maximum stacksize for task 189: unlimited
  | Maximum stacksize for task 190: unlimited
  | Maximum stacksize for task 191: unlimited
  | Maximum stacksize for task 192: unlimited
  | Maximum stacksize for task 193: unlimited
  | Maximum stacksize for task 194: unlimited
  | Maximum stacksize for task 195: unlimited
  | Maximum stacksize for task 196: unlimited
  | Maximum stacksize for task 197: unlimited
  | Maximum stacksize for task 198: unlimited
  | Maximum stacksize for task 199: unlimited
  | Maximum stacksize for task 200: unlimited
  | Maximum stacksize for task 201: unlimited
  | Maximum stacksize for task 202: unlimited
  | Maximum stacksize for task 203: unlimited
  | Maximum stacksize for task 204: unlimited
  | Maximum stacksize for task 205: unlimited
  | Maximum stacksize for task 206: unlimited
  | Maximum stacksize for task 207: unlimited
  | Maximum stacksize for task 208: unlimited
  | Maximum stacksize for task 209: unlimited
  | Maximum stacksize for task 210: unlimited
  | Maximum stacksize for task 211: unlimited
  | Maximum stacksize for task 212: unlimited
  | Maximum stacksize for task 213: unlimited
  | Maximum stacksize for task 214: unlimited
  | Maximum stacksize for task 215: unlimited
  | Maximum stacksize for task 216: unlimited
  | Maximum stacksize for task 217: unlimited
  | Maximum stacksize for task 218: unlimited
  | Maximum stacksize for task 219: unlimited
  | Maximum stacksize for task 220: unlimited
  | Maximum stacksize for task 221: unlimited
  | Maximum stacksize for task 222: unlimited
  | Maximum stacksize for task 223: unlimited
  | Maximum stacksize for task 224: unlimited
  | Maximum stacksize for task 225: unlimited
  | Maximum stacksize for task 226: unlimited
  | Maximum stacksize for task 227: unlimited
  | Maximum stacksize for task 228: unlimited
  | Maximum stacksize for task 229: unlimited
  | Maximum stacksize for task 230: unlimited
  | Maximum stacksize for task 231: unlimited
  | Maximum stacksize for task 232: unlimited
  | Maximum stacksize for task 233: unlimited
  | Maximum stacksize for task 234: unlimited
  | Maximum stacksize for task 235: unlimited
  | Maximum stacksize for task 236: unlimited
  | Maximum stacksize for task 237: unlimited
  | Maximum stacksize for task 238: unlimited
  | Maximum stacksize for task 239: unlimited
  | Current stacksize for task 0: unlimited
  | Current stacksize for task 1: unlimited
  | Current stacksize for task 2: unlimited
  | Current stacksize for task 3: unlimited
  | Current stacksize for task 4: unlimited
  | Current stacksize for task 5: unlimited
  | Current stacksize for task 6: unlimited
  | Current stacksize for task 7: unlimited
  | Current stacksize for task 8: unlimited
  | Current stacksize for task 9: unlimited
  | Current stacksize for task 10: unlimited
  | Current stacksize for task 11: unlimited
  | Current stacksize for task 12: unlimited
  | Current stacksize for task 13: unlimited
  | Current stacksize for task 14: unlimited
  | Current stacksize for task 15: unlimited
  | Current stacksize for task 16: unlimited
  | Current stacksize for task 17: unlimited
  | Current stacksize for task 18: unlimited
  | Current stacksize for task 19: unlimited
  | Current stacksize for task 20: unlimited
  | Current stacksize for task 21: unlimited
  | Current stacksize for task 22: unlimited
  | Current stacksize for task 23: unlimited
  | Current stacksize for task 24: unlimited
  | Current stacksize for task 25: unlimited
  | Current stacksize for task 26: unlimited
  | Current stacksize for task 27: unlimited
  | Current stacksize for task 28: unlimited
  | Current stacksize for task 29: unlimited
  | Current stacksize for task 30: unlimited
  | Current stacksize for task 31: unlimited
  | Current stacksize for task 32: unlimited
  | Current stacksize for task 33: unlimited
  | Current stacksize for task 34: unlimited
  | Current stacksize for task 35: unlimited
  | Current stacksize for task 36: unlimited
  | Current stacksize for task 37: unlimited
  | Current stacksize for task 38: unlimited
  | Current stacksize for task 39: unlimited
  | Current stacksize for task 40: unlimited
  | Current stacksize for task 41: unlimited
  | Current stacksize for task 42: unlimited
  | Current stacksize for task 43: unlimited
  | Current stacksize for task 44: unlimited
  | Current stacksize for task 45: unlimited
  | Current stacksize for task 46: unlimited
  | Current stacksize for task 47: unlimited
  | Current stacksize for task 48: unlimited
  | Current stacksize for task 49: unlimited
  | Current stacksize for task 50: unlimited
  | Current stacksize for task 51: unlimited
  | Current stacksize for task 52: unlimited
  | Current stacksize for task 53: unlimited
  | Current stacksize for task 54: unlimited
  | Current stacksize for task 55: unlimited
  | Current stacksize for task 56: unlimited
  | Current stacksize for task 57: unlimited
  | Current stacksize for task 58: unlimited
  | Current stacksize for task 59: unlimited
  | Current stacksize for task 60: unlimited
  | Current stacksize for task 61: unlimited
  | Current stacksize for task 62: unlimited
  | Current stacksize for task 63: unlimited
  | Current stacksize for task 64: unlimited
  | Current stacksize for task 65: unlimited
  | Current stacksize for task 66: unlimited
  | Current stacksize for task 67: unlimited
  | Current stacksize for task 68: unlimited
  | Current stacksize for task 69: unlimited
  | Current stacksize for task 70: unlimited
  | Current stacksize for task 71: unlimited
  | Current stacksize for task 72: unlimited
  | Current stacksize for task 73: unlimited
  | Current stacksize for task 74: unlimited
  | Current stacksize for task 75: unlimited
  | Current stacksize for task 76: unlimited
  | Current stacksize for task 77: unlimited
  | Current stacksize for task 78: unlimited
  | Current stacksize for task 79: unlimited
  | Current stacksize for task 80: unlimited
  | Current stacksize for task 81: unlimited
  | Current stacksize for task 82: unlimited
  | Current stacksize for task 83: unlimited
  | Current stacksize for task 84: unlimited
  | Current stacksize for task 85: unlimited
  | Current stacksize for task 86: unlimited
  | Current stacksize for task 87: unlimited
  | Current stacksize for task 88: unlimited
  | Current stacksize for task 89: unlimited
  | Current stacksize for task 90: unlimited
  | Current stacksize for task 91: unlimited
  | Current stacksize for task 92: unlimited
  | Current stacksize for task 93: unlimited
  | Current stacksize for task 94: unlimited
  | Current stacksize for task 95: unlimited
  | Current stacksize for task 96: unlimited
  | Current stacksize for task 97: unlimited
  | Current stacksize for task 98: unlimited
  | Current stacksize for task 99: unlimited
  | Current stacksize for task 100: unlimited
  | Current stacksize for task 101: unlimited
  | Current stacksize for task 102: unlimited
  | Current stacksize for task 103: unlimited
  | Current stacksize for task 104: unlimited
  | Current stacksize for task 105: unlimited
  | Current stacksize for task 106: unlimited
  | Current stacksize for task 107: unlimited
  | Current stacksize for task 108: unlimited
  | Current stacksize for task 109: unlimited
  | Current stacksize for task 110: unlimited
  | Current stacksize for task 111: unlimited
  | Current stacksize for task 112: unlimited
  | Current stacksize for task 113: unlimited
  | Current stacksize for task 114: unlimited
  | Current stacksize for task 115: unlimited
  | Current stacksize for task 116: unlimited
  | Current stacksize for task 117: unlimited
  | Current stacksize for task 118: unlimited
  | Current stacksize for task 119: unlimited
  | Current stacksize for task 120: unlimited
  | Current stacksize for task 121: unlimited
  | Current stacksize for task 122: unlimited
  | Current stacksize for task 123: unlimited
  | Current stacksize for task 124: unlimited
  | Current stacksize for task 125: unlimited
  | Current stacksize for task 126: unlimited
  | Current stacksize for task 127: unlimited
  | Current stacksize for task 128: unlimited
  | Current stacksize for task 129: unlimited
  | Current stacksize for task 130: unlimited
  | Current stacksize for task 131: unlimited
  | Current stacksize for task 132: unlimited
  | Current stacksize for task 133: unlimited
  | Current stacksize for task 134: unlimited
  | Current stacksize for task 135: unlimited
  | Current stacksize for task 136: unlimited
  | Current stacksize for task 137: unlimited
  | Current stacksize for task 138: unlimited
  | Current stacksize for task 139: unlimited
  | Current stacksize for task 140: unlimited
  | Current stacksize for task 141: unlimited
  | Current stacksize for task 142: unlimited
  | Current stacksize for task 143: unlimited
  | Current stacksize for task 144: unlimited
  | Current stacksize for task 145: unlimited
  | Current stacksize for task 146: unlimited
  | Current stacksize for task 147: unlimited
  | Current stacksize for task 148: unlimited
  | Current stacksize for task 149: unlimited
  | Current stacksize for task 150: unlimited
  | Current stacksize for task 151: unlimited
  | Current stacksize for task 152: unlimited
  | Current stacksize for task 153: unlimited
  | Current stacksize for task 154: unlimited
  | Current stacksize for task 155: unlimited
  | Current stacksize for task 156: unlimited
  | Current stacksize for task 157: unlimited
  | Current stacksize for task 158: unlimited
  | Current stacksize for task 159: unlimited
  | Current stacksize for task 160: unlimited
  | Current stacksize for task 161: unlimited
  | Current stacksize for task 162: unlimited
  | Current stacksize for task 163: unlimited
  | Current stacksize for task 164: unlimited
  | Current stacksize for task 165: unlimited
  | Current stacksize for task 166: unlimited
  | Current stacksize for task 167: unlimited
  | Current stacksize for task 168: unlimited
  | Current stacksize for task 169: unlimited
  | Current stacksize for task 170: unlimited
  | Current stacksize for task 171: unlimited
  | Current stacksize for task 172: unlimited
  | Current stacksize for task 173: unlimited
  | Current stacksize for task 174: unlimited
  | Current stacksize for task 175: unlimited
  | Current stacksize for task 176: unlimited
  | Current stacksize for task 177: unlimited
  | Current stacksize for task 178: unlimited
  | Current stacksize for task 179: unlimited
  | Current stacksize for task 180: unlimited
  | Current stacksize for task 181: unlimited
  | Current stacksize for task 182: unlimited
  | Current stacksize for task 183: unlimited
  | Current stacksize for task 184: unlimited
  | Current stacksize for task 185: unlimited
  | Current stacksize for task 186: unlimited
  | Current stacksize for task 187: unlimited
  | Current stacksize for task 188: unlimited
  | Current stacksize for task 189: unlimited
  | Current stacksize for task 190: unlimited
  | Current stacksize for task 191: unlimited
  | Current stacksize for task 192: unlimited
  | Current stacksize for task 193: unlimited
  | Current stacksize for task 194: unlimited
  | Current stacksize for task 195: unlimited
  | Current stacksize for task 196: unlimited
  | Current stacksize for task 197: unlimited
  | Current stacksize for task 198: unlimited
  | Current stacksize for task 199: unlimited
  | Current stacksize for task 200: unlimited
  | Current stacksize for task 201: unlimited
  | Current stacksize for task 202: unlimited
  | Current stacksize for task 203: unlimited
  | Current stacksize for task 204: unlimited
  | Current stacksize for task 205: unlimited
  | Current stacksize for task 206: unlimited
  | Current stacksize for task 207: unlimited
  | Current stacksize for task 208: unlimited
  | Current stacksize for task 209: unlimited
  | Current stacksize for task 210: unlimited
  | Current stacksize for task 211: unlimited
  | Current stacksize for task 212: unlimited
  | Current stacksize for task 213: unlimited
  | Current stacksize for task 214: unlimited
  | Current stacksize for task 215: unlimited
  | Current stacksize for task 216: unlimited
  | Current stacksize for task 217: unlimited
  | Current stacksize for task 218: unlimited
  | Current stacksize for task 219: unlimited
  | Current stacksize for task 220: unlimited
  | Current stacksize for task 221: unlimited
  | Current stacksize for task 222: unlimited
  | Current stacksize for task 223: unlimited
  | Current stacksize for task 224: unlimited
  | Current stacksize for task 225: unlimited
  | Current stacksize for task 226: unlimited
  | Current stacksize for task 227: unlimited
  | Current stacksize for task 228: unlimited
  | Current stacksize for task 229: unlimited
  | Current stacksize for task 230: unlimited
  | Current stacksize for task 231: unlimited
  | Current stacksize for task 232: unlimited
  | Current stacksize for task 233: unlimited
  | Current stacksize for task 234: unlimited
  | Current stacksize for task 235: unlimited
  | Current stacksize for task 236: unlimited
  | Current stacksize for task 237: unlimited
  | Current stacksize for task 238: unlimited
  | Current stacksize for task 239: unlimited
  | Checking for scalapack...
  | Testing pdtran()...
  | All pdtran() tests passed.

  Obtaining array dimensions for all initial allocations:
  
  -----------------------------------------------------------------------
  Parsing control.in (first pass over file, find array dimensions only).
  The contents of control.in will be repeated verbatim below
  unless switched off by setting 'verbatim_writeout .false.' .
  in the first line of control.in .
  -----------------------------------------------------------------------
  
  #########################################################################################
  #
  #   input file control.in tight for scaling studies
  #
  #########################################################################################
  #
  #  Physical model
  #
    xc                 pbe
    vdw_correction_hirshfeld
    spin               none
    relativistic       atomic_zora scalar
    charge             0.
    k_grid 1 1 1
  #
  #  SCF convergence
  #
    occupation_type    gaussian 0.1
    mixer              pulay
      n_max_pulay        5
      charge_mix_param   0.3
    sc_iter_limit      2
  #
    collect_eigenvectors .false.
    use_local_index .true.
    use_alltoall .false.
    elpa_settings two_step_solver
    output elpa_timings
  #
  ################################################################################
  #
  #  FHI-aims code project
  #  VB, Fritz-Haber Institut, 2009
  #
  #  Suggested "tight" defaults for C atom (to be pasted into control.in file)
  #
  ################################################################################
    species        C
  #     global species definitions
      nucleus             6
      mass                12.0107
  #
      l_hartree           6
  #
      cut_pot             4.0  2.0  1.0
      basis_dep_cutoff    1e-4
  #
      radial_base         34 7.0
      radial_multiplier   2
      angular_grids specified
        division   0.2187   50
        division   0.4416  110
        division   0.6335  194
        division   0.7727  302
        division   0.8772  434
  #      division   0.9334  590
  #      division   0.9924  770
  #      division   1.0230  974
  #      division   1.5020 1202
  #     outer_grid  974
        outer_grid  434
  ################################################################################
  #
  #  Definition of "minimal" basis
  #
  ################################################################################
  #     valence basis states
      valence      2  s   2.
      valence      2  p   2.
  #     ion occupancy
      ion_occ      2  s   1.
      ion_occ      2  p   1.
  ################################################################################
  #
  #  Suggested additional basis functions. For production calculations,
  #  uncomment them one after another (the most important basis functions are
  #  listed first).
  #
  #  Constructed for dimers: 1.0 A, 1.25 A, 1.5 A, 2.0 A, 3.0 A
  #
  ################################################################################
  #  "First tier" - improvements: -1214.57 meV to -155.61 meV
       hydro 2 p 1.7
       hydro 3 d 6
       hydro 2 s 4.9
  #  "Second tier" - improvements: -67.75 meV to -5.23 meV
       hydro 4 f 9.8
       hydro 3 p 5.2
       hydro 3 s 4.3
       hydro 5 g 14.4
       hydro 3 d 6.2
  #  "Third tier" - improvements: -2.43 meV to -0.60 meV
  #     hydro 2 p 5.6
  #     hydro 2 s 1.4
  #     hydro 3 d 4.9
  #     hydro 4 f 11.2
  #  "Fourth tier" - improvements: -0.39 meV to -0.18 meV
  #     hydro 2 p 2.1
  #     hydro 5 g 16.4
  #     hydro 4 d 13.2
  #     hydro 3 s 13.6
  #     hydro 4 f 17.6
  #  Further basis functions - improvements: -0.08 meV and below
  #     hydro 3 s 2
  #     hydro 3 p 6
  #     hydro 4 d 20
  
  ################################################################################
  #
  #  FHI-aims code project
  #  VB, Fritz-Haber Institut, 2009
  #
  #  Suggested "tight" defaults for H atom (to be pasted into control.in file)
  #
  ################################################################################
    species        H
  #     global species definitions
      nucleus             1
      mass                1.00794
  #
      l_hartree           6
  #
      cut_pot             4.0  2.0  1.0
      basis_dep_cutoff    1e-4
  #
      radial_base         24 7.0
      radial_multiplier   2
      angular_grids       specified
        division   0.1930   50
        division   0.3175  110
        division   0.4293  194
        division   0.5066  302
        division   0.5626  434
  #      division   0.5922  590
  #      division   0.6227  974
  #      division   0.6868 1202
  #      outer_grid  770
        outer_grid  434
  ################################################################################
  #
  #  Definition of "minimal" basis
  #
  ################################################################################
  #     valence basis states
      valence      1  s   1.
  #     ion occupancy
      ion_occ      1  s   0.5
  ################################################################################
  #
  #  Suggested additional basis functions. For production calculations,
  #  uncomment them one after another (the most important basis functions are
  #  listed first).
  #
  #  Basis constructed for dimers: 0.5 A, 0.7 A, 1.0 A, 1.5 A, 2.5 A
  #
  ################################################################################
  #  "First tier" - improvements: -1014.90 meV to -62.69 meV
       hydro 2 s 2.1
       hydro 2 p 3.5
  #  "Second tier" - improvements: -12.89 meV to -1.83 meV
       hydro 1 s 0.85
       hydro 2 p 3.7
       hydro 2 s 1.2
       hydro 3 d 7
  #  "Third tier" - improvements: -0.25 meV to -0.12 meV
  #     hydro 4 f 11.2
  #     hydro 3 p 4.8
  #     hydro 4 d 9
  #     hydro 3 s 3.2
  ################################################################################
  #
  #  FHI-aims code project
  #  Volker Blum, Fritz Haber Institute Berlin, 2009
  #
  #  Suggested "tight" defaults for Si atom (to be pasted into control.in file)
  #
  #  Revised Jan 04, 2011, following tests (SiC) done by Lydia Nemec:
  #     d and g functions of tier 2 now enabled by default.
  #
  ################################################################################
    species        Si
  #     global species definitions
      nucleus             14
      mass                28.0855
  #
      l_hartree           6
  #
      cut_pot             4.0          2.0  1.0
      basis_dep_cutoff    1e-4
  #
      radial_base         42 7.0
      radial_multiplier   2
      angular_grids       specified
        division   0.4121   50
        division   0.7665  110
        division   1.0603  194
        division   1.2846  302
        division   1.4125  434
  #      division   1.4810  590
  #      division   1.5529  770
  #      division   1.6284  974
  #      division   2.6016 1202
  #      outer_grid   974
        outer_grid  434
  ################################################################################
  #
  #  Definition of "minimal" basis
  #
  ################################################################################
  #     valence basis states
      valence      3  s   2.
      valence      3  p   2.
  #     ion occupancy
      ion_occ      3  s   1.
      ion_occ      3  p   1.
  ################################################################################
  #
  #  Suggested additional basis functions. For production calculations,
  #  uncomment them one after another (the most important basis functions are
  #  listed first).
  #
  #  Constructed for dimers: 1.75 A, 2.0 A, 2.25 A, 2.75 A, 3.75 A
  #
  ################################################################################
  #  "First tier" - improvements: -571.96 meV to -37.03 meV
       hydro 3 d 4.2
       hydro 2 p 1.4
       hydro 4 f 6.2
       ionic 3 s auto
  #  "Second tier" - improvements: -16.76 meV to -3.03 meV
       hydro 3 d 9
       hydro 5 g 9.4
  #     hydro 4 p 4
  #     hydro 1 s 0.65
  #  "Third tier" - improvements: -3.89 meV to -0.60 meV
  #     ionic 3 d auto
  #     hydro 3 s 2.6
  #     hydro 4 f 8.4
  #     hydro 3 d 3.4
  #     hydro 3 p 7.8
  #  "Fourth tier" - improvements: -0.33 meV to -0.11 meV
  #     hydro 2 p 1.6
  #     hydro 5 g 10.8
  #     hydro 5 f 11.2
  #     hydro 3 d 1
  #     hydro 4 s 4.5
  #  Further basis functions that fell out of the optimization - noise
  #  level... < -0.08 meV
  #     hydro 4 d 6.6
  #     hydro 5 g 16.4
  #     hydro 4 d 9
  
  
  
  -----------------------------------------------------------------------
  Completed first pass over input file control.in .
  -----------------------------------------------------------------------
  
  
  -----------------------------------------------------------------------
  Parsing geometry.in (first pass over file, find array dimensions only).
  The contents of geometry.in will be repeated verbatim below
  unless switched off by setting 'verbatim_writeout .false.' .
  in the first line of geometry.in .
  -----------------------------------------------------------------------
  
    #
    lattice_vector  27.77311163 16.03481348 0.00000000
    lattice_vector  -27.77311163 16.03481348 0.00000000
    lattice_vector  0.00000000 0.00000000 52.91218494
    #
    # The hydrogen layer
    #
    atom 1.54295065 0.89082297 5.03925571 H
    atom 3.08590129 3.56329188 5.03925571 H
    atom -0.00000000 3.56329188 5.03925571 H
    atom 6.17180259 3.56329188 5.03925571 H
    atom 7.71475323 6.23576080 5.03925571 H
    atom 4.62885194 6.23576080 5.03925571 H
    atom 10.80065452 6.23576080 5.03925571 H
    atom 12.34360517 8.90822971 5.03925571 H
    atom 9.25770388 8.90822971 5.03925571 H
    atom 15.42950646 8.90822971 5.03925571 H
    atom 16.97245711 11.58069862 5.03925571 H
    atom 13.88655582 11.58069862 5.03925571 H
    atom 20.05835840 11.58069862 5.03925571 H
    atom 21.60130905 14.25316754 5.03925571 H
    atom 18.51540776 14.25316754 5.03925571 H
    atom 24.68721034 14.25316754 5.03925571 H
    atom -1.54295065 0.89082297 5.03925571 H
    atom 23.14425969 16.92563645 5.03925571 H
    atom -3.08590129 3.56329188 5.03925571 H
    atom -1.54295065 6.23576080 5.03925571 H
    atom -4.62885194 6.23576080 5.03925571 H
    atom 1.54295065 6.23576080 5.03925571 H
    atom 3.08590129 8.90822971 5.03925571 H
    atom 0.00000000 8.90822971 5.03925571 H
    atom 6.17180259 8.90822971 5.03925571 H
    atom 7.71475323 11.58069862 5.03925571 H
    atom 4.62885194 11.58069862 5.03925571 H
    atom 10.80065452 11.58069862 5.03925571 H
    atom 12.34360517 14.25316754 5.03925571 H
    atom 9.25770388 14.25316754 5.03925571 H
    atom 15.42950646 14.25316754 5.03925571 H
    atom 16.97245711 16.92563645 5.03925571 H
    atom 13.88655582 16.92563645 5.03925571 H
    atom 20.05835840 16.92563645 5.03925571 H
    atom -6.17180259 3.56329188 5.03925571 H
    atom 18.51540776 19.59810536 5.03925571 H
    atom -7.71475323 6.23576080 5.03925571 H
    atom -6.17180259 8.90822971 5.03925571 H
    atom -9.25770388 8.90822971 5.03925571 H
    atom -3.08590129 8.90822971 5.03925571 H
    atom -1.54295065 11.58069862 5.03925571 H
    atom -4.62885194 11.58069862 5.03925571 H
    atom 1.54295065 11.58069862 5.03925571 H
    atom 3.08590129 14.25316754 5.03925571 H
    atom -0.00000000 14.25316754 5.03925571 H
    atom 6.17180259 14.25316754 5.03925571 H
    atom 7.71475323 16.92563645 5.03925571 H
    atom 4.62885194 16.92563645 5.03925571 H
    atom 10.80065452 16.92563645 5.03925571 H
    atom 12.34360517 19.59810536 5.03925571 H
    atom 9.25770388 19.59810536 5.03925571 H
    atom 15.42950646 19.59810536 5.03925571 H
    atom -10.80065452 6.23576080 5.03925571 H
    atom 13.88655582 22.27057427 5.03925571 H
    atom -12.34360517 8.90822971 5.03925571 H
    atom -10.80065452 11.58069862 5.03925571 H
    atom -13.88655582 11.58069862 5.03925571 H
    atom -7.71475323 11.58069862 5.03925571 H
    atom -6.17180259 14.25316754 5.03925571 H
    atom -9.25770388 14.25316754 5.03925571 H
    atom -3.08590129 14.25316754 5.03925571 H
    atom -1.54295065 16.92563645 5.03925571 H
    atom -4.62885194 16.92563645 5.03925571 H
    atom 1.54295065 16.92563645 5.03925571 H
    atom 3.08590129 19.59810536 5.03925571 H
    atom -0.00000000 19.59810536 5.03925571 H
    atom 6.17180259 19.59810536 5.03925571 H
    atom 7.71475323 22.27057427 5.03925571 H
    atom 4.62885194 22.27057427 5.03925571 H
    atom 10.80065452 22.27057427 5.03925571 H
    atom -15.42950646 8.90822971 5.03925571 H
    atom 9.25770388 24.94304319 5.03925571 H
    atom -16.97245711 11.58069862 5.03925571 H
    atom -15.42950646 14.25316754 5.03925571 H
    atom -18.51540776 14.25316754 5.03925571 H
    atom -12.34360517 14.25316754 5.03925571 H
    atom -10.80065452 16.92563645 5.03925571 H
    atom -13.88655582 16.92563645 5.03925571 H
    atom -7.71475323 16.92563645 5.03925571 H
    atom -6.17180259 19.59810536 5.03925571 H
    atom -9.25770388 19.59810536 5.03925571 H
    atom -3.08590129 19.59810536 5.03925571 H
    atom -1.54295065 22.27057427 5.03925571 H
    atom -4.62885194 22.27057427 5.03925571 H
    atom 1.54295065 22.27057427 5.03925571 H
    atom 3.08590129 24.94304319 5.03925571 H
    atom -0.00000000 24.94304319 5.03925571 H
    atom 6.17180259 24.94304319 5.03925571 H
    atom -20.05835840 11.58069862 5.03925571 H
    atom 4.62885194 27.61551210 5.03925571 H
    atom -21.60130905 14.25316754 5.03925571 H
    atom -20.05835840 16.92563645 5.03925571 H
    atom -23.14425969 16.92563645 5.03925571 H
    atom -16.97245711 16.92563645 5.03925571 H
    atom -15.42950646 19.59810536 5.03925571 H
    atom -18.51540776 19.59810536 5.03925571 H
    atom -12.34360517 19.59810536 5.03925571 H
    atom -10.80065452 22.27057427 5.03925571 H
    atom -13.88655582 22.27057427 5.03925571 H
    atom -7.71475323 22.27057427 5.03925571 H
    atom -6.17180259 24.94304319 5.03925571 H
    atom -9.25770388 24.94304319 5.03925571 H
    atom -3.08590129 24.94304319 5.03925571 H
    atom -1.54295065 27.61551210 5.03925571 H
    atom -4.62885194 27.61551210 5.03925571 H
    atom 1.54295065 27.61551210 5.03925571 H
    atom -24.68721034 14.25316754 5.03925571 H
    atom 0.00000000 30.28798101 5.03925571 H
    # The carbon layer 1
    #
    atom 1.54295065 0.89082297 6.14412707 C
    atom 3.08590129 3.56329188 6.14412707 C
    atom -0.00000000 3.56329188 6.14412707 C
    atom 6.17180259 3.56329188 6.14412707 C
    atom 7.71475323 6.23576080 6.14412707 C
    atom 4.62885194 6.23576080 6.14412707 C
    atom 10.80065452 6.23576080 6.14412707 C
    atom 12.34360517 8.90822971 6.14412707 C
    atom 9.25770388 8.90822971 6.14412707 C
    atom 15.42950646 8.90822971 6.14412707 C
    atom 16.97245711 11.58069862 6.14412707 C
    atom 13.88655582 11.58069862 6.14412707 C
    atom 20.05835840 11.58069862 6.14412707 C
    atom 21.60130905 14.25316754 6.14412707 C
    atom 18.51540776 14.25316754 6.14412707 C
    atom 24.68721034 14.25316754 6.14412707 C
    atom -1.54295065 0.89082297 6.14412707 C
    atom 23.14425969 16.92563645 6.14412707 C
    atom -3.08590129 3.56329188 6.14412707 C
    atom -1.54295065 6.23576080 6.14412707 C
    atom -4.62885194 6.23576080 6.14412707 C
    atom 1.54295065 6.23576080 6.14412707 C
    atom 3.08590129 8.90822971 6.14412707 C
    atom 0.00000000 8.90822971 6.14412707 C
    atom 6.17180259 8.90822971 6.14412707 C
    atom 7.71475323 11.58069862 6.14412707 C
    atom 4.62885194 11.58069862 6.14412707 C
    atom 10.80065452 11.58069862 6.14412707 C
    atom 12.34360517 14.25316754 6.14412707 C
    atom 9.25770388 14.25316754 6.14412707 C
    atom 15.42950646 14.25316754 6.14412707 C
    atom 16.97245711 16.92563645 6.14412707 C
    atom 13.88655582 16.92563645 6.14412707 C
    atom 20.05835840 16.92563645 6.14412707 C
    atom -6.17180259 3.56329188 6.14412707 C
    atom 18.51540776 19.59810536 6.14412707 C
    atom -7.71475323 6.23576080 6.14412707 C
    atom -6.17180259 8.90822971 6.14412707 C
    atom -9.25770388 8.90822971 6.14412707 C
    atom -3.08590129 8.90822971 6.14412707 C
    atom -1.54295065 11.58069862 6.14412707 C
    atom -4.62885194 11.58069862 6.14412707 C
    atom 1.54295065 11.58069862 6.14412707 C
    atom 3.08590129 14.25316754 6.14412707 C
    atom -0.00000000 14.25316754 6.14412707 C
    atom 6.17180259 14.25316754 6.14412707 C
    atom 7.71475323 16.92563645 6.14412707 C
    atom 4.62885194 16.92563645 6.14412707 C
    atom 10.80065452 16.92563645 6.14412707 C
    atom 12.34360517 19.59810536 6.14412707 C
    atom 9.25770388 19.59810536 6.14412707 C
    atom 15.42950646 19.59810536 6.14412707 C
    atom -10.80065452 6.23576080 6.14412707 C
    atom 13.88655582 22.27057427 6.14412707 C
    atom -12.34360517 8.90822971 6.14412707 C
    atom -10.80065452 11.58069862 6.14412707 C
    atom -13.88655582 11.58069862 6.14412707 C
    atom -7.71475323 11.58069862 6.14412707 C
    atom -6.17180259 14.25316754 6.14412707 C
    atom -9.25770388 14.25316754 6.14412707 C
    atom -3.08590129 14.25316754 6.14412707 C
    atom -1.54295065 16.92563645 6.14412707 C
    atom -4.62885194 16.92563645 6.14412707 C
    atom 1.54295065 16.92563645 6.14412707 C
    atom 3.08590129 19.59810536 6.14412707 C
    atom -0.00000000 19.59810536 6.14412707 C
    atom 6.17180259 19.59810536 6.14412707 C
    atom 7.71475323 22.27057427 6.14412707 C
    atom 4.62885194 22.27057427 6.14412707 C
    atom 10.80065452 22.27057427 6.14412707 C
    atom -15.42950646 8.90822971 6.14412707 C
    atom 9.25770388 24.94304319 6.14412707 C
    atom -16.97245711 11.58069862 6.14412707 C
    atom -15.42950646 14.25316754 6.14412707 C
    atom -18.51540776 14.25316754 6.14412707 C
    atom -12.34360517 14.25316754 6.14412707 C
    atom -10.80065452 16.92563645 6.14412707 C
    atom -13.88655582 16.92563645 6.14412707 C
    atom -7.71475323 16.92563645 6.14412707 C
    atom -6.17180259 19.59810536 6.14412707 C
    atom -9.25770388 19.59810536 6.14412707 C
    atom -3.08590129 19.59810536 6.14412707 C
    atom -1.54295065 22.27057427 6.14412707 C
    atom -4.62885194 22.27057427 6.14412707 C
    atom 1.54295065 22.27057427 6.14412707 C
    atom 3.08590129 24.94304319 6.14412707 C
    atom -0.00000000 24.94304319 6.14412707 C
    atom 6.17180259 24.94304319 6.14412707 C
    atom -20.05835840 11.58069862 6.14412707 C
    atom 4.62885194 27.61551210 6.14412707 C
    atom -21.60130905 14.25316754 6.14412707 C
    atom -20.05835840 16.92563645 6.14412707 C
    atom -23.14425969 16.92563645 6.14412707 C
    atom -16.97245711 16.92563645 6.14412707 C
    atom -15.42950646 19.59810536 6.14412707 C
    atom -18.51540776 19.59810536 6.14412707 C
    atom -12.34360517 19.59810536 6.14412707 C
    atom -10.80065452 22.27057427 6.14412707 C
    atom -13.88655582 22.27057427 6.14412707 C
    atom -7.71475323 22.27057427 6.14412707 C
    atom -6.17180259 24.94304319 6.14412707 C
    atom -9.25770388 24.94304319 6.14412707 C
    atom -3.08590129 24.94304319 6.14412707 C
    atom -1.54295065 27.61551210 6.14412707 C
    atom -4.62885194 27.61551210 6.14412707 C
    atom 1.54295065 27.61551210 6.14412707 C
    atom -24.68721034 14.25316754 6.14412707 C
    atom 0.00000000 30.28798101 6.14412707 C
    # The silicon layer 1
    #
    atom 0.00000000 0.00000000 6.77403403 Si
    atom 1.54295065 2.67246891 6.77403403 Si
    atom -1.54295065 2.67246891 6.77403403 Si
    atom 4.62885194 2.67246891 6.77403403 Si
    atom 6.17180259 5.34493783 6.77403403 Si
    atom 3.08590129 5.34493783 6.77403403 Si
    atom 9.25770388 5.34493783 6.77403403 Si
    atom 10.80065452 8.01740674 6.77403403 Si
    atom 7.71475323 8.01740674 6.77403403 Si
    atom 13.88655582 8.01740674 6.77403403 Si
    atom 15.42950646 10.68987565 6.77403403 Si
    atom 12.34360517 10.68987565 6.77403403 Si
    atom 18.51540776 10.68987565 6.77403403 Si
    atom 20.05835840 13.36234456 6.77403403 Si
    atom 16.97245711 13.36234456 6.77403403 Si
    atom 23.14425969 13.36234456 6.77403403 Si
    atom 24.68721034 16.03481348 6.77403403 Si
    atom 21.60130905 16.03481348 6.77403403 Si
    atom -4.62885194 2.67246891 6.77403403 Si
    atom -3.08590129 5.34493783 6.77403403 Si
    atom -6.17180259 5.34493783 6.77403403 Si
    atom 0.00000000 5.34493783 6.77403403 Si
    atom 1.54295065 8.01740674 6.77403403 Si
    atom -1.54295065 8.01740674 6.77403403 Si
    atom 4.62885194 8.01740674 6.77403403 Si
    atom 6.17180259 10.68987565 6.77403403 Si
    atom 3.08590129 10.68987565 6.77403403 Si
    atom 9.25770388 10.68987565 6.77403403 Si
    atom 10.80065452 13.36234456 6.77403403 Si
    atom 7.71475323 13.36234456 6.77403403 Si
    atom 13.88655582 13.36234456 6.77403403 Si
    atom 15.42950646 16.03481348 6.77403403 Si
    atom 12.34360517 16.03481348 6.77403403 Si
    atom 18.51540776 16.03481348 6.77403403 Si
    atom 20.05835840 18.70728239 6.77403403 Si
    atom 16.97245711 18.70728239 6.77403403 Si
    atom -9.25770388 5.34493783 6.77403403 Si
    atom -7.71475323 8.01740674 6.77403403 Si
    atom -10.80065452 8.01740674 6.77403403 Si
    atom -4.62885194 8.01740674 6.77403403 Si
    atom -3.08590129 10.68987565 6.77403403 Si
    atom -6.17180259 10.68987565 6.77403403 Si
    atom -0.00000000 10.68987565 6.77403403 Si
    atom 1.54295065 13.36234456 6.77403403 Si
    atom -1.54295065 13.36234456 6.77403403 Si
    atom 4.62885194 13.36234456 6.77403403 Si
    atom 6.17180259 16.03481348 6.77403403 Si
    atom 3.08590129 16.03481348 6.77403403 Si
    atom 9.25770388 16.03481348 6.77403403 Si
    atom 10.80065452 18.70728239 6.77403403 Si
    atom 7.71475323 18.70728239 6.77403403 Si
    atom 13.88655582 18.70728239 6.77403403 Si
    atom 15.42950646 21.37975130 6.77403403 Si
    atom 12.34360517 21.37975130 6.77403403 Si
    atom -13.88655582 8.01740674 6.77403403 Si
    atom -12.34360517 10.68987565 6.77403403 Si
    atom -15.42950646 10.68987565 6.77403403 Si
    atom -9.25770388 10.68987565 6.77403403 Si
    atom -7.71475323 13.36234456 6.77403403 Si
    atom -10.80065452 13.36234456 6.77403403 Si
    atom -4.62885194 13.36234456 6.77403403 Si
    atom -3.08590129 16.03481348 6.77403403 Si
    atom -6.17180259 16.03481348 6.77403403 Si
    atom -0.00000000 16.03481348 6.77403403 Si
    atom 1.54295065 18.70728239 6.77403403 Si
    atom -1.54295065 18.70728239 6.77403403 Si
    atom 4.62885194 18.70728239 6.77403403 Si
    atom 6.17180259 21.37975130 6.77403403 Si
    atom 3.08590129 21.37975130 6.77403403 Si
    atom 9.25770388 21.37975130 6.77403403 Si
    atom 10.80065452 24.05222022 6.77403403 Si
    atom 7.71475323 24.05222022 6.77403403 Si
    atom -18.51540776 10.68987565 6.77403403 Si
    atom -16.97245711 13.36234456 6.77403403 Si
    atom -20.05835840 13.36234456 6.77403403 Si
    atom -13.88655582 13.36234456 6.77403403 Si
    atom -12.34360517 16.03481348 6.77403403 Si
    atom -15.42950646 16.03481348 6.77403403 Si
    atom -9.25770388 16.03481348 6.77403403 Si
    atom -7.71475323 18.70728239 6.77403403 Si
    atom -10.80065452 18.70728239 6.77403403 Si
    atom -4.62885194 18.70728239 6.77403403 Si
    atom -3.08590129 21.37975130 6.77403403 Si
    atom -6.17180259 21.37975130 6.77403403 Si
    atom -0.00000000 21.37975130 6.77403403 Si
    atom 1.54295065 24.05222022 6.77403403 Si
    atom -1.54295065 24.05222022 6.77403403 Si
    atom 4.62885194 24.05222022 6.77403403 Si
    atom 6.17180259 26.72468913 6.77403403 Si
    atom 3.08590129 26.72468913 6.77403403 Si
    atom -23.14425969 13.36234456 6.77403403 Si
    atom -21.60130905 16.03481348 6.77403403 Si
    atom -24.68721034 16.03481348 6.77403403 Si
    atom -18.51540776 16.03481348 6.77403403 Si
    atom -16.97245711 18.70728239 6.77403403 Si
    atom -20.05835840 18.70728239 6.77403403 Si
    atom -13.88655582 18.70728239 6.77403403 Si
    atom -12.34360517 21.37975130 6.77403403 Si
    atom -15.42950646 21.37975130 6.77403403 Si
    atom -9.25770388 21.37975130 6.77403403 Si
    atom -7.71475323 24.05222022 6.77403403 Si
    atom -10.80065452 24.05222022 6.77403403 Si
    atom -4.62885194 24.05222022 6.77403403 Si
    atom -3.08590129 26.72468913 6.77403403 Si
    atom -6.17180259 26.72468913 6.77403403 Si
    atom -0.00000000 26.72468913 6.77403403 Si
    atom 1.54295065 29.39715804 6.77403403 Si
    atom -1.54295065 29.39715804 6.77403403 Si
    # The carbon layer 2
    #
    atom -0.00029645 10.68301203 8.68677057 C
    atom -9.25167059 26.72688318 8.68642986 C
    atom -18.52142968 10.69344018 8.68492767 C
    atom 4.63883384 8.01343981 8.68373726 C
    atom 7.71769637 8.01064615 8.68324586 C
    atom -4.63905679 8.01201895 8.68248613 C
    atom 9.25854005 5.34726990 8.68239801 C
    atom 18.51191440 21.38007722 8.68205642 C
    atom -1.53653465 24.04570895 8.68194295 C
    atom 6.18114906 5.34637000 8.68193519 C
    atom 0.00167772 21.37899747 8.68184935 C
    atom -4.61789756 24.04845575 8.68178386 C
    atom -6.18329333 5.34456092 8.68166663 C
    atom 20.05142902 18.71419382 8.68023704 C
    atom 1.53991927 24.04602494 8.68009236 C
    atom 10.79909022 8.00920554 8.67963269 C
    atom -20.05484977 18.71562979 8.67908751 C
    atom 1.54717303 8.01854999 8.67871559 C
    atom 3.08616081 10.68390061 8.67854890 C
    atom -7.71552817 8.01110450 8.67817219 C
    atom -3.07886946 21.38457382 8.67808443 C
    atom -1.54832651 8.01751101 8.67801276 C
    atom 20.05553894 13.36303195 8.67715391 C
    atom -6.16808891 26.72110544 8.67713785 C
    atom 15.43270984 10.68546305 8.67700433 C
    atom 16.97604224 13.35970630 8.67630014 C
    atom 6.17125343 26.72320973 8.67612838 C
    atom 18.51312484 16.03703252 8.67586213 C
    atom -3.08608239 10.68279117 8.67576311 C
    atom 1.53883847 13.35841520 8.67575571 C
    atom -20.05756264 13.36527762 8.67573002 C
    atom 4.62692746 24.05176821 8.67509332 C
    atom 6.17635655 10.67639175 8.67497223 C
    atom -7.70702472 24.05748936 8.67489296 C
    atom 7.71348743 24.05878814 8.67483828 C
    atom -1.53741274 18.71500081 8.67477980 C
    atom 16.97517429 18.70775882 8.67434152 C
    atom 1.53726834 18.71285383 8.67428839 C
    atom 3.08354026 21.38466433 8.67407161 C
    atom -10.79780882 8.00936952 8.67401828 C
    atom 10.80021732 24.05862439 8.67369753 C
    atom 15.43586481 21.38275108 8.67366367 C
    atom -18.51624577 16.03784393 8.67363754 C
    atom 3.09162029 5.35400696 8.67341394 C
    atom -3.09397593 5.35276218 8.67304079 C
    atom -3.08811170 26.71702389 8.67259761 C
    atom 21.59011070 16.03584771 8.67221544 C
    atom -16.97774833 18.70708743 8.67208103 C
    atom -1.54017673 13.35859390 8.67206490 C
    atom 3.08969154 26.71777148 8.67179847 C
    atom -16.97982099 13.35933093 8.67178510 C
    atom -21.59313063 16.03767577 8.67156169 C
    atom -10.79714243 24.05724470 8.67148127 C
    atom -6.17121994 10.67914240 8.67130699 C
    atom -13.88654041 24.05052806 8.67128295 C
    atom 15.43701772 16.03910053 8.67095527 C
    atom -15.43727297 21.38187267 8.67077908 C
    atom 9.26620661 10.67944364 8.67049210 C
    atom -0.00073359 16.03650596 8.67015965 C
    atom -15.43462559 10.68719718 8.67006014 C
    atom 4.64026274 2.68215225 8.66996460 C
    atom 6.16265474 21.38650177 8.66981079 C
    atom 0.00026363 26.71176977 8.66973078 C
    atom 23.12979602 18.71529757 8.66961832 C
    atom -13.88534489 8.01709394 8.66896539 C
    atom -6.15983077 21.38823429 8.66864197 C
    atom 12.34740354 10.68196814 8.66817799 C
    atom 4.61755018 18.70597568 8.66539936 C
    atom 13.88913111 18.71819999 8.66519731 C
    atom -15.43957542 16.03120364 8.66401468 C
    atom 3.07805596 16.03307050 8.66373843 C
    atom -0.00134091 5.35142591 8.66254522 C
    atom 12.34554086 21.38809924 8.66246355 C
    atom 23.13960758 13.36029727 8.66232410 C
    atom -23.14038712 13.36158921 8.66188471 C
    atom 13.89236391 13.36010106 8.66034165 C
    atom -3.08202288 16.03719007 8.66025021 C
    atom 4.62633350 13.35529201 8.66003540 C
    atom -4.62469112 18.71249822 8.65890395 C
    atom -12.34438459 10.68422797 8.65877608 C
    atom -9.25615632 10.68428243 8.65828291 C
    atom 9.25436770 21.38742601 8.65777667 C
    atom -4.62498112 13.35766276 8.65680068 C
    atom -13.89303494 13.35810763 8.65459909 C
    atom 10.80401395 13.35755976 8.65392224 C
    atom 7.71604225 13.35566412 8.65333279 C
    atom 6.16679685 16.03346103 8.65331175 C
    atom -12.34482990 21.38330645 8.65305866 C
    atom -0.00125271 0.00255363 8.65285891 C
    atom -9.25153488 21.38704268 8.65257078 C
    atom 10.80139436 18.71305887 8.65249147 C
    atom 12.34748120 16.03784635 8.65240031 C
    atom 7.70890562 18.71100513 8.65178450 C
    atom -13.89163462 18.70784938 8.65161902 C
    atom -1.54980655 2.67894140 8.65034864 C
    atom 1.54722575 2.67956354 8.65030055 C
    atom -1.54487965 29.39206875 8.65001936 C
    atom 1.54350672 29.39238490 8.65000912 C
    atom -24.68168621 16.03926616 8.64992276 C
    atom 24.67911099 16.03850992 8.64990633 C
    atom -6.16907516 16.03725788 8.64937714 C
    atom -7.71137496 13.35959187 8.64933631 C
    atom -10.80160368 18.70801050 8.64865010 C
    atom -10.80067882 13.35705292 8.64685603 C
    atom -7.71158688 18.71445731 8.64629779 C
    atom 9.25743370 16.03494350 8.64569936 C
    atom -12.34767170 16.03041815 8.64538471 C
    atom -9.25801438 16.03320740 8.64146747 C
    # The silicon layer 2
    #
    atom 6.18008715 7.11944410 9.32107992 Si
    atom 9.25635406 7.12447897 9.31938333 Si
    atom 1.54682878 9.79512666 9.31925660 Si
    atom 18.51719176 12.47478789 9.31802260 Si
    atom -3.07332066 23.16152045 9.31770694 Si
    atom -6.18033122 7.11775617 9.31757425 Si
    atom 20.04705266 20.49384158 9.31752714 Si
    atom 7.72290341 4.46071801 9.31742383 Si
    atom 0.00150099 23.15240455 9.31723237 Si
    atom -1.54717699 9.79401358 9.31707781 Si
    atom 7.70940576 25.83578068 9.31645862 Si
    atom -7.70676463 25.83422680 9.31592481 Si
    atom -18.52070234 12.47573119 9.31450363 Si
    atom -1.54179274 20.49566484 9.31232317 Si
    atom -9.25436540 7.12402610 9.31222618 Si
    atom -0.00136556 12.46504408 9.31143982 Si
    atom 3.09369719 7.13519367 9.31105668 Si
    atom -10.79499505 25.83562048 9.31103536 Si
    atom -3.09455841 7.13336386 9.30991394 Si
    atom 4.62705975 9.79286923 9.30930950 Si
    atom -4.62893865 25.82537303 9.30877809 Si
    atom -16.97823609 9.80353877 9.30868715 Si
    atom 1.54709769 20.49378259 9.30718202 Si
    atom 16.97231200 20.48437166 9.30716150 Si
    atom 20.04765536 15.14297648 9.30556820 Si
    atom -4.62507894 9.79076982 9.30555963 Si
    atom 4.63344568 25.82808296 9.30452132 Si
    atom -6.16508015 23.17027698 9.30441579 Si
    atom 18.51598783 17.81655671 9.30423113 Si
    atom 3.08459239 23.16539124 9.30380188 Si
    atom -20.05150247 15.14517882 9.30343493 Si
    atom 12.34634911 7.12851472 9.30319782 Si
    atom 0.00055633 17.81496223 9.30316936 Si
    atom 7.72773710 9.79031590 9.30285534 Si
    atom -12.34621819 7.12777888 9.30214239 Si
    atom 13.88803888 9.79312841 9.30192644 Si
    atom -16.97680169 20.48561746 9.30139016 Si
    atom 16.97754767 15.13801025 9.30112327 Si
    atom -18.52015379 17.81756848 9.30052461 Si
    atom 4.63504930 4.46696650 9.30046683 Si
    atom -1.54769249 25.82549313 9.30034160 Si
    atom -4.63724952 4.46454602 9.29990901 Si
    atom 6.17320025 23.17148686 9.29970372 Si
    atom 10.81064444 9.78684296 9.29966492 Si
    atom 21.58788685 17.81663678 9.29807931 Si
    atom 1.54918774 25.82591121 9.29803762 Si
    atom -21.59155047 17.81827795 9.29764561 Si
    atom 1.53816813 15.14225743 9.29666567 Si
    atom -16.98238672 15.13572674 9.29504300 Si
    atom 12.34410972 23.16688661 9.29449744 Si
    atom -0.00052586 7.13285692 9.29294579 Si
    atom 3.08446976 12.46719448 9.29276768 Si
    atom 15.43194157 12.46791680 9.29224310 Si
    atom -6.17611320 28.50311741 9.29169447 Si
    atom -21.59759447 12.47005357 9.29085022 Si
    atom -7.72091113 9.79190480 9.29050718 Si
    atom -4.61901220 20.48998634 9.28995841 Si
    atom 15.42769458 17.82590416 9.28959128 Si
    atom 4.62066411 20.48541979 9.28913482 Si
    atom 9.25691658 23.16672301 9.28890332 Si
    atom -1.54156495 15.14276616 9.28831813 Si
    atom 3.07226046 17.81220259 9.28810069 Si
    atom 13.88832616 20.50401801 9.28667090 Si
    atom -13.88880173 9.79786038 9.28637435 Si
    atom -3.08405936 12.46593722 9.28559941 Si
    atom -9.25158733 23.16525044 9.28438811 Si
    atom -12.34038657 23.16118745 9.28415607 Si
    atom -15.43539151 12.46914508 9.28172396 Si
    atom -3.08187369 17.82228517 9.27507301 Si
    atom -10.79919896 9.79291091 9.27391318 Si
    atom -15.43027421 17.81557657 9.27193929 Si
    atom -1.54699105 4.45840562 9.27123389 Si
    atom 1.54431917 4.45931507 9.27108856 Si
    atom -3.08632918 28.50420048 9.27098079 Si
    atom 12.35072193 12.46643617 9.27025312 Si
    atom 23.13992270 15.14574291 9.26999275 Si
    atom 3.08587183 28.50532151 9.26970478 Si
    atom -23.14258541 15.14714776 9.26955163 Si
    atom 6.17294130 12.46447384 9.26825677 Si
    atom 4.62111223 15.13786018 9.26694511 Si
    atom 9.25959564 12.46510920 9.26645741 Si
    atom 13.88923371 15.14437478 9.26572328 Si
    atom 10.79907047 20.49979192 9.26471073 Si
    atom 7.71098144 20.49386890 9.26400400 Si
    atom -6.16978613 12.46741520 9.26243452 Si
    atom 6.16626643 17.81834497 9.26225928 Si
    atom 12.34625539 17.82038097 9.26222408 Si
    atom -13.88698424 20.49056426 9.26167927 Si
    atom -7.70927055 20.49579481 9.25994392 Si
    atom -4.62590107 15.14119546 9.25866512 Si
    atom -13.88997394 15.14051985 9.25865080 Si
    atom 3.09025710 1.78726687 9.25863847 Si
    atom -0.00082868 28.50188822 9.25857316 Si
    atom -3.09338582 1.78638058 9.25857269 Si
    atom -12.34773591 12.46864627 9.25633829 Si
    atom -6.17328124 17.82275480 9.25488284 Si
    atom -10.79652319 20.49745196 9.25333853 Si
    atom -9.25418535 12.46923686 9.25324543 Si
    atom -0.00126457 1.79477622 9.25230293 Si
    atom -26.22265258 15.14157740 9.25154822 Si
    atom 26.22003318 15.14110171 9.25133357 Si
    atom 7.71587352 15.14082766 9.25022951 Si
    atom 10.80153093 15.14526944 9.24975006 Si
    atom -12.34953791 17.81098206 9.24884198 Si
    atom 9.25397442 17.81766045 9.24872149 Si
    atom -7.71570495 15.14487579 9.24596397 Si
    atom -9.25127199 17.81503247 9.24331964 Si
    atom -10.80142789 15.14262299 9.24191064 Si
    # The carbon layer 3
    #
    atom 6.19085713 7.11518935 11.24816754 C
    atom 9.25914048 7.11974463 11.24528604 C
    atom 20.03680491 20.49432796 11.24518197 C
    atom 0.00626436 23.14683186 11.24491863 C
    atom -3.06332281 23.15711748 11.24478680 C
    atom -6.19168606 7.11308687 11.24433942 C
    atom 7.72957098 4.46255065 11.24345450 C
    atom 1.54935202 9.79640371 11.23946204 C
    atom 18.51337950 12.47620746 11.23769774 C
    atom 7.70930690 25.83441586 11.23582970 C
    atom -1.55382203 9.79405310 11.23411052 C
    atom -7.70285697 25.83147596 11.23335435 C
    atom -18.51919372 12.48037620 11.23155661 C
    atom -9.25431973 7.12287430 11.22904910 C
    atom -1.54063115 20.49951430 11.22867444 C
    atom 3.09843649 7.14031749 11.22841320 C
    atom -3.10170504 7.13648803 11.22762183 C
    atom -4.62790011 25.82061140 11.22534182 C
    atom 4.63369456 9.78918294 11.22399374 C
    atom -0.00531028 12.46063751 11.22238213 C
    atom -10.78983593 25.83574387 11.22221871 C
    atom 20.04165959 15.14221580 11.22209141 C
    atom 4.63664397 25.82623609 11.21976713 C
    atom -4.63277078 9.78734165 11.21910812 C
    atom -20.04878957 15.14617619 11.21908526 C
    atom -16.98218729 9.80981373 11.21837959 C
    atom 16.97252662 20.47775125 11.21807908 C
    atom -6.15754510 23.16909760 11.21753547 C
    atom 1.55278989 20.50080298 11.21732158 C
    atom 18.51283070 17.81279410 11.21723406 C
    atom 3.08931141 23.16788520 11.21640578 C
    atom -15.42135458 23.15924631 11.21636214 C
    atom -16.97699593 20.47538689 11.21402403 C
    atom 7.74347031 9.78422706 11.21373543 C
    atom -0.00466739 17.81529399 11.21274044 C
    atom 16.97500871 15.13831722 11.21243266 C
    atom -18.52017660 17.81235627 11.21173329 C
    atom -12.34554739 7.13367063 11.21120672 C
    atom 10.82260155 9.78173252 11.21068511 C
    atom 4.63675465 4.47512058 11.21067696 C
    atom -1.55153859 25.82102895 11.20986386 C
    atom 6.17333276 23.17298667 11.20985521 C
    atom -4.64146644 4.47187111 11.20947121 C
    atom 13.89374515 9.78601329 11.20904536 C
    atom 1.55472354 25.82247377 11.20718912 C
    atom 21.57865884 17.81497364 11.20681000 C
    atom -21.58498884 17.81739860 11.20628282 C
    atom -16.98325619 15.13364061 11.20332009 C
    atom 1.52913947 15.14049431 11.19943063 C
    atom -0.00203226 7.13585012 11.19734824 C
    atom 3.08596818 12.46443763 11.19721251 C
    atom 15.43226336 12.46807555 11.19709653 C
    atom 12.34533195 23.17759951 11.19616741 C
    atom -6.17810985 28.50164838 11.19515151 C
    atom -7.73226817 9.79034649 11.19474832 C
    atom -4.61091384 20.48326314 11.19464128 C
    atom -21.59574950 12.47071108 11.19389289 C
    atom 15.42328147 17.83619356 11.19350828 C
    atom 4.61389897 20.48001486 11.19322104 C
    atom 3.06279652 17.80408815 11.19225019 C
    atom 9.25489281 23.16998124 11.19154709 C
    atom 13.88297856 20.51792527 11.18959509 C
    atom -3.09106523 12.46401615 11.18623251 C
    atom -1.54617155 15.14530182 11.18533178 C
    atom -12.33838210 23.15932186 11.18336087 C
    atom -9.24281484 23.16683307 11.18310830 C
    atom -13.88680284 9.80091179 11.18209541 C
    atom -15.43673558 12.47157456 11.18013249 C
    atom -15.43061698 17.81134004 11.16803033 C
    atom -1.55230756 4.46447873 11.16579921 C
    atom 1.54745881 4.46591085 11.16550788 C
    atom -3.08694434 17.82347486 11.16548994 C
    atom -3.08840760 28.49969370 11.16506481 C
    atom -10.79697420 9.79907248 11.16337685 C
    atom 23.13347384 15.14727771 11.16306609 C
    atom -23.13851677 15.14991982 11.16267888 C
    atom 3.08679617 28.50211046 11.16264261 C
    atom 12.35440353 12.46572165 11.16015638 C
    atom 9.26584267 12.46273435 11.15940859 C
    atom 6.17930352 12.46511293 11.15745627 C
    atom 13.88555937 15.14737340 11.15531375 C
    atom 4.61791558 15.13488501 11.15490999 C
    atom 12.34520799 17.82704209 11.15304685 C
    atom 6.16020984 17.81659132 11.15267728 C
    atom 7.71004839 20.49166037 11.15205536 C
    atom 10.79664431 20.50583429 11.15150840 C
    atom -6.17571005 12.46836777 11.15085630 C
    atom -13.88808083 15.13697701 11.14551111 C
    atom -13.87894176 20.48159202 11.14504518 C
    atom -4.63060473 15.14220508 11.14448744 C
    atom -7.70819326 20.48990244 11.14366602 C
    atom -6.17145120 17.82227846 11.14195990 C
    atom -12.34678971 12.47162440 11.14092565 C
    atom -9.25351891 12.47299671 11.14025072 C
    atom 3.08427681 1.78769086 11.13876008 C
    atom -3.08985651 1.78563207 11.13874446 C
    atom -0.00167310 28.50912674 11.13819286 C
    atom 7.72021098 15.13801109 11.13234026 C
    atom 10.80150135 15.15175164 11.13102372 C
    atom -10.79199603 20.50193174 11.12945197 C
    atom -0.00260234 1.80990994 11.12902393 C
    atom 9.24707784 17.81658914 11.12885090 C
    atom -26.21322078 15.13775160 11.12848271 C
    atom 26.20830022 15.13698312 11.12820584 C
    atom -7.71843238 15.14157029 11.12704621 C
    atom -12.35350735 17.80320511 11.12685367 C
    atom -10.79958326 15.14921134 11.11811702 C
    atom -9.24156971 17.80789723 11.11670184 C
    # The silicon layer 3
    #
    atom 7.72918381 6.23250114 11.92074917 Si
    atom -7.73253017 6.23137642 11.91142106 Si
    atom -1.52949160 22.26416293 11.91121051 Si
    atom 3.08744518 8.91525238 11.87585830 Si
    atom 18.50583661 19.57980128 11.87229973 Si
    atom 1.56357478 22.27859898 11.87181829 Si
    atom -3.08890542 8.91150765 11.87020270 Si
    atom -6.17101763 24.94408975 11.86854803 Si
    atom 18.50862942 14.24660777 11.86817183 Si
    atom 4.63441082 6.25259655 11.86654409 Si
    atom 6.17788722 24.94715584 11.86621373 Si
    atom -4.63786148 6.24777846 11.86608821 Si
    atom -3.09110525 24.93648829 11.86535768 Si
    atom -18.51828476 14.24883175 11.86138328 Si
    atom 9.29234075 8.90037041 11.86089074 Si
    atom -18.51546430 19.57971756 11.86013740 Si
    atom -0.00316542 8.91519744 11.85760183 Si
    atom -7.71837872 27.61294797 11.85660216 Si
    atom 12.36813368 8.90329915 11.85609976 Si
    atom -20.05629922 11.58225307 11.85576404 Si
    atom 20.04326581 16.91544506 11.85206895 Si
    atom 16.96876910 11.57439487 11.85172968 Si
    atom 3.10159190 24.94262124 11.85141181 Si
    atom -20.05119356 16.91829623 11.85065603 Si
    atom 1.53997790 11.58659034 11.84938766 Si
    atom 9.26231059 24.94613436 11.84675981 Si
    atom -1.54808106 11.58153892 11.84159870 Si
    atom -16.97349036 11.58318817 11.83906184 Si
    atom -9.25368511 24.94213961 11.83818784 Si
    atom 1.52610199 16.90438644 11.83807713 Si
    atom 13.87287492 22.29866916 11.83526858 Si
    atom -3.07376918 19.58532690 11.82666301 Si
    atom -9.27977585 8.90782555 11.82621818 Si
    atom 6.19254385 8.90542085 11.82448959 Si
    atom -0.01152722 14.24081039 11.82372189 Si
    atom -12.32660911 24.93808798 11.82330791 Si
    atom 3.07528939 19.57475610 11.82042412 Si
    atom 15.40822233 19.62215774 11.81947080 Si
    atom -15.43765142 8.92622227 11.81940511 Si
    atom -16.96399383 22.26022396 11.81937220 Si
    atom 0.00195342 24.93948131 11.81361265 Si
    atom 6.17629787 3.56885901 11.81361080 Si
    atom -6.19162747 8.90460347 11.81339816 Si
    atom 16.97040744 22.26279893 11.81314340 Si
    atom 21.59073043 19.60166278 11.81306804 Si
    atom 0.00844951 19.60673428 11.81221672 Si
    atom -4.61493699 22.26162489 11.81212057 Si
    atom 13.89183416 11.57165847 11.80107107 Si
    atom 16.95926260 16.92673046 11.79414985 Si
    atom -1.56283411 16.92307517 11.79389167 Si
    atom 4.63355300 22.26630866 11.79331725 Si
    atom 3.07593282 14.24892353 11.79283250 Si
    atom -12.33936487 8.92942821 11.79105261 Si
    atom 10.80087651 22.28388693 11.78827868 Si
    atom -1.54941547 6.23950221 11.78647067 Si
    atom 1.54663864 6.24172503 11.78534087 Si
    atom -4.62677081 27.61387922 11.78453955 Si
    atom 21.59958949 14.25405172 11.78205216 Si
    atom -21.60474165 14.25732910 11.78174593 Si
    atom 4.64013404 11.58495880 11.78023381 Si
    atom 4.62668769 27.61868472 11.78007731 Si
    atom -16.96944710 16.91925036 11.77982986 Si
    atom 15.41667977 14.25182242 11.77553899 Si
    atom -3.09088430 14.24985675 11.77455034 Si
    atom -4.64148498 11.58286962 11.77271392 Si
    atom 7.71921744 22.26577521 11.77196742 Si
    atom -13.87022759 22.25077027 11.77161056 Si
    atom -13.88928301 11.58569072 11.77003084 Si
    atom -7.70803451 22.25972057 11.76847808 Si
    atom 10.81480506 11.57744428 11.76475820 Si
    atom -15.42237586 14.25094278 11.76266777 Si
    atom 7.72112703 11.58036320 11.76248152 Si
    atom -15.40872438 19.59341667 11.76157419 Si
    atom -10.78695449 22.26971746 11.76121094 Si
    atom 3.08667734 3.55906018 11.75461401 Si
    atom 4.62099125 16.91322476 11.75403290 Si
    atom -3.09185473 3.55695708 11.75370089 Si
    atom -1.53321314 27.62122383 11.75355433 Si
    atom 12.33254741 19.61350032 11.75238100 Si
    atom 13.87883384 16.92673274 11.75020898 Si
    atom 1.53214659 27.62348009 11.74997024 Si
    atom 23.14861399 16.93382415 11.74914150 Si
    atom -23.15480118 16.93635151 11.74913551 Si
    atom -7.71599344 11.58334411 11.74885789 Si
    atom 6.17403503 19.59656146 11.74839425 Si
    atom -6.17439636 19.60132985 11.74662234 Si
    atom -0.00244989 3.57673199 11.73656424 Si
    atom 24.67795804 14.25168494 11.73572046 Si
    atom -24.68253495 14.25337177 11.73519319 Si
    atom -13.88159127 16.91302133 11.72941292 Si
    atom -4.63471867 16.92653398 11.72846554 Si
    atom 12.33362471 14.25471105 11.72650156 Si
    atom 6.17631945 14.25754697 11.72609844 Si
    atom -10.80011260 11.58824849 11.72524174 Si
    atom 9.26004366 19.59354403 11.72398608 Si
    atom -1.52626854 0.88463840 11.72184086 Si
    atom 1.52105718 0.88561271 11.72138993 Si
    atom 9.26862006 14.25340164 11.72121214 Si
    atom -0.00251223 30.31400007 11.72061927 Si
    atom -12.31732208 19.58252489 11.71964051 Si
    atom -9.26538821 19.58296329 11.71842956 Si
    atom 7.70613715 16.91744267 11.71748938 Si
    atom 10.79199885 16.93866257 11.71724072 Si
    atom -6.18146975 14.25719869 11.71642165 Si
    atom -12.33173165 14.25676670 11.71267924 Si
    atom -10.79274731 16.94248295 11.71217557 Si
    atom -9.26593878 14.26003304 11.70938589 Si
    atom -7.71272202 16.92000223 11.70720707 Si
    # The carbon layer 4
    #
    atom 7.74533924 6.22549385 13.92300138 C
    atom -7.74946437 6.22451597 13.92183175 C
    atom -1.51580838 22.25876837 13.92155672 C
    atom 3.08387269 8.93832397 13.85054618 C
    atom 18.49053814 14.23359474 13.84593024 C
    atom -3.09321482 8.93234615 13.84290592 C
    atom 6.19803834 24.94477399 13.84199234 C
    atom -6.18885800 24.93809773 13.84069486 C
    atom -18.50463897 14.24022695 13.83563335 C
    atom 12.41612182 8.89943600 13.82359176 C
    atom 4.61739462 6.26709851 13.82242069 C
    atom 18.49410097 19.53054232 13.82220305 C
    atom -3.11094700 24.94585957 13.82186022 C
    atom -4.62427527 6.26237559 13.82179867 C
    atom 1.61245964 22.29928721 13.82111079 C
    atom 9.34321417 8.91393001 13.81046302 C
    atom -18.50352015 19.53307940 13.80927747 C
    atom -20.05473879 16.89173994 13.80851031 C
    atom 20.04403522 16.88672832 13.80742196 C
    atom 3.12585961 24.96327588 13.80732437 C
    atom -20.11110020 11.61839415 13.79535253 C
    atom 20.10833920 11.61135441 13.79509080 C
    atom 16.95909978 11.59446487 13.79504714 C
    atom -0.00748305 8.85474752 13.79344765 C
    atom 1.55864341 11.58096393 13.79060217 C
    atom 1.49944171 16.86144811 13.78972949 C
    atom 13.84367572 22.34659544 13.78627598 C
    atom 9.24582799 24.93450960 13.78534377 C
    atom -1.57939008 11.57420009 13.77935935 C
    atom -16.96828207 11.61580920 13.77602038 C
    atom -9.23499486 24.92165358 13.77397613 C
    atom -3.07208686 19.54600060 13.76742484 C
    atom -9.31899477 8.92983964 13.76667853 C
    atom -0.03327875 14.25466053 13.75536739 C
    atom 3.07573461 19.53352194 13.75516877 C
    atom 15.36717601 19.64566003 13.75395929 C
    atom -12.32739871 24.91205142 13.75129965 C
    atom -15.42136768 8.93959797 13.74818054 C
    atom 6.21548344 8.90238321 13.73646737 C
    atom -16.95284356 22.24790061 13.73300200 C
    atom 6.18235085 3.57220581 13.72761934 C
    atom -4.59925448 22.24618257 13.72586919 C
    atom 21.58222088 19.60507843 13.72520362 C
[...]
  |   Hirshfeld second moments:      0.00541998      -0.00218224      -0.00637015
  |                                 -0.00218224       0.00442945       0.00117693
  |                                 -0.00637015       0.00117693       0.17472012
  ----------------------------------------------------------------------
  | Atom  1627: C
  |   Hirshfeld charge        :     -0.01708878
  |   Free atom volume        :     38.37861207
  |   Hirshfeld volume        :     36.31211254
  |   Hirshfeld dipole vector :      0.00191091      -0.00289623       0.00569531
  |   Hirshfeld dipole moment :      0.00666906
  |   Hirshfeld second moments:      0.00479324       0.00236172      -0.00426422
  |                                  0.00236172       0.00174793      -0.00208041
  |                                 -0.00426422      -0.00208041       0.17544534
  ----------------------------------------------------------------------
  | Atom  1628: C
  |   Hirshfeld charge        :     -0.01395899
  |   Free atom volume        :     38.37861207
  |   Hirshfeld volume        :     36.27062026
  |   Hirshfeld dipole vector :      0.00164926      -0.00245402       0.00734505
  |   Hirshfeld dipole moment :      0.00791783
  |   Hirshfeld second moments:      0.00451877      -0.00198545      -0.00266715
  |                                 -0.00198545       0.00701283      -0.00116339
  |                                 -0.00266715      -0.00116339       0.17345194
  ----------------------------------------------------------------------
  | Atom  1629: C
  |   Hirshfeld charge        :     -0.01569217
  |   Free atom volume        :     38.37861207
  |   Hirshfeld volume        :     36.30807913
  |   Hirshfeld dipole vector :      0.00369223      -0.00285731       0.00742367
  |   Hirshfeld dipole moment :      0.00876970
  |   Hirshfeld second moments:      0.00638210       0.00254679       0.00340738
  |                                  0.00254679       0.00205428      -0.00230215
  |                                  0.00340738      -0.00230215       0.17408772
  ----------------------------------------------------------------------
  | Atom  1630: C
  |   Hirshfeld charge        :     -0.01496227
  |   Free atom volume        :     38.37861207
  |   Hirshfeld volume        :     36.04940245
  |   Hirshfeld dipole vector :      0.00561868      -0.00166202       0.00851070
  |   Hirshfeld dipole moment :      0.01033266
  |   Hirshfeld second moments:      0.00743509      -0.00072519       0.00436406
  |                                 -0.00072519       0.01388450      -0.00074330
  |                                  0.00436406      -0.00074330       0.17412879
  ----------------------------------------------------------------------
  | Atom  1631: C
  |   Hirshfeld charge        :     -0.01430054
  |   Free atom volume        :     38.37861207
  |   Hirshfeld volume        :     35.93923780
  |   Hirshfeld dipole vector :      0.00514186      -0.00075089       0.00624944
  |   Hirshfeld dipole moment :      0.00812761
  |   Hirshfeld second moments:      0.01495318       0.00066187       0.00703107
  |                                  0.00066187       0.00965436      -0.00238724
  |                                  0.00703107      -0.00238724       0.17772647
  ----------------------------------------------------------------------
  | Atom  1632: C
  |   Hirshfeld charge        :     -0.01608136
  |   Free atom volume        :     38.37861207
  |   Hirshfeld volume        :     35.67622326
  |   Hirshfeld dipole vector :      0.00431628      -0.00122688       0.00792521
  |   Hirshfeld dipole moment :      0.00910739
  |   Hirshfeld second moments:      0.01489379      -0.00048406       0.00782051
  |                                 -0.00048406       0.02295624      -0.00302238
  |                                  0.00782051      -0.00302238       0.17676902
  ----------------------------------------------------------------------
  | Atom  1633: C
  |   Hirshfeld charge        :     -0.01573701
  |   Free atom volume        :     38.37861207
  |   Hirshfeld volume        :     35.62250042
  |   Hirshfeld dipole vector :      0.00246448      -0.00007049       0.00852619
  |   Hirshfeld dipole moment :      0.00887550
  |   Hirshfeld second moments:      0.02215659       0.00016936       0.00472004
  |                                  0.00016936       0.01856257      -0.00538188
  |                                  0.00472004      -0.00538188       0.17684362
  ----------------------------------------------------------------------
  | Atom  1634: C
  |   Hirshfeld charge        :     -0.01780825
  |   Free atom volume        :     38.37861207
  |   Hirshfeld volume        :     35.44137040
  |   Hirshfeld dipole vector :      0.00361125      -0.00085979       0.01062142
  |   Hirshfeld dipole moment :      0.01125144
  |   Hirshfeld second moments:      0.02239579      -0.00076378       0.00127848
  |                                 -0.00076378       0.02737343      -0.00732893
  |                                  0.00127848      -0.00732893       0.17590497
  ----------------------------------------------------------------------
  | Atom  1635: C
  |   Hirshfeld charge        :     -0.01594163
  |   Free atom volume        :     38.37861207
  |   Hirshfeld volume        :     35.35927257
  |   Hirshfeld dipole vector :      0.00077221      -0.00077531       0.01067628
  |   Hirshfeld dipole moment :      0.01073222
  |   Hirshfeld second moments:      0.02610335      -0.00016404      -0.00006810
  |                                 -0.00016404       0.02561385      -0.00786492
  |                                 -0.00006810      -0.00786492       0.17921654
  ----------------------------------------------------------------------
  | Atom  1636: C
  |   Hirshfeld charge        :     -0.01686857
  |   Free atom volume        :     38.37861207
  |   Hirshfeld volume        :     35.32102231
  |   Hirshfeld dipole vector :      0.00140405      -0.00212148       0.01275406
  |   Hirshfeld dipole moment :      0.01300531
  |   Hirshfeld second moments:      0.02650592      -0.00103952      -0.00062344
  |                                 -0.00103952       0.02979985      -0.00971106
  |                                 -0.00062344      -0.00971106       0.17610928
  ----------------------------------------------------------------------
  | Atom  1637: C
  |   Hirshfeld charge        :     -0.01598052
  |   Free atom volume        :     38.37861207
  |   Hirshfeld volume        :     35.41521221
  |   Hirshfeld dipole vector :     -0.00185460      -0.00182642       0.01385001
  |   Hirshfeld dipole moment :      0.01409248
  |   Hirshfeld second moments:      0.02448092       0.00068747      -0.00122984
  |                                  0.00068747       0.02738360      -0.00960374
  |                                 -0.00122984      -0.00960374       0.17603912
  ----------------------------------------------------------------------
  | Atom  1638: C
  |   Hirshfeld charge        :     -0.01576687
  |   Free atom volume        :     38.37861207
  |   Hirshfeld volume        :     35.45632690
  |   Hirshfeld dipole vector :      0.00017567      -0.00286956       0.01243630
  |   Hirshfeld dipole moment :      0.01276427
  |   Hirshfeld second moments:      0.02507968      -0.00192072      -0.00093322
  |                                 -0.00192072       0.02458795      -0.01101018
  |                                 -0.00093322      -0.01101018       0.17654549
  ----------------------------------------------------------------------
  | Atom  1639: C
  |   Hirshfeld charge        :     -0.01468516
  |   Free atom volume        :     38.37861207
  |   Hirshfeld volume        :     35.61990553
  |   Hirshfeld dipole vector :     -0.00276842      -0.00280857       0.01275793
  |   Hirshfeld dipole moment :      0.01335354
  |   Hirshfeld second moments:      0.01842827       0.00091258       0.00047842
  |                                  0.00091258       0.02370297      -0.00735886
  |                                  0.00047842      -0.00735886       0.17665379
  ----------------------------------------------------------------------
  | Atom  1640: C
  |   Hirshfeld charge        :     -0.01476593
  |   Free atom volume        :     38.37861207
  |   Hirshfeld volume        :     35.82150579
  |   Hirshfeld dipole vector :     -0.00288945      -0.00257131       0.01171112
  |   Hirshfeld dipole moment :      0.01233333
  |   Hirshfeld second moments:      0.01888490      -0.00115242       0.00342185
  |                                 -0.00115242       0.01469904      -0.00523154
  |                                  0.00342185      -0.00523154       0.17420915
  ----------------------------------------------------------------------
  | Atom  1641: C
  |   Hirshfeld charge        :     -0.01488597
  |   Free atom volume        :     38.37861207
  |   Hirshfeld volume        :     36.00437824
  |   Hirshfeld dipole vector :     -0.00261357      -0.00186240       0.01062132
  |   Hirshfeld dipole moment :      0.01109557
  |   Hirshfeld second moments:      0.00992347       0.00171788       0.00466137
  |                                  0.00171788       0.01425750      -0.00315445
  |                                  0.00466137      -0.00315445       0.17496126
  ----------------------------------------------------------------------
  | Atom  1642: C
  |   Hirshfeld charge        :     -0.01426378
  |   Free atom volume        :     38.37861207
  |   Hirshfeld volume        :     36.16738143
  |   Hirshfeld dipole vector :     -0.00318927       0.00022974       0.00740441
  |   Hirshfeld dipole moment :      0.00806533
  |   Hirshfeld second moments:      0.00998220       0.00009878       0.00732277
  |                                  0.00009878       0.00611443       0.00164883
  |                                  0.00732277       0.00164883       0.17385134
  ----------------------------------------------------------------------
  | Atom  1643: C
  |   Hirshfeld charge        :     -0.01673935
  |   Free atom volume        :     38.37861207
  |   Hirshfeld volume        :     36.25315201
  |   Hirshfeld dipole vector :     -0.00227508      -0.00092330       0.00647045
  |   Hirshfeld dipole moment :      0.00692064
  |   Hirshfeld second moments:      0.00446686       0.00124996       0.00730921
  |                                  0.00124996       0.00582495       0.00342263
  |                                  0.00730921       0.00342263       0.17519345
  ----------------------------------------------------------------------
  | Atom  1644: C
  |   Hirshfeld charge        :     -0.01877640
  |   Free atom volume        :     38.37861207
  |   Hirshfeld volume        :     36.37417888
  |   Hirshfeld dipole vector :     -0.00204211       0.00144217       0.00381900
  |   Hirshfeld dipole moment :      0.00456452
  |   Hirshfeld second moments:      0.00300788       0.00197820       0.00488592
  |                                  0.00197820       0.00050767       0.00544720
  |                                  0.00488592       0.00544720       0.17460099
  ----------------------------------------------------------------------
  | Atom  1645: C
  |   Hirshfeld charge        :     -0.02167764
  |   Free atom volume        :     38.37861207
  |   Hirshfeld volume        :     36.38105724
  |   Hirshfeld dipole vector :     -0.00007857       0.00098492       0.00599766
  |   Hirshfeld dipole moment :      0.00607849
  |   Hirshfeld second moments:      0.00224744      -0.00011737       0.00289217
  |                                 -0.00011737       0.00160131       0.00497225
  |                                  0.00289217       0.00497225       0.17297425
  ----------------------------------------------------------------------
  | Atom  1646: C
  |   Hirshfeld charge        :     -0.02173910
  |   Free atom volume        :     38.37861207
  |   Hirshfeld volume        :     36.41624588
  |   Hirshfeld dipole vector :     -0.00017778       0.00244874       0.00799940
  |   Hirshfeld dipole moment :      0.00836770
  |   Hirshfeld second moments:      0.00252942       0.00139071       0.00179833
  |                                  0.00139071       0.00215874       0.00463247
  |                                  0.00179833       0.00463247       0.17007185
  ----------------------------------------------------------------------
  | Atom  1647: C
  |   Hirshfeld charge        :     -0.02236696
  |   Free atom volume        :     38.37861207
  |   Hirshfeld volume        :     36.35645461
  |   Hirshfeld dipole vector :      0.00067576       0.00085993       0.00700962
  |   Hirshfeld dipole moment :      0.00709442
  |   Hirshfeld second moments:      0.00433397      -0.00064822       0.00073480
  |                                 -0.00064822       0.00218567       0.00323026
  |                                  0.00073480       0.00323026       0.17158179
  ----------------------------------------------------------------------
  | Atom  1648: C
  |   Hirshfeld charge        :     -0.02217746
  |   Free atom volume        :     38.37861207
  |   Hirshfeld volume        :     36.32745236
  |   Hirshfeld dipole vector :      0.00075473       0.00056545       0.00648321
  |   Hirshfeld dipole moment :      0.00655144
  |   Hirshfeld second moments:      0.00398269       0.00012426      -0.00211417
  |                                  0.00012426       0.00396790       0.00357733
  |                                 -0.00211417       0.00357733       0.17200733
  ----------------------------------------------------------------------

  Converging periodic supercell size for vdw calculation.
  Convergence accuracy (and time!) can be adjusted using the vdw_convergence_threshold keyword.
  | Shell number:     1
  |   VDW energy change:  -0.518510E+02 eV.
  |   Not converged.
  | Shell number:     2
  |   VDW energy change:  -0.361700E-01 eV.
  |   Not converged.
  | Shell number:     3
  |   VDW energy change:  -0.475689E-02 eV.
  |   Not converged.
  | Shell number:     4
  |   VDW energy change:  -0.136315E-02 eV.
  |   Not converged.
  | Shell number:     5
  |   VDW energy change:  -0.535707E-03 eV.
  |   Not converged.
  | Shell number:     6
  |   VDW energy change:  -0.252764E-03 eV.
  |   Not converged.
  | Shell number:     7
  |   VDW energy change:  -0.134674E-03 eV.
  |   Not converged.
  | Shell number:     8
  |   VDW energy change:  -0.782850E-04 eV.
  |   Not converged.
  | Shell number:     9
  |   VDW energy change:  -0.485946E-04 eV.
  |   Not converged.
  | Shell number:    10
  |   VDW energy change:  -0.317534E-04 eV.
  |   Not converged.
  | Shell number:    11
  |   VDW energy change:  -0.216229E-04 eV.
  |   Not converged.
  | Shell number:    12
  |   VDW energy change:  -0.152324E-04 eV.
  |   Converged.

  Total energy components:
  | Sum of eigenvalues            :      -95007.33494857 Ha    -2585281.12160589 eV
  | XC energy correction          :      -15078.47550748 Ha     -410306.19470781 eV
  | XC potential correction       :       19435.23166038 Ha      528859.56155710 eV
  | Free-atom electrostatic energy:      -75224.50722774 Ha    -2046962.98999709 eV
  | Hartree energy correction     :       -1929.41199814 Ha      -52501.97174032 eV
  | vdW energy correction         :         -10.36313513 Ha        -281.99525468 eV
  | Entropy correction            :          -0.04507094 Ha          -1.22644259 eV
  | ---------------------------
  | Total energy                  :     -167814.86115669 Ha    -4566474.71174868 eV
  | Total energy, T -> 0          :     -167814.90622762 Ha    -4566475.93819127 eV  <-- do not rely on this value for anything but (periodic) metals
  | Electronic free energy        :     -167814.95129856 Ha    -4566477.16463386 eV

  Derived energy quantities:
  | Kinetic energy                :      167942.83316371 Ha     4569957.00723708 eV
  | Electrostatic energy          :     -320668.85567779 Ha    -8725843.52902327 eV
  | Energy correction for multipole
  | error in Hartree potential    :          -5.28986714 Ha        -143.94460862 eV
  | Sum of eigenvalues per atom                           :       -1568.73854466 eV
  | Total energy (T->0) per atom                          :       -2770.91986541 eV  <-- do not rely on this value for anything but (periodic) metals
  | Electronic free energy per atom                       :       -2770.92060961 eV
  Timings for VdW correction (Tkatchenko-Scheffler 2009 or later):
  | CPU time:      240.575 s, Wall clock time:      241.149 s.

  Energy and forces in a compact form:
  | Total energy uncorrected      :         -0.456647471174868E+07 eV
  | Total energy corrected        :         -0.456647593819127E+07 eV  <-- do not rely on this value for anything but (periodic) metals
  | Electronic free energy        :         -0.456647716463386E+07 eV

  ------------------------------------ 
  Start decomposition of the XC Energy 
  ------------------------------------ 
  Hartree-Fock part   :          0.000000000 Ha              0.000000000 eV
  ------------------------------------ 
  X Energy            :     -14599.186391119 Ha        -397264.074275896 eV
  C Energy GGA        :       -479.289116359 Ha         -13042.120431907 eV
  Total XC Energy     :     -15078.475507478 Ha        -410306.194707804 eV
  LDA X and C from self-consistent density 
  X Energy LDA        :     -13410.776620586 Ha        -364925.799066378 eV
  C Energy LDA        :       -912.552908898 Ha         -24831.828080629 eV
  ------------------------------------ 
  End decomposition of the XC Energy 
  ------------------------------------ 

 ***********************************************************
 *
 * WARNING! SELF-CONSISTENCY CYCLE DID NOT CONVERGE
 * USING YOUR PRESELECTED ACCURACY CRITERIA.
 * DO NOT RELY ON ANY FINAL DATA WITHOUT FURTHER CHECKS.
 *
 ***********************************************************
 * NO POSTPROCESSING WILL BE DONE
 * IF YOU WANT POSTPROCESSING ANYWAY, SET postprocess_anyway TO .true.
 ***********************************************************

------------------------------------------------------------
          Leaving FHI-aims.
          Date     :  20161204, Time     :  163928.052

          Computational steps:
          | Number of self-consistency cycles          :            2

          Detailed time accounting                     :  max(cpu_time)    wall_clock(cpu1)
          | Total time                                 :     3971.196 s        3982.937 s
          | Preparation time                           :        0.324 s           2.874 s
          | Grid partitioning                          :      109.735 s         109.989 s
          | Preloading free-atom quantities on grid    :        0.036 s           0.035 s
          | Free-atom superposition energy             :        7.088 s           7.105 s
          | Total time for integrations                :      526.921 s         528.151 s
          | Total time for solution of K.-S. equations :     2001.001 s        2006.392 s
          | Total time for density update              :      588.153 s         589.529 s
          | Total time for mixing & preconditioning    :       71.248 s          71.463 s
          | Total time for Hartree multipole update    :        0.756 s           0.754 s
          | Total time for Hartree multipole sum       :      275.845 s         276.551 s
          | Total time for total energy evaluation     :        0.012 s           0.021 s
          | Total time for scaled ZORA corrections     :        0.000 s           0.000 s
          | Total time for vdW correction              :      240.575 s         241.149 s

------------------------------------------------------------
 *** scf_solver: SCF cycle not converged.
