  MPI-parallelism will be employed.
------------------------------------------------------------
          Invoking FHI-aims ...

          When using FHI-aims, please cite the following reference:

          Volker Blum, Ralf Gehrke, Felix Hanke, Paula Havu,
          Ville Havu, Xinguo Ren, Karsten Reuter, and Matthias Scheffler,
          'Ab Initio Molecular Simulations with Numeric Atom-Centered Orbitals',
          Computer Physics Communications 180, 2175-2196 (2009)

          For any questions about FHI-aims, please visit the aimsclub website
          with its forums and wiki. Contributions to both the forums and the
          wiki are warmly encouraged - they are for you, and everyone is welcome there.

------------------------------------------------------------



  Date     :  20190817, Time     :  153210.191
  Time zero on CPU 1             :   0.417020000000000E-01  s.
  Internal wall clock time zero  :           335287930.191  s.

  FHI-aims created a unique identifier for this run for later identification
  aims_uuid : CB8457A9-19F2-49E0-ABFD-8A7596A23094

  Build configuration of the current instance of FHI-aims
  -------------------------------------------------------
  FHI-aims version      : 190813
  Commit number         : 3da7baeb3
  CMake host system     : Linux-4.4.180-94.97-default
  CMake version         : 3.5.2
  Fortran compiler      : /mpcdf/soft/SLE_12_SP3/packages/x86_64/intel_parallel_studio/2018.4/compilers_and_libraries_2018.5.274/linux/mpi/bin64/mpiifort (Intel) version 18.0.5.20180823
  Fortran compiler flags: -O3 -ip -fp-model precise
  C compiler            : /mpcdf/soft/SLE_12_SP3/packages/skylake/intel/18.0.5/bin/icc (Intel) version 18.0.5.20180823
  C compiler flags      : -O3 -ip -fp-model precise
  Architecture          :
  Using MPI
  Using Scalapack
  Using C files
  Using SPGlib
  Using i-PI
  Linking against: /mpcdf/soft/SLE_12_SP3/packages/x86_64/anaconda/3.5.1.0/lib/libmkl_intel_lp64.so
                   /mpcdf/soft/SLE_12_SP3/packages/x86_64/anaconda/3.5.1.0/lib/libmkl_sequential.so
                   /mpcdf/soft/SLE_12_SP3/packages/x86_64/anaconda/3.5.1.0/lib/libmkl_core.so
                   /mpcdf/soft/SLE_12_SP3/packages/x86_64/anaconda/3.5.1.0/lib/libmkl_blacs_intelmpi_lp64.so
                   /mpcdf/soft/SLE_12_SP3/packages/x86_64/anaconda/3.5.1.0/lib/libmkl_scalapack_lp64.so

  Using        8 parallel tasks.
  Task        0 on host co1631 reporting.
  Task        1 on host co1631 reporting.
  Task        2 on host co1631 reporting.
  Task        3 on host co1631 reporting.
  Task        4 on host co1631 reporting.
  Task        5 on host co1631 reporting.
  Task        6 on host co1631 reporting.
  Task        7 on host co1631 reporting.

  Performing system and environment tests:
  | Environment variable OMP_NUM_THREADS correctly set to 1.
  | Maximum stacksize for task 0: unlimited
  | Maximum stacksize for task 1: unlimited
  | Maximum stacksize for task 2: unlimited
  | Maximum stacksize for task 3: unlimited
  | Maximum stacksize for task 4: unlimited
  | Maximum stacksize for task 5: unlimited
  | Maximum stacksize for task 6: unlimited
  | Maximum stacksize for task 7: unlimited
  | Current stacksize for task 0: unlimited
  | Current stacksize for task 1: unlimited
  | Current stacksize for task 2: unlimited
  | Current stacksize for task 3: unlimited
  | Current stacksize for task 4: unlimited
  | Current stacksize for task 5: unlimited
  | Current stacksize for task 6: unlimited
  | Current stacksize for task 7: unlimited
  | Checking for scalapack...
  | Testing pdtran()...
  | All pdtran() tests passed.

  Obtaining array dimensions for all initial allocations:
  
  -----------------------------------------------------------------------
  Parsing control.in (first pass over file, find array dimensions only).
  The contents of control.in will be repeated verbatim below
  unless switched off by setting 'verbatim_writeout .false.' .
  in the first line of control.in .
  -----------------------------------------------------------------------
  
  #  Volker Blum, FHI 2008 : Input file for FHI-aims
  #
  #  WARNING - spd basis used, DO NOT use for production!!
  #
    xc                	   pbe0
  #    use_logsbt .false.
    relativistic      	   none
      override_relativity    .true.    # this becomes a testcase for said flag.
    spin              	   collinear
    charge                   1.0
  #  RI_method                LVL
  #
  #  KS_method         	   lapack
      empty_states      	   10
      basis_threshold   	   0.e-5
    sc_accuracy_rho  	   1E-6
    sc_accuracy_eev          1E-4
    sc_accuracy_etot         1E-6
  #
    occupation_type   	   gaussian 0.01
    mixer             	   pulay
      n_max_pulay       	   12
      charge_mix_param  	   0.6
      spin_mix_param    	   1.0
    sc_iter_limit    3
    #  preconditioner kerker  3.0
    #  preconditioner turnoff charge 1.e-4
    #  precondition_max_l     4
  
    postprocess_anyway 1
  
  #
  #  * Next, specify output options:
     output       dipole
     output       quadrupole
     output       mulliken
     output	hirshfeld
     output cube total_density
          cube filename total_density.cube
     	cube origin 0.666 0.0 1.026
          cube edge 64 0.2 0.0 0.0
          cube edge 64 0.0 0.2 0.0
          cube edge 64 0.0 0.0 0.2
     output cube spin_density
            cube filename  spin_density.cube
  
  postprocess_anyway 1
  
  #
  ################################################################################
  #
  #  FHI-aims code project
  #  VB, Fritz-Haber Institut, 2007
  #
  #  Suggested "safe" defaults for V atom (to be pasted into control.in file)
  #  All values have been tested for a non-relativistic, non-spinpolarized V2
  #  molecule using the PW-LDA functional. Validity for PBE is expected.
  #
  #  Constructed for dimers: 1.45 A, 1.65 A, 2.25 A, 3.00 A, 4.00 A
  #
  ################################################################################
    species        V
  #     global species definitions
      nucleus             23
      cut_pot             4.0          2.0  1.0
      cut_free_atom       finite 8.0
      logarithmic         0.000100 100.00  1.0123
      radial_base         49 7.0
      radial_multiplier   2
  #   here is a suggested (too dense!) specified angular grid, just in case.
      angular_grids       specified
        division   0.1184  110
        division   0.5683  302
  #      division   0.7154  590
  #      division   0.8163  770
  #      division   2.5319  974
  #      outer_grid  974
        outer_grid  434
      l_hartree           6
  ################################################################################
  #
  #  Definition of "minimal" basis
  #
  ################################################################################
  #     valence basis states
      valence      4  s   2.
      valence      3  p   6.
      valence      3  d   3.
  #     ion occupancy
      ion_occ      4  s   1.
      ion_occ      3  p   6.
      ion_occ      3  d   2.
  ################################################################################
  #
  #  Suggested additional basis functions. For production calculations,
  #  uncomment them one after another (the most important basis functions are
  #  listed first).
  #
  #  VB: Comments on the basis set generation
  #      Tier 1: Had to add in the s function by hand - too strongly correlated
  #              with high-l basis functions
  #      Tier 2: This tier is unusual; it does seem to require two f and two d
  #              functions. Thus, this tier is unpleasantly large!
  #      Tier 3: as is
  #      Basis set generation could be continued thereafter if needed.
  #
  ################################################################################
  #  "First tier" - improvements: -573.19 meV to -17.48 meV (hydro 4 f would
  #                 have yielded -26.60 meV instead)
  #     hydro 4 f 9
       hydro 3 d 3
       ionic 4 p auto
  #     hydro 5 g 12.8
       ionic 4 s auto
  #  "Second tier" - improvements: -21.58 meV to -1.18 meV
  #     hydro 3 d 5.4
  #     hydro 5 f 11.2
  #     hydro 6 h 18.4
  #     hydro 4 d 7
  #     hydro 4 f 11.2
  #     hydro 4 p 5.6
  #     hydro 5 g 14
  #     hydro 1 s 0.6
  #  "Third tier" - improvements: -0.56 meV to -0.32 meV
  #     hydro 3 d 8.8
  #     hydro 4 p 7.8
  #     hydro 6 h 18.8
  #     hydro 4 f 20
  #     hydro 4 s 4
  
  
  -----------------------------------------------------------------------
  Completed first pass over input file control.in .
  -----------------------------------------------------------------------
  
  
  -----------------------------------------------------------------------
  Parsing geometry.in (first pass over file, find array dimensions only).
  The contents of geometry.in will be repeated verbatim below
  unless switched off by setting 'verbatim_writeout .false.' .
  in the first line of geometry.in .
  -----------------------------------------------------------------------
  
   atom     0.000000     0.000000     0.000000    V
  initial_moment -1.045553
  initial_charge 0.318408
   atom     1.938778     0.000000     0.929323    V
  initial_moment 1.530289
  initial_charge 0.341239
   atom     0.059922     0.000000     2.148953    V
  initial_moment 1.515263
  initial_charge 0.340353
  
  
  -----------------------------------------------------------------------
  Completed first pass over input file geometry.in .
  -----------------------------------------------------------------------
  

  Basic array size parameters:
  | Number of species                 :        1
  | Number of atoms                   :        3
  | Max. basis fn. angular momentum   :        2
  | Max. atomic/ionic basis occupied n:        4
  | Max. number of basis fn. types    :        3
  | Max. radial fns per species/type  :        7
  | Max. logarithmic grid size        :     1387
  | Max. radial integration grid size :       99
  | Max. angular integration grid size:      434
  | Max. angular grid division number :        8
  | Radial grid for Hartree potential :     1387
  | Number of spin channels           :        2
  | Cube type output requested        :        2

------------------------------------------------------------
          Reading file control.in.
------------------------------------------------------------
  XC: Using hybrid-PBE0 functionals.
  Non-relativistic treatment of kinetic energy.
  override_relativity: Explicitly overriding any built-in relativity checks.
  If you use this flag, you should really know what you are doing.
  Spin treatment: Spin density functional theory - collinear spins.
  Charged system requested: Charge =   0.100000E+01.
  Number of empty states per atom:       10
  Threshold for basis singularities:  0.0000E+00
  Convergence accuracy of self-consistent charge density:  0.1000E-05
  Convergence accuracy of sum of eigenvalues:  0.1000E-03
  Convergence accuracy of total energy:  0.1000E-05
  Occupation type: Gaussian broadening, width =   0.100000E-01 eV.
  Using pulay charge density mixing.
  Pulay mixing - number of memorized iterations:   12
  Charge density mixing - mixing parameter:     0.6000
  Spin density mixing - mixing parameter:     1.0000
  Maximum number of s.-c. iterations  :     3
  Postprocessing will be performed even if SCF does not converge.
  Dipole moment will be written out.
  quadrupole moment will be written out.
  Full Mulliken charge analysis will be written to file 'Mulliken.out'.
  Hirshfeld charge analysis will be performed.
  'cube'-style plottable output required: Total charge density. 
  | Cube output options:
 Standard cube format requested.
 Standard cube format requested.
  'cube'-style plottable output required: spin density. 
  | Cube output options:
 * Cube origin was not provided following cube request. Will be using default value.
 * Cube edges were not provided following cube request. Defaults will be used.
 Standard cube format requested.
 Standard cube format requested.
  Postprocessing will be performed even if SCF does not converge.
 
  Reading configuration options for species V                   .
  | Found nuclear charge :  23.0000
  | Found cutoff potl. onset [A], width [A], scale factor :    4.00000    2.00000    1.00000
  | Found cutoff specification for free atom: Cutoff potential begins at    8.00000 A.
  | Found logarithmic grid data [bohr] : 0.1000E-03 0.1000E+03 0.1012E+01
  | Found data for basic radial integration grid :    49 points, outermost radius =    7.000 A
  | Found multiplier for basic radial grid :   2
  | Found angular grid specification: user-specified.
  | Specified grid contains     3 separate shells.
  | Check grid settings after all constraints further below.
  | Found l_max for Hartree potential  :   6
  | Found free-atom valence shell :  4 s   2.000
  | Found free-atom valence shell :  3 p   6.000
  | Found free-atom valence shell :  3 d   3.000
  | Found free-ion valence shell :  4 s   1.000
  | Found free-ion valence shell :  3 p   6.000
  | Found free-ion valence shell :  3 d   2.000
  | Found hydrogenic basis function :  3 d   3.000
  | Found ionic basis function :  4 p , default cutoff radius.
  | Found ionic basis function :  4 s , default cutoff radius.
  Species V                   : Missing cutoff potential type.
  Defaulting to exp(1/x)/(1-x)^2 type cutoff potential.
  | Will include ionic basis functions of  2.0-fold positive V                    ion.
  Species V : On-site basis accuracy parameter (for Gram-Schmidt orthonormalisation) not specified.
  Using default value basis_acc =  0.1000000E-03.
  Species V                   : Using default innermost maximum threshold i_radial=  2 for radial functions.
  Species V                   : Basic radial grid will be enhanced according to radial_multiplier =   2, to contain    99 grid points.
 
  Finished reading input file 'control.in'. Consistency checks are next.
 
  MPI_IN_PLACE appears to work with this MPI implementation.
  | Keeping use_mpi_in_place .true. (see manual).
  Explicit treatment of the Coulomb operator is needed, but the RI method is not specified.
  Coulomb operator: Defaulting to 'LVL fast' resolution of identity - RI_type = LVL_fast 
  Species V: Using default value for prodbas_acc =   1.000000E-04.
  Species V: Using default value max_l_prodbas =    20.
  Target number of points in a grid batch is not set. Defaulting to  100
  Method for grid partitioning is not set. Defaulting to parallel hash+maxmin partitioning.
  Batch size limit is not set. Defaulting to    200
  By default, will store active basis functions for each batch.
  If in need of memory, prune_basis_once .false. can be used to disable this option.
  communication_type for Hartree potential was not specified.
  Defaulting to calc_hartree .
  Pulay mixer: Number of initial linear mixing iterations not set.
  Defaulting to    0 iterations.
  Work space size for distributed Hartree potential not set.
  Defaulting to   0.200000E+03 MB.
  Algorithm-dependent basis array size parameters:
  | n_max_pulay                         :       12
  Presetting      1001 iterations before the initial mixing cycle
  is restarted anyway using the sc_init_iter criterion / keyword.
  Presetting a factor      1.000 between actual scf density residual
  and density convergence criterion sc_accuracy_rho below which sc_init_iter
  takes no effect.
  Calculation of forces was not defined in control.in. No forces will be calculated.
  Geometry relaxation not requested: no relaxation will be performed.
  No accuracy limit for integral partition fn. given. Defaulting to  0.1000E-14.
  No threshold value for u(r) in integrations given. Defaulting to  0.1000E-05.
  No accuracy for occupation numbers given. Defaulting to  0.1000E-12.
  No threshold value for occupation numbers given. Defaulting to  0.0000E+00.
  No accuracy for fermi level given. Defaulting to  0.1000E-19.
  Maximum # of iterations to find E_F not set. Defaulting to  200.
  Preferred method for the eigenvalue solver ('KS_method') not specified in 'control.in'.
  Calling BLACS routine to test compilation state
  Since ScaLAPACK support is enabled, defaulting to ELPA (via ELSI).
  Will not use alltoall communication since running on < 1024 CPUs.
  partition_type (choice of integration weights) for integrals was not specified.
  | Using a version of the partition function of Stratmann and coworkers ('stratmann_sparse').
  | At each grid point, the set of atoms used to build the partition table is smoothly restricted to
  | only those atoms whose free-atom density would be non-zero at that grid point.
  Partitioning for Hartree potential was not defined. Using partition_type for integrals.
  | Adjusted default value of keyword multip_moments_threshold to:       0.10000000E-11
  | This value may affect high angular momentum components of the Hartree potential in periodic systems.
  Threshold for auxiliary basis singularities not set.
  Default threshold for auxiliary basis singularities:  0.1000E-04
  No q(lm)/r^(l+1) cutoff set for long-range Hartree potential.
  | Using default value of  0.100000E-09 .
  | Verify using the multipole_threshold keyword.
  Defaulting to new monopole extrapolation.
  Density update method: automatic selection selected.
  Coulomb operator: Defaulting to screening threshold for four-center integrals:   0.100000E-06
  Coulomb operator: Defaulting to screening threshold for Coulomb matrix:   0.100000E-09
  Coulomb operator: Defaulting to 'LVL_fast' resolution of identity - RI_type = LVL_fast 
  No other resolution of identity version is supported for periodic boundary conditions at present.
  Coulomb operator: Defaulting to logarithmic spherical Bessel transform integrals (use_logsbt .true.).
  Charge integration errors on the 3D integration grid will be compensated
  by explicit normalization and distribution of residual charges.
  Use the "compensate_multipole_errors" flag to change this behaviour.
  LVL not implemented with density matrix yet
  -> switching to transformed overlap
  LVL probably works better with logsbt
  Default to 1D ("use_logsbt") integrations for auxiliary 2-center integrals.
  Default onset of logarithmic r-grid for SBT is-38.000000000000
  Default onset of logarithmic k-grid for SBT is-25.000000000000
  Default range of logarithmic r- and k-grid for SBT is 45.000000000000
  Default number of logarithmic r- and k-grid for SBT is  4096
  Default of use_2d_corr is to use the efficient 2D distribution where possible
  * Volumetric cube output requested. Tightening default wave_threshold to 1d-8
------------------------------------------------------------


------------------------------------------------------------
          Reading geometry description geometry.in.
------------------------------------------------------------
 * Warning! You are trying to treat an element beyond Ca (Z=20) without
 * accounting for relativity. This may lead to physically incorrect results.
 * If you know what you are doing, you may override this warning using the
 * flag override_relativity in control.in.
 * Else, please use the keyword 'relativistic atomic_zora scalar' (for relaxation) or
 * 'relativistic zora scalar 1e-12' as described in the documentation.
 *
 * Additional information about a change made 04/05/2010 (will be removed 2011):
 * Since there is no harm in using atomic_zora, we now mandate relativity also
 * for the 3d elements. Apologies to all those whom this affects for the first time.
 * Of course, any older nonrelativistic total energies for these elements must never
 * be compared (added or subtracted) directly to atomic_zora results.
  Input structure read successfully.
  The structure contains        3 atoms,  and a total of         68.000 electrons.

  Input geometry:
  | No unit cell requested.
  | Atomic structure:
  |       Atom                x [A]            y [A]            z [A]
  |    1: Species V             0.00000000        0.00000000        0.00000000
  |    2: Species V             1.93877800        0.00000000        0.92932300
  |    3: Species V             0.05992200        0.00000000        2.14895300
  | The smallest distance between any two atoms is         2.14978828 AA.
  | The first atom of this pair is atom number                      1 .
  | The second atom of this pair is atom number                     3 .

  Initial moments and charges:
  |  Atom   Moment         Charge        Species
  |     1  -0.104555E+01   0.318408E+00   V
  |     2   0.153029E+01   0.341239E+00   V
  |     3   0.151526E+01   0.340353E+00   V

  Structure-dependent array size parameters: 
  | Number of distinct atom types in initial rho :        3
  | Maximum number of distinct radial functions  :       10
  | Maximum number of basis functions            :       72
  | Number of Kohn-Sham states (occupied + empty):       49
------------------------------------------------------------
  Setting Coulomb cut-width to  1.091868692359 * rcut.
  Setting Coulomb cutting radius rcut to  8.000000000000 A.

------------------------------------------------------------
          Preparing all fixed parts of the calculation.
------------------------------------------------------------
  Determining machine precision:
    2.225073858507201E-308
  Setting up grids for atomic and cluster calculations.

  Creating wave function, potential, and density for free atoms.

  Species: V

  List of occupied orbitals and eigenvalues:
    n    l              occ      energy [Ha]    energy [eV]
    1    0           2.0000      -195.713583     -5325.6376
    2    0           2.0000       -21.871157      -595.1445
    3    0           2.0000        -2.541555       -69.1592
    4    0           2.0000        -0.170788        -4.6474
    2    1           6.0000       -18.447581      -501.9842
    3    1           6.0000        -1.613301       -43.9002
    3    2           3.0000        -0.196465        -5.3461

  Spin-polarized or charged system:
  Charge density initialized according to selected moments and charges.

  Creating spin-polarized density from free atoms.

  Species: V
  Charge:   0.318408
  Moment:  -1.045553

  List of occupied orbitals and eigenvalues:
    n    l      energy [Ha]    energy [eV]    occupation
  Spin-up
    1    0      -195.853174     -5329.4360     1.00000000
    2    0       -22.011595      -598.9660     1.00000000
    3    0        -2.660411       -72.3935     1.00000000
    4    0        -0.247028        -6.7220     1.00000000
    2    1       -18.588948      -505.8310     3.00000000
    3    1        -1.730346       -47.0851     3.00000000
    3    2        -0.305095        -8.3021     0.81801950
  Spin-down
    1    0      -195.853036     -5329.4323     1.00000000
    2    0       -22.025202      -599.3362     1.00000000
    3    0        -2.698389       -73.4269     1.00000000
    4    0        -0.255839        -6.9617     1.00000000
    2    1       -18.599272      -506.1119     3.00000000
    3    1        -1.767681       -48.1010     3.00000000
    3    2        -0.338023        -9.1981     1.86357250


  Species: V
  Charge:   0.341239
  Moment:   1.530289

  List of occupied orbitals and eigenvalues:
    n    l      energy [Ha]    energy [eV]    occupation
  Spin-up
    1    0      -195.861785     -5329.6704     1.00000000
    2    0       -22.037475      -599.6702     1.00000000
    3    0        -2.715912       -73.9037     1.00000000
    4    0        -0.263922        -7.1817     1.00000000
    2    1       -18.610753      -506.4243     3.00000000
    3    1        -1.784971       -48.5715     3.00000000
    3    2        -0.353920        -9.6307     2.09452500
  Spin-down
    1    0      -195.861988     -5329.6759     1.00000000
    2    0       -22.017524      -599.1273     1.00000000
    3    0        -2.660172       -72.3870     1.00000000
    4    0        -0.250964        -6.8291     1.00000000
    2    1       -18.595615      -506.0124     3.00000000
    3    1        -1.730176       -47.0805     3.00000000
    3    2        -0.305561        -8.3147     0.56423600


  Species: V
  Charge:   0.340353
  Moment:   1.515263

  List of occupied orbitals and eigenvalues:
    n    l      energy [Ha]    energy [eV]    occupation
  Spin-up
    1    0      -195.861439     -5329.6609     1.00000000
    2    0       -22.037016      -599.6577     1.00000000
    3    0        -2.715294       -73.8869     1.00000000
    4    0        -0.263623        -7.1735     1.00000000
    2    1       -18.610318      -506.4125     3.00000000
    3    1        -1.784361       -48.5549     3.00000000
    3    2        -0.353357        -9.6153     2.08745500
  Spin-down
    1    0      -195.861640     -5329.6664     1.00000000
    2    0       -22.017262      -599.1202     1.00000000
    3    0        -2.660107       -72.3852     1.00000000
    4    0        -0.250794        -6.8245     1.00000000
    2    1       -18.595331      -506.0047     3.00000000
    3    1        -1.730110       -47.0787     3.00000000
    3    2        -0.305479        -8.3125     0.57219200

  Creating fixed part of basis set: Ionic, confined, hydrogenic.
 
  V                    ion:

  List of free ionic orbitals and eigenvalues:
    n    l      energy [Ha]    energy [eV]
    1    0      -196.582345     -5349.2778
    2    0       -22.762449      -619.3978
    3    0        -3.386327       -92.1466
    4    0        -0.726008       -19.7557
    2    1       -19.336900      -526.1838
    3    1        -2.449023       -66.6413
    3    2        -0.989536       -26.9266


  List of ionic basis orbitals and eigenvalues:
    n    l      energy [Ha]    energy [eV]    outer radius [A]
    4    1        -0.538822       -14.6621       5.608997
    4    0        -0.725988       -19.7551       5.540845

 
  V                    hydrogenic:
 
  List of hydrogenic basis orbitals: 
    n    l      effective z      eigenvalue [eV]  inner max. [A]     outer max. [A]     outer radius [A]   
    3    2         3.000000       -13.5799           1.592333           1.592333           5.608997
 

  Adding cutoff potential to free-atom effective potential.
  Creating atomic-like basis functions for current effective potential.

  Species V                   :

  List of atomic basis orbitals and eigenvalues:
    n    l      energy [Ha]    energy [eV]    outer radius [A]
    1    0      -195.713583     -5325.6376       0.591542
    2    0       -21.871157      -595.1445       1.799394
    3    0        -2.541555       -69.1592       4.843668
    4    0        -0.169733        -4.6187       5.608997
    2    1       -18.447581      -501.9842       1.889571
    3    1        -1.613301       -43.9002       5.148972
    3    2        -0.196441        -5.3454       5.540845

  Assembling full basis from fixed parts.
  | Species V :   atomic orbital   1 s accepted.
  | Species V :   atomic orbital   2 s accepted.
  | Species V :   atomic orbital   3 s accepted.
  | Species V :    ionic orbital   4 s accepted.
  | Species V :   atomic orbital   4 s accepted.
  | Species V :   atomic orbital   2 p accepted.
  | Species V :   atomic orbital   3 p accepted.
  | Species V :    ionic orbital   4 p accepted.
  | Species V :   atomic orbital   3 d accepted.
  | Species V :    hydro orbital   3 d accepted.
 
  Basis size parameters after reduction:
  | Total number of radial functions:       10
  | Total number of basis functions :       72
 
  Per-task memory consumption for arrays in subroutine allocate_ext:
  |           2.665188MB.
  Testing on-site integration grid accuracy.
  |  Species  Function  <phi|h_atom|phi> (log., in eV)  <phi|h_atom|phi> (rad., in eV)
           1        1              -5325.6375724370              -5325.6374323460
           1        2               -595.1444618336               -595.1444597601
           1        3                -69.1592370190                -69.1592365710
           1        4                 -3.7986515661                 -3.7986472319
           1        5                  4.8107669037                  4.8116026351
           1        6               -501.9842114267               -501.9842111260
           1        7                -43.9001577091                -43.9001574501
           1        8                 -0.0904607791                 -0.0904302347
           1        9                 -5.3456155969                 -5.3456127244
           1       10                  6.3332210209                  6.3333689739

  Preparing densities etc. for the partition functions (integrals / Hartree potential).

  Preparations completed.
  max(cpu_time)          :      0.570 s.
  Wall clock time (cpu1) :      0.570 s.
------------------------------------------------------------

------------------------------------------------------------
          Begin self-consistency loop: Initialization.

          Date     :  20190817, Time     :  153210.811
------------------------------------------------------------

  Initializing index lists of integration centers etc. from given atomic structure:
  | Number of centers in hartree potential         :         3
  | Number of centers in hartree multipole         :         3
  | Number of centers in electron density summation:         3
  | Number of centers in basis integrals           :         3
  | Number of centers in integrals                 :         3
  | Number of centers in hamiltonian               :         3
  * Using 8 tasks for Scalapack Eigenvalue solver.
  Detailed listing of tasks and assigned k-points:
  (for non-periodic systems, the "k-point" denotes an internal label only)
   Task     0 k-point     1 on co1631
   Task     1 k-point     1 on co1631
   Task     2 k-point     1 on co1631
   Task     3 k-point     1 on co1631
   Task     4 k-point     1 on co1631
   Task     5 k-point     1 on co1631
   Task     6 k-point     1 on co1631
   Task     7 k-point     1 on co1631
  Tasks:     8 split into      4 X      2 BLACS grid
  Calculating block size based on n_basis =           72  max_nprow =            4  max_npcol =            2
  ScaLAPACK block size set to:           16
  Allocating        0.007 MB for ovlp
  Allocating        0.015 MB for ham
  Allocating        0.015 MB for eigenvec
  Required Scalapack workspace - INTEGER:            1  REAL:             1
  Partitioning the integration grid into batches with parallel hashing+maxmin method.
  | Number of batches:     1328
  | Maximal batch size:     165
  | Minimal batch size:      49
  | Average batch size:      72.773
  | Standard deviation of batch sizes:      20.090

  Integration load balanced across     8 MPI tasks.
  Work distribution over tasks is as follows:
  Task     0 has      12089 integration points.
  Task     1 has      12089 integration points.
  Task     2 has      12102 integration points.
  Task     3 has      12122 integration points.
  Task     4 has      12038 integration points.
  Task     5 has      12049 integration points.
  Task     6 has      12105 integration points.
  Task     7 has      12048 integration points.
  Initializing partition tables, free-atom densities, potentials, etc. across the integration grid (initialize_grid_storage).
  | initialize_grid_storage: Actual outermost partition radius vs. multipole_radius_free
  | (-- VB: in principle, multipole_radius_free should be larger, hence this output)
  | Species        1: Confinement radius =              9.999999999999998 AA, multipole_radius_free =             10.086223645423731 AA.
  | Species        1: outer_partition_radius set to             10.086223645423731 AA .
  | The sparse table of interatomic distances needs          0.09 kbyte instead of         0.07 kbyte of memory.
  | Using the partition_type stratmann_smoother will reduce your memory usage.
  | Net number of integration points:    96642
  | of which are non-zero points    :    91980
  Renormalizing the initial density to the exact electron count on the 3D integration grid.
  | Initial density: Formal number of electrons (from input files) :      68.0000000000
  | Integrated number of electrons on 3D grid     :      68.0000001261
  | Charge integration error                      :       0.0000001261
  | Normalization factor for density and gradient :       0.9999999981
  Renormalizing the free-atom superposition density to the exact electron count on the 3D integration grid.
  | Formal number of electrons (from input files) :      68.0000000000
  | Integrated number of electrons on 3D grid     :      68.9999988223
  | Charge integration error                      :      -0.0000011777
  | Normalization factor for density and gradient :       1.0000000171
  Obtaining max. number of non-zero basis functions in each batch (get_n_compute_maxes).
  | Maximal number of non-zero basis functions:       70 in task     0
  | Maximal number of non-zero basis functions:       70 in task     1
  | Maximal number of non-zero basis functions:       70 in task     2
  | Maximal number of non-zero basis functions:       70 in task     3
  | Maximal number of non-zero basis functions:       70 in task     4
  | Maximal number of non-zero basis functions:       70 in task     5
  | Maximal number of non-zero basis functions:       70 in task     6
  | Maximal number of non-zero basis functions:       70 in task     7
  Selecting the method for density update.
  Loop over occupied states selected for charge density update.
  Allocating        0.054 MB for KS_eigenvector
  Integrating Hamiltonian matrix: batch-based integration.
  Time summed over all CPUs for integration: real work        0.380 s, elapsed        0.384 s
  Integrating overlap matrix.
  Time summed over all CPUs for integration: real work        0.110 s, elapsed        0.113 s
  Not deallocating overlap matrix.

  Updating Kohn-Sham eigenvalues and eigenvectors using ELSI and the ELPA eigensolver.
  Overlap matrix is not singular
  | Lowest and highest eigenvalues :  0.7528E-02,  0.2934E+01
  Finished singularity check of overlap matrix
  | Time :     0.002 s
  Starting ELPA eigensolver
  Finished Cholesky decomposition
  | Time :     0.000 s
  Finished transformation to standard eigenproblem
  | Time :     0.000 s
  Finished solving standard eigenproblem
  | Time :     0.001 s
  Finished back-transformation of eigenvectors
  | Time :     0.000 s
  Starting ELPA eigensolver
  Finished transformation to standard eigenproblem
  | Time :     0.000 s
  Finished solving standard eigenproblem
  | Time :     0.001 s
  Finished back-transformation of eigenvectors
  | Time :     0.000 s

  Obtaining occupation numbers and chemical potential using ELSI.
  | Chemical potential (Fermi level):    -7.49995447 eV
  Writing Kohn-Sham eigenvalues.

  Spin-up eigenvalues:

  State    Occupation    Eigenvalue [Ha]    Eigenvalue [eV]
      1       1.00000        -195.764263        -5327.01663
      2       1.00000        -195.758954        -5326.87216
      3       1.00000        -195.758940        -5326.87178
      4       1.00000         -21.926787         -596.65822
      5       1.00000         -21.926704         -596.65597
      6       1.00000         -21.915381         -596.34787
      7       1.00000         -18.501685         -503.45646
      8       1.00000         -18.501626         -503.45485
      9       1.00000         -18.500723         -503.43028
     10       1.00000         -18.500663         -503.42865
     11       1.00000         -18.500287         -503.41842
     12       1.00000         -18.500227         -503.41679
     13       1.00000         -18.494289         -503.25520
     14       1.00000         -18.493367         -503.23011
     15       1.00000         -18.492803         -503.21478
     16       1.00000          -2.630806          -71.58787
     17       1.00000          -2.619909          -71.29134
     18       1.00000          -2.583604          -70.30345
     19       1.00000          -1.736262          -47.24610
     20       1.00000          -1.706754          -46.44314
     21       1.00000          -1.704939          -46.39374
     22       1.00000          -1.690255          -45.99417
     23       1.00000          -1.684225          -45.83009
     24       1.00000          -1.680760          -45.73580
     25       1.00000          -1.652292          -44.96116
     26       1.00000          -1.648331          -44.85336
     27       1.00000          -1.646956          -44.81596
     28       1.00000          -0.392868          -10.69049
     29       1.00000          -0.355453           -9.67236
     30       1.00000          -0.338658           -9.21537
     31       1.00000          -0.330780           -9.00099
     32       1.00000          -0.303655           -8.26288
     33       1.00000          -0.293947           -7.99871
     34       1.00000          -0.291079           -7.92066
     35       1.00000          -0.280647           -7.63680
     36       0.00000          -0.250791           -6.82438
     37       0.00000          -0.241711           -6.57728
     38       0.00000          -0.235479           -6.40772
     39       0.00000          -0.219369           -5.96934
     40       0.00000          -0.214074           -5.82524
     41       0.00000          -0.209255           -5.69412
     42       0.00000          -0.208344           -5.66933
     43       0.00000          -0.185709           -5.05339
     44       0.00000          -0.144483           -3.93157
     45       0.00000          -0.138622           -3.77210
     46       0.00000          -0.107913           -2.93646
     47       0.00000          -0.046212           -1.25750
     48       0.00000          -0.022535           -0.61320
     49       0.00000          -0.019364           -0.52693

  Spin-down eigenvalues:

  State    Occupation    Eigenvalue [Ha]    Eigenvalue [eV]
      1       1.00000        -195.764125        -5327.01287
      2       1.00000        -195.759154        -5326.87761
      3       1.00000        -195.759143        -5326.87730
      4       1.00000         -21.928976         -596.71780
      5       1.00000         -21.906960         -596.11871
      6       1.00000         -21.906845         -596.11559
      7       1.00000         -18.504602         -503.53584
      8       1.00000         -18.503680         -503.51076
      9       1.00000         -18.503117         -503.49544
     10       1.00000         -18.486646         -503.04723
     11       1.00000         -18.486556         -503.04477
     12       1.00000         -18.485684         -503.02105
     13       1.00000         -18.485594         -503.01860
     14       1.00000         -18.485249         -503.00921
     15       1.00000         -18.485159         -503.00676
     16       1.00000          -2.624695          -71.42159
     17       1.00000          -2.572299          -69.99583
     18       1.00000          -2.564869          -69.79364
     19       1.00000          -1.723662          -46.90322
     20       1.00000          -1.700607          -46.27586
     21       1.00000          -1.685192          -45.85641
     22       1.00000          -1.662033          -45.22622
     23       1.00000          -1.637489          -44.55835
     24       1.00000          -1.636958          -44.54391
     25       1.00000          -1.634998          -44.49056
     26       1.00000          -1.630051          -44.35594
     27       1.00000          -1.626273          -44.25313
     28       1.00000          -0.374895          -10.20142
     29       1.00000          -0.341019           -9.27960
     30       1.00000          -0.330593           -8.99589
     31       1.00000          -0.305091           -8.30195
     32       1.00000          -0.289492           -7.87749
     33       1.00000          -0.287101           -7.81241
     34       0.00000          -0.269948           -7.34567
     35       0.00000          -0.255779           -6.96010
     36       0.00000          -0.218342           -5.94138
     37       0.00000          -0.212881           -5.79280
     38       0.00000          -0.206722           -5.62519
     39       0.00000          -0.205275           -5.58583
     40       0.00000          -0.197422           -5.37213
     41       0.00000          -0.194309           -5.28741
     42       0.00000          -0.186516           -5.07537
     43       0.00000          -0.164427           -4.47430
     44       0.00000          -0.135176           -3.67833
     45       0.00000          -0.133918           -3.64408
     46       0.00000          -0.100580           -2.73693
     47       0.00000          -0.039130           -1.06479
     48       0.00000          -0.016510           -0.44926
     49       0.00000          -0.012768           -0.34744

  Current spin moment of the entire structure :
  | N = N_up - N_down :    2.00
  | S                 :    1.00
  | J                 :    3.00

  Highest occupied state (VBM) at     -7.63679947 eV
  | Occupation number:      1.00000000
  | Spin channel:        1

  Lowest unoccupied state (CBM) at    -7.34567130 eV
  | Occupation number:      0.00000000
  | Spin channel:        2

  Overall HOMO-LUMO gap:      0.29112817 eV.
  Calculating total energy contributions from superposition of free atom densities.

  Total energy components:
  | Sum of eigenvalues            :       -1689.18768448 Ha      -45965.13557511 eV
  | XC energy correction          :        -134.51285013 Ha       -3660.28088519 eV
  | XC potential correction       :         174.34923638 Ha        4744.28410847 eV
  | Free-atom electrostatic energy:       -1181.91927374 Ha      -32161.65980558 eV
  | Hartree energy correction     :           0.00000000 Ha           0.00000000 eV
  | Entropy correction            :          -0.00000000 Ha          -0.00000000 eV
  | ---------------------------
  | Total energy                  :       -2831.27057197 Ha      -77042.79215741 eV
  | Total energy, T -> 0          :       -2831.27057197 Ha      -77042.79215741 eV  <-- do not rely on this value for anything but (periodic) metals
  | Electronic free energy        :       -2831.27057197 Ha      -77042.79215741 eV

  Derived energy quantities:
  | Kinetic energy                :        2828.55652551 Ha       76968.93919574 eV
  | Electrostatic energy          :       -5525.31424735 Ha     -150351.45046797 eV
  | Energy correction for multipole
  | error in Hartree potential    :           0.00000000 Ha           0.00000000 eV
  | Sum of eigenvalues per atom                           :      -15321.71185837 eV
  | Total energy (T->0) per atom                          :      -25680.93071914 eV  <-- do not rely on this value for anything but (periodic) metals
  | Electronic free energy per atom                       :      -25680.93071914 eV
  
  --------------------------------------------
  Constructing auxiliary basis (full product) ...
  
  Product basis:
  | charge radius: extent of product basis function
  | field radius: extent of its Coulomb potential
  | Species   l  charge radius    field radius  multipol momen
  |    V      1     1.692700 A      1.692700 A       -5.511757E-18 a.u.
  |    V      1     2.660858 A      2.660858 A       -2.682682E-17 a.u.
  |    V      2     2.726718 A      2.726718 A        3.718653E-18 a.u.
  |    V      1     2.863368 A      2.898588 A        2.302756E-17 a.u.
  |    V      1     2.863368 A      2.898588 A       -9.572161E-18 a.u.
  |    V      0     0.693435 A      4.051649 A       -6.092855E-17 a.u.
  |    V      0     4.784815 A      4.784815 A        3.965413E-17 a.u.
  |    V      0     2.533873 A      4.931736 A        7.416326E-17 a.u.
  |    V      1     4.963555 A      4.963555 A       -9.939551E-17 a.u.
  |    V      2     5.024607 A      5.024607 A        2.740450E-17 a.u.
  |    V      2     5.086410 A      5.086410 A       -9.560976E-17 a.u.
  |    V      3     5.276416 A      5.276416 A        4.465900E-18 a.u.
  |    V      1     5.341316 A      5.341316 A       -1.452968E-16 a.u.
  |    V      2     5.407014 A      5.407014 A        7.057585E-17 a.u.
  |    V      1     5.473521 A      5.540845 A        2.263680E-16 a.u.
  |    V      2     5.540845 A      5.540845 A       -8.048013E-16 a.u.
  |    V      3     5.473521 A      5.540845 A        2.501954E-16 a.u.
  |    V      3     5.473521 A      5.540845 A        9.888001E-16 a.u.
  |    V      3     5.540845 A      5.540845 A        1.588445E-15 a.u.
  |    V      4     5.540845 A      5.540845 A        5.051099E-16 a.u.
  |    V      1     5.540845 A      5.608997 A        1.890940E-17 a.u.
  |    V      2     5.540845 A      5.608997 A       -9.589025E-16 a.u.
  |    V      2     5.540845 A      5.608997 A       -1.405032E-16 a.u.
  |    V      3     5.608997 A      5.608997 A       -1.210402E-14 a.u.
  |    V      4     5.540845 A      5.608997 A       -1.273487E-15 a.u.
  |    V      0     5.608997 A      5.677988 A        4.880796E-17 a.u.
  |    V      1     5.608997 A      5.677988 A       -2.986869E-16 a.u.
  |    V      2     5.608997 A      5.677988 A       -1.613566E-15 a.u.
  |    V      3     5.608997 A      5.677988 A        5.280420E-15 a.u.
  |    V      2     5.608997 A      5.747827 A        3.356475E-16 a.u.
  |    V      0     1.692700 A      7.284928 A       -1.095505E-16 a.u.
  |    V      0     5.540845 A      8.465897 A        1.273099E-16 a.u.
  |    V      0     5.608997 A      9.125101 A        1.372229E-16 a.u.
  |    V      0     5.276416 A      9.362631 A        1.407949E-16 a.u.
  |    V      0     4.669245 A     26.134494 A       -3.930096E-16 a.u.
  |    V      0     5.540845 A     33.584126 A       -5.050368E-16 a.u.
  |    V      0     5.608997 A     33.760703 A       -5.076922E-16 a.u.
  |    V      4     5.608997 A  3.682061E+03 A          129.789369 a.u.
  |    V      3     5.608997 A  2.722494E+04 A           55.751076 a.u.
  |    V      2     5.608997 A  6.524147E+05 A           14.912760 a.u.
  |    V      1     5.608997 A  2.821351E+08 A            2.262050 a.u.
  |    V      0     5.608997 A  4.770913E+16 A            0.717448 a.u.

  | Shrink_full_auxil_basis : there are       42  radial auxiliary wave functions
                            accepted and      49 rejected.
  | Shrink_full_auxil_basis : there are totally                 504 partial auxiliary wave functions.
  prodbas_tasks_distribution_pbc not up to date - distributing tasks.
 
  | Maximal number of product basis functions per thread :    64    64
 
  | Number of local auxiliary basis funcs on node     0 :     64
  | Number of local auxiliary basis funcs on node     1 :     64
  | Number of local auxiliary basis funcs on node     2 :     64
  | Number of local auxiliary basis funcs on node     3 :     64
  | Number of local auxiliary basis funcs on node     4 :     64
  | Number of local auxiliary basis funcs on node     5 :     64
  | Number of local auxiliary basis funcs on node     6 :     64
  | Number of local auxiliary basis funcs on node     7 :     56
  Parallel distribution of product basis not up to date - distributing tasks.
 
  | Maximal number of product basis functions per thread :    64    64
 
  | Minimal total memory requirement for three-center overlap :       0.014 Gbs
  | Number of local auxiliary basis functions on task:      0    64
  | Number of local auxiliary basis functions on task:      1    64
  | Number of local auxiliary basis functions on task:      2    64
  | Number of local auxiliary basis functions on task:      3    64
  | Number of local auxiliary basis functions on task:      4    64
  | Number of local auxiliary basis functions on task:      5    64
  | Number of local auxiliary basis functions on task:      6    64
  | Number of local auxiliary basis functions on task:      7    56
  | 2D aux task distribution:      2 X      4
  | 2D block size (nb_aux_2d):     64
  | Task at    0 x    0 gets    256 x    128 entries of 2D aux
  | Task at    0 x    1 gets    256 x    128 entries of 2D aux
  | Task at    0 x    2 gets    256 x    128 entries of 2D aux
  | Task at    0 x    3 gets    256 x    120 entries of 2D aux
  | Task at    1 x    0 gets    248 x    128 entries of 2D aux
  | Task at    1 x    1 gets    248 x    128 entries of 2D aux
  | Task at    1 x    2 gets    248 x    128 entries of 2D aux
  | Task at    1 x    3 gets    248 x    120 entries of 2D aux
  -----------------------------------------
  --- Initializing Fock matrix calculations
  -----------------------------------------
  screening_threshold (crit_val) =  0.000000100000
  coul_mat_threshold =  0.000000000100
 Trying to make the workload more even by internally splitting atoms into fractions
 Atom:            1  Basis/atom:    24.0000000000000
 Atom:            2  Basis/atom:    24.0000000000000
 Atom:            3  Basis/atom:    24.0000000000000
 No atoms are split internally
  Number of super-cells in X Y Z:       0       0       0
  Number of atoms pairs total:            9
  Atom pair distribution:
  Cell:        0       0       0 atom pairs:        9
  Number of atoms pairs in BvK cells:            9
  Initializing work distribution for fock matrix calculation
  -----------------------------------------------------
  Dividing atoms among tasks for exact exchange energy:
  Atom:     1 Weight:   168.00
  Atom:     2 Weight:   168.00
  Atom:     3 Weight:   168.00

  Average weight per task:   63.000

  Number of "big" (above average) atoms  :     3
  Number of "small" (below average) atoms:     0
  All atoms have above average work per task
  Atoms will be divided among tasks to get best load distribution

  Atom division among tasks:
  Atom     1: (initial) task:     0, # of tasks:     3
  Atom     2: (initial) task:     3, # of tasks:     3
  Atom     3: (initial) task:     6, # of tasks:     2

  -----------------------------------------------------
  Task     0 : Coulomb matrix distribution changed.
  Task     1 : Coulomb matrix distribution changed.
  Task     2 : Coulomb matrix distribution changed.
  Task     3 : Coulomb matrix distribution changed.
  Task     4 : Coulomb matrix distribution changed.
  Task     5 : Coulomb matrix distribution changed.
  Task     6 : Coulomb matrix distribution changed.
  Task     7 : Coulomb matrix distribution changed.
  Overall Coulomb matrix distribution changed.
  Coulomb matrix subdivision:
  Task     0 atom     1 has Coulomb matrix rows          1 to         56
  Task      0: my_n_atoms:      1 my_atom_list:      1
  Task      1: my_n_atoms:      1 my_atom_list:      1
  Task      2: my_n_atoms:      1 my_atom_list:      1
  Task      3: my_n_atoms:      1 my_atom_list:      2
  Task      4: my_n_atoms:      1 my_atom_list:      2
  Task      5: my_n_atoms:      1 my_atom_list:      2
  Task      6: my_n_atoms:      1 my_atom_list:      3
  Task      7: my_n_atoms:      1 my_atom_list:      3
  Task      0: my_n_atom_pairs:      1
  Task      1: my_n_atom_pairs:      1
  Task      2: my_n_atom_pairs:      1
  Task      3: my_n_atom_pairs:      1
  Task      4: my_n_atom_pairs:      1
  Task      5: my_n_atom_pairs:      1
  Task      6: my_n_atom_pairs:      1
  Task      7: my_n_atom_pairs:      2
  Memory needs for ovlp3fn and Coulomb matrix:
  For Coulomb matrix, this is the upper limit if no compression occurs
  ovlp3fn:        0.774 MB, Coulomb:        0.226 MB
Size of ovlp3fn for atom     576       1     168
  --- Initializing LVL triples
  | Storage requirements for basis-basbas products (processor-local):
  |   Species V: n_prodsfn:   610; storage:       19.06 MiB.

  --- Initializing Coulomb matrix calculations
  Preparing TB like auxiliary 2-center Coulomb matrix
  SBT integration errors (all should be 'small'):
  large logFT aliasing -> increase N/lnrange
  large SBT aliasing -> decrease lnk0 & increase lnk0+lnrange
  large SBT ringing -> decrease lnr0 & increase lnr0+lnrange
  |            El't  L: logFT-al.   small-k   large-k   small-r   large-r
  | Need to store  1639 splines of   154 points taking       2000 KiB.
  | Spline reduction from  4096 to   154 points by (cutting and)     1 x coarsening gives error:  0.00E+00
  Finished with initialize_tb_auxmat/lvl_triples, time:        0.141
  --- Calculating OVLP3FN
  Allocating        1.477 MB for coeff_3fn
  --- Done calculating OVLP3FN, time:        0.925
  Atomic logSBT for LVL-triples                :  max(cpu_time)    wall_clock(cpu1)
  | Multiplication with kernel                 :        0.002 s           0.001 s
  | Main matrix multiplication                 :        0.258 s           0.017 s
  | Analytic angular integration               :        0.001 s           0.000 s
  | Kernel construction                        :        0.001 s           0.001 s
  | Overall 2-center overlap time              :        0.271 s           0.022 s
  | 3-center preparation multiplications       :        0.028 s           0.015 s
  | 3-center preparation SBTs                  :        0.463 s           0.234 s
  | 3-center combinations                      :        0.288 s           0.029 s
  | Overal 3-center time                       :        0.780 s           0.278 s
  | LVL initialization                         :        0.059 s           0.059 s
  | Whole LVL-triples                          :        0.059 s           0.059 s

Compare n_pairs with n_super       0       1
  --- Done getting norm of OVLP3FN, time:        0.000
  --- Calculating Coulomb matrices
  Allocating        0.215 MB for aux_mat
  Time to calculate Coulomb Matrices   :        0.002
  Number of Coulomb matrix elements:
  | Task     0 total:          28224, > threshold:          10248, stored:          26712
  | Task     1 total:          28224, > threshold:          10019, stored:          27552
  | Task     2 total:          28224, > threshold:          10665, stored:          28224
  | Task     3 total:          28224, > threshold:          10307, stored:          26712
  | Task     4 total:          28224, > threshold:          10031, stored:          27552
  | Task     5 total:          28224, > threshold:          10672, stored:          28224
  | Task     6 total:          42336, > threshold:          15187, stored:          41832
  | Task     7 total:          42336, > threshold:          15731, stored:          42336
  --- Done init_fock_matrix_calculations
  Atomic logSBT for 2-center Coulomb matrix    :  max(cpu_time)    wall_clock(cpu1)
  | TB initialization                          :        0.081 s           0.081 s
  | TB usage                                   :        0.002 s           0.003 s

  Calculating non-local Hartree-Fock exchange by two-center RI (RI-LVL).
  screening_threshold (crit_val) =  0.000000100000
  Allocating        0.026 MB for dm_cols
  Allocating        0.185 MB for ovlp3fn_rcv
  Allocating        0.026 MB for fock_matrix
  Allocating        0.001 MB for fock_matrix_row
  Exact exchange progress report - outermost basis function loop i_basis_r1: 1 ..      72
  |        1         2         3         4         5         6         7         8         9        10
  |       11        12        13        14        15        16        17        18        19        20
  |       21        22        23        24        25        26        27        28        29        30
  |       31        32        33        34        35        36        37        38        39        40
  |       41        42        43        44        45        46        47        48        49        50
  |       51        52        53        54        55        56        57        58        59        60
  |       61        62        63        64        65        66        67        68        69        70
  |       71        72  
  Full exact exchange energy:    3608.165305953165 eV.
  Times            DM_x_o3fn   CM_x_o3fn    Products        Sync   Imbalance    Pre/Post       Other  Total calc
  | Times    0:        0.005       0.006       0.008       0.029       0.010       0.003       0.007       0.067
  | Times    1:        0.004       0.006       0.008       0.029       0.012       0.003       0.006       0.068
  | Times    2:        0.004       0.006       0.008       0.029       0.013       0.003       0.006       0.067
  | Times    3:        0.004       0.006       0.008       0.029       0.013       0.003       0.006       0.068
  | Times    4:        0.004       0.006       0.008       0.029       0.011       0.003       0.006       0.068
  | Times    5:        0.004       0.006       0.008       0.029       0.012       0.003       0.006       0.068
  | Times    6:        0.004       0.008       0.009       0.025       0.012       0.003       0.006       0.068
  | Times    7:        0.008       0.008       0.013       0.025       0.004       0.003       0.006       0.068
  | Times  sum:        0.037       0.054       0.069       0.224       0.087       0.022       0.047       0.540

  Decomposition of Other based on code block (only on MPI task 0):
  Times             Block #1    Block #2    Block #3    Block #4    Block #5    Block #6    Block #7    Block #8
  | Times    0:        0.000       0.000       0.001       0.000       0.000       0.000       0.001       0.000

  Times             Block #9   Block #10   Block #11   Block #12   Block #13   Block #14   Block #15   Block #16
  | Times    0:        0.000       0.001       0.001       0.000       0.002       0.000       0.000       0.000

  Times            Block Sum    Expected
  | Times    0:        0.007       0.007
  Initialize hartree_potential_storage
  Max. number of atoms included in rho_multipole:            3

  End scf initialization - timings             :  max(cpu_time)    wall_clock(cpu1)
  | Time for scf. initialization               :        1.352 s           1.369 s
  | Boundary condition initialization          :        0.000 s           0.000 s
  | Integration                                :        0.063 s           0.063 s
  | Solution of K.-S. eqns.                    :        0.007 s           0.007 s
  | Grid partitioning                          :        0.029 s           0.029 s
  | Preloading free-atom quantities on grid    :        0.008 s           0.008 s
  | Free-atom superposition energy             :        0.011 s           0.010 s
  | Total energy evaluation                    :        0.000 s           0.001 s
  | Product basis setup: Total time            :        1.220 s           1.236 s

  Partial memory accounting:
  | Current value for overall tracked memory usage:
  |   Minimum:        1.087 MB (on task 3)
  |   Maximum:        1.949 MB (on task 7)
  |   Average:        1.220 MB
  | Peak value for overall tracked memory usage:
  |   Minimum:        2.357 MB (on task 3 after allocating d_coeff_3fn)
  |   Maximum:        3.100 MB (on task 7 after allocating d_coeff_3fn)
  |   Average:        2.456 MB
  | Largest tracked array allocation so far:
  |   Minimum:        1.477 MB (coeff_3fn on task 0)
  |   Maximum:        1.477 MB (coeff_3fn on task 0)
  |   Average:        1.477 MB
  Note:  These values currently only include a subset of arrays which are explicitly tracked.
  The "true" memory usage will be greater.
------------------------------------------------------------

------------------------------------------------------------
          Begin self-consistency iteration #    1

  Date     :  20190817, Time     :  153212.181
------------------------------------------------------------
  Evaluating new KS density.
  Integration grid: deviation in total charge (<rho> - N_e) =  -2.842171E-14
  | <rho_up-rho_dn> = N_up-N_dn =      2.0000; <|rho_up-rho_dn|> =      4.2982
  Pulay mixing of updated and previous charge densities.
  Renormalizing the density to the exact electron count on the 3D integration grid.
  | Formal number of electrons (from input files) :      68.0000000000
  | Integrated number of electrons on 3D grid     :      68.0000000000
  | Charge integration error                      :      -0.0000000000
  | Normalization factor for density and gradient :       1.0000000000

  Evaluating partitioned Hartree potential by multipole expansion.
  | Original multipole sum: apparent total charge =   0.100000E+01
  | Sum of charges compensated after spline to logarithmic grids =   0.501489E-05
  | Analytical far-field extrapolation by fixed multipoles:
  | Hartree multipole sum: apparent total charge =   0.100000E+01
  Summing up the Hartree potential.
  Time summed over all CPUs for potential: real work        0.154 s, elapsed        0.158 s
  | RMS charge density error from multipole expansion :   0.266029E-02

  Integrating Hamiltonian matrix: batch-based integration.
  Time summed over all CPUs for integration: real work        0.368 s, elapsed        0.372 s
  Calculating non-local Hartree-Fock exchange by two-center RI (RI-LVL).
  screening_threshold (crit_val) =  0.000000100000
  Allocating        0.026 MB for dm_cols
  Allocating        0.185 MB for ovlp3fn_rcv
  Allocating        0.026 MB for fock_matrix
  Allocating        0.001 MB for fock_matrix_row
  Exact exchange progress report - outermost basis function loop i_basis_r1: 1 ..      72
  |        1         2         3         4         5         6         7         8         9        10
  |       11        12        13        14        15        16        17        18        19        20
  |       21        22        23        24        25        26        27        28        29        30
  |       31        32        33        34        35        36        37        38        39        40
  |       41        42        43        44        45        46        47        48        49        50
  |       51        52        53        54        55        56        57        58        59        60
  |       61        62        63        64        65        66        67        68        69        70
  |       71        72  
  Full exact exchange energy:    3608.165305953165 eV.
  Times            DM_x_o3fn   CM_x_o3fn    Products        Sync   Imbalance    Pre/Post       Other  Total calc
  | Times    0:        0.005       0.006       0.008       0.028       0.009       0.001       0.007       0.064
  | Times    1:        0.004       0.006       0.008       0.029       0.011       0.002       0.005       0.064
  | Times    2:        0.004       0.006       0.007       0.028       0.012       0.002       0.005       0.064
  | Times    3:        0.004       0.006       0.008       0.028       0.011       0.002       0.005       0.064
  | Times    4:        0.004       0.006       0.008       0.028       0.011       0.002       0.005       0.064
  | Times    5:        0.004       0.006       0.008       0.028       0.011       0.002       0.005       0.064
  | Times    6:        0.004       0.009       0.009       0.024       0.011       0.002       0.005       0.064
  | Times    7:        0.008       0.009       0.012       0.025       0.003       0.002       0.005       0.064
  | Times  sum:        0.039       0.054       0.068       0.218       0.078       0.014       0.040       0.511

  Decomposition of Other based on code block (only on MPI task 0):
  Times             Block #1    Block #2    Block #3    Block #4    Block #5    Block #6    Block #7    Block #8
  | Times    0:        0.000       0.000       0.001       0.000       0.000       0.000       0.001       0.000

  Times             Block #9   Block #10   Block #11   Block #12   Block #13   Block #14   Block #15   Block #16
  | Times    0:        0.000       0.001       0.001       0.000       0.002       0.000       0.000       0.000

  Times            Block Sum    Expected
  | Times    0:        0.007       0.007

  Updating Kohn-Sham eigenvalues and eigenvectors using ELSI and the ELPA eigensolver.
  Starting ELPA eigensolver
  Finished transformation to standard eigenproblem
  | Time :     0.000 s
  Finished solving standard eigenproblem
  | Time :     0.000 s
  Finished back-transformation of eigenvectors
  | Time :     0.000 s
  Starting ELPA eigensolver
  Finished transformation to standard eigenproblem
  | Time :     0.000 s
  Finished solving standard eigenproblem
  | Time :     0.000 s
  Finished back-transformation of eigenvectors
  | Time :     0.001 s

  Obtaining occupation numbers and chemical potential using ELSI.
  | Chemical potential (Fermi level):    -8.00075791 eV
  Writing Kohn-Sham eigenvalues.

  Spin-up eigenvalues:

  State    Occupation    Eigenvalue [Ha]    Eigenvalue [eV]
      1       1.00000        -197.203873        -5366.19042
      2       1.00000        -197.201876        -5366.13607
      3       1.00000        -196.923965        -5358.57374
      4       1.00000         -22.444143         -610.73621
      5       1.00000         -22.442310         -610.68633
      6       1.00000         -22.153536         -602.82840
      7       1.00000         -18.914156         -514.68038
      8       1.00000         -18.912281         -514.62935
      9       1.00000         -18.911916         -514.61941
     10       1.00000         -18.910053         -514.56873
     11       1.00000         -18.907220         -514.49163
     12       1.00000         -18.905375         -514.44143
     13       1.00000         -18.625023         -506.81266
     14       1.00000         -18.622757         -506.75101
     15       1.00000         -18.617245         -506.60100
     16       1.00000          -2.850510          -77.56634
     17       1.00000          -2.841648          -77.32518
     18       1.00000          -2.597423          -70.67947
     19       1.00000          -1.889782          -51.42360
     20       1.00000          -1.877491          -51.08912
     21       1.00000          -1.870457          -50.89773
     22       1.00000          -1.869800          -50.87984
     23       1.00000          -1.862939          -50.69314
     24       1.00000          -1.844275          -50.18528
     25       1.00000          -1.632298          -44.41710
     26       1.00000          -1.621687          -44.12835
     27       1.00000          -1.612304          -43.87303
     28       1.00000          -0.440017          -11.97346
     29       1.00000          -0.427756          -11.63983
     30       1.00000          -0.410158          -11.16098
     31       1.00000          -0.402680          -10.95749
     32       1.00000          -0.391589          -10.65567
     33       1.00000          -0.374010          -10.17732
     34       1.00000          -0.370876          -10.09205
     35       1.00000          -0.370144          -10.07212
     36       0.00000          -0.277381           -7.54793
     37       0.00000          -0.260905           -7.09959
     38       0.00000          -0.257970           -7.01971
     39       0.00000          -0.230375           -6.26882
     40       0.00000          -0.229671           -6.24966
     41       0.00000          -0.196855           -5.35670
     42       0.00000          -0.158053           -4.30084
     43       0.00000          -0.136514           -3.71473
     44       0.00000          -0.121326           -3.30144
     45       0.00000          -0.112691           -3.06648
     46       0.00000          -0.098118           -2.66993
     47       0.00000          -0.092852           -2.52662
     48       0.00000          -0.073486           -1.99965
     49       0.00000          -0.029262           -0.79625

  Spin-down eigenvalues:

  State    Occupation    Eigenvalue [Ha]    Eigenvalue [eV]
      1       1.00000        -197.203392        -5366.17732
      2       1.00000        -197.201391        -5366.12287
      3       1.00000        -196.923762        -5358.56819
      4       1.00000         -22.423672         -610.17916
      5       1.00000         -22.421658         -610.12435
      6       1.00000         -22.171376         -603.31384
      7       1.00000         -18.898045         -514.24196
      8       1.00000         -18.896029         -514.18711
      9       1.00000         -18.892647         -514.09507
     10       1.00000         -18.890605         -514.03951
     11       1.00000         -18.890317         -514.03167
     12       1.00000         -18.888330         -513.97762
     13       1.00000         -18.638034         -507.16671
     14       1.00000         -18.637060         -507.14020
     15       1.00000         -18.635704         -507.10331
     16       1.00000          -2.790838          -75.94257
     17       1.00000          -2.781561          -75.69013
     18       1.00000          -2.648165          -72.06024
     19       1.00000          -1.842394          -50.13409
     20       1.00000          -1.805629          -49.13367
     21       1.00000          -1.802515          -49.04894
     22       1.00000          -1.798266          -48.93332
     23       1.00000          -1.792267          -48.77007
     24       1.00000          -1.791343          -48.74491
     25       1.00000          -1.677302          -45.64172
     26       1.00000          -1.674731          -45.57176
     27       1.00000          -1.674080          -45.55404
     28       1.00000          -0.409229          -11.13568
     29       1.00000          -0.373087          -10.15221
     30       1.00000          -0.371928          -10.12069
     31       1.00000          -0.350833           -9.54665
     32       1.00000          -0.335290           -9.12370
     33       1.00000          -0.298793           -8.13057
     34       0.00000          -0.262689           -7.14814
     35       0.00000          -0.249682           -6.79419
     36       0.00000          -0.235108           -6.39761
     37       0.00000          -0.223094           -6.07071
     38       0.00000          -0.207361           -5.64258
     39       0.00000          -0.196141           -5.33727
     40       0.00000          -0.194320           -5.28771
     41       0.00000          -0.167816           -4.56650
     42       0.00000          -0.164977           -4.48926
     43       0.00000          -0.149343           -4.06382
     44       0.00000          -0.141347           -3.84626
     45       0.00000          -0.131113           -3.56776
     46       0.00000          -0.124234           -3.38057
     47       0.00000          -0.094838           -2.58067
     48       0.00000          -0.063730           -1.73418
     49       0.00000          -0.043116           -1.17326

  Current spin moment of the entire structure :
  | N = N_up - N_down :    2.00
  | S                 :    1.00
  | J                 :    3.00

  Highest occupied state (VBM) at     -8.13057402 eV
  | Occupation number:      1.00000000
  | Spin channel:        2

  Lowest unoccupied state (CBM) at    -7.54793021 eV
  | Occupation number:      0.00000000
  | Spin channel:        1

  Overall HOMO-LUMO gap:      0.58264381 eV.

  Total energy components:
  | Sum of eigenvalues            :       -1709.08384625 Ha      -46506.53768293 eV
  | XC energy correction          :         -69.31351466 Ha       -1886.11669842 eV
  | XC potential correction       :         132.62910968 Ha        3609.02169929 eV
  | Free-atom electrostatic energy:       -1181.91927374 Ha      -32161.65980558 eV
  | Hartree energy correction     :          -3.57890256 Ha         -97.38689375 eV
  | Entropy correction            :          -0.00000000 Ha          -0.00000000 eV
  | ---------------------------
  | Total energy                  :       -2831.26642753 Ha      -77042.67938138 eV
  | Total energy, T -> 0          :       -2831.26642753 Ha      -77042.67938138 eV  <-- do not rely on this value for anything but (periodic) metals
  | Electronic free energy        :       -2831.26642753 Ha      -77042.67938138 eV

  Derived energy quantities:
  | Kinetic energy                :        3031.13347775 Ha       82481.33853385 eV
  | Electrostatic energy          :       -5529.21619973 Ha     -150457.62799437 eV
  | Energy correction for multipole
  | error in Hartree potential    :          -0.00145889 Ha          -0.03969836 eV
  | Sum of eigenvalues per atom                           :      -15502.17922764 eV
  | Total energy (T->0) per atom                          :      -25680.89312713 eV  <-- do not rely on this value for anything but (periodic) metals
  | Electronic free energy per atom                       :      -25680.89312713 eV

  Self-consistency convergence accuracy:
  | Change of charge/spin density :  0.4237E+00  0.1562E+00
  | Change of sum of eigenvalues  : -0.5414E+03 eV
  | Change of total energy        :  0.1128E+00 eV

  End self-consistency iteration #     1       :  max(cpu_time)    wall_clock(cpu1)
  | Time for this iteration                    :        0.181 s           0.229 s
  | Charge density update                      :        0.041 s           0.041 s
  | Density mixing                             :        0.002 s           0.001 s
  | Hartree multipole update                   :        0.003 s           0.003 s
  | Hartree multipole summation                :        0.021 s           0.021 s
  | Integration                                :        0.047 s           0.046 s
  | Fock matrix evaluation                     :        0.064 s           0.113 s
  | Solution of K.-S. eqns.                    :        0.003 s           0.003 s
  | Total energy evaluation                    :        0.000 s           0.000 s

  Partial memory accounting:
  | Current value for overall tracked memory usage:
  |   Minimum:        1.087 MB (on task 3)
  |   Maximum:        1.949 MB (on task 7)
  |   Average:        1.220 MB
  | Peak value for overall tracked memory usage:
  |   Minimum:        2.357 MB (on task 3 after allocating d_coeff_3fn)
  |   Maximum:        3.100 MB (on task 7 after allocating d_coeff_3fn)
  |   Average:        2.456 MB
  | Largest tracked array allocation so far:
  |   Minimum:        1.477 MB (coeff_3fn on task 0)
  |   Maximum:        1.477 MB (coeff_3fn on task 0)
  |   Average:        1.477 MB
  Note:  These values currently only include a subset of arrays which are explicitly tracked.
  The "true" memory usage will be greater.
------------------------------------------------------------

------------------------------------------------------------
          Begin self-consistency iteration #    2

  Date     :  20190817, Time     :  153212.411
------------------------------------------------------------
  Evaluating new KS density.
  Integration grid: deviation in total charge (<rho> - N_e) =   0.000000E+00
  | <rho_up-rho_dn> = N_up-N_dn =      2.0000; <|rho_up-rho_dn|> =      3.8952
  Pulay mixing of updated and previous charge densities.
  Renormalizing the density to the exact electron count on the 3D integration grid.
  | Formal number of electrons (from input files) :      68.0000000000
  | Integrated number of electrons on 3D grid     :      68.0000000000
  | Charge integration error                      :       0.0000000000
  | Normalization factor for density and gradient :       1.0000000000

  Evaluating partitioned Hartree potential by multipole expansion.
  | Original multipole sum: apparent total charge =   0.100000E+01
  | Sum of charges compensated after spline to logarithmic grids =   0.502138E-05
  | Analytical far-field extrapolation by fixed multipoles:
  | Hartree multipole sum: apparent total charge =   0.100000E+01
  Summing up the Hartree potential.
  Time summed over all CPUs for potential: real work        0.153 s, elapsed        0.157 s
  | RMS charge density error from multipole expansion :   0.296720E-02

  Integrating Hamiltonian matrix: batch-based integration.
  Time summed over all CPUs for integration: real work        0.375 s, elapsed        0.381 s
  Calculating non-local Hartree-Fock exchange by two-center RI (RI-LVL).
  screening_threshold (crit_val) =  0.000000100000
  Allocating        0.026 MB for dm_cols
  Allocating        0.185 MB for ovlp3fn_rcv
  Allocating        0.026 MB for fock_matrix
  Allocating        0.001 MB for fock_matrix_row
  Exact exchange progress report - outermost basis function loop i_basis_r1: 1 ..      72
  |        1         2         3         4         5         6         7         8         9        10
  |       11        12        13        14        15        16        17        18        19        20
  |       21        22        23        24        25        26        27        28        29        30
  |       31        32        33        34        35        36        37        38        39        40
  |       41        42        43        44        45        46        47        48        49        50
  |       51        52        53        54        55        56        57        58        59        60
  |       61        62        63        64        65        66        67        68        69        70
  |       71        72  
  Full exact exchange energy:    3586.944418335348 eV.
  Times            DM_x_o3fn   CM_x_o3fn    Products        Sync   Imbalance    Pre/Post       Other  Total calc
  | Times    0:        0.005       0.006       0.008       0.027       0.008       0.001       0.007       0.063
  | Times    1:        0.004       0.006       0.008       0.028       0.010       0.002       0.005       0.063
  | Times    2:        0.004       0.006       0.007       0.027       0.012       0.002       0.005       0.063
  | Times    3:        0.004       0.006       0.007       0.027       0.012       0.002       0.005       0.063
  | Times    4:        0.004       0.006       0.008       0.027       0.011       0.002       0.005       0.063
  | Times    5:        0.004       0.006       0.008       0.027       0.011       0.002       0.005       0.063
  | Times    6:        0.004       0.009       0.009       0.023       0.011       0.002       0.005       0.063
  | Times    7:        0.009       0.009       0.012       0.024       0.003       0.002       0.005       0.063
  | Times  sum:        0.038       0.054       0.067       0.210       0.079       0.013       0.040       0.500

  Decomposition of Other based on code block (only on MPI task 0):
  Times             Block #1    Block #2    Block #3    Block #4    Block #5    Block #6    Block #7    Block #8
  | Times    0:        0.000       0.000       0.001       0.000       0.000       0.000       0.001       0.000

  Times             Block #9   Block #10   Block #11   Block #12   Block #13   Block #14   Block #15   Block #16
  | Times    0:        0.000       0.001       0.001       0.000       0.002       0.000       0.000       0.000

  Times            Block Sum    Expected
  | Times    0:        0.006       0.007

  Updating Kohn-Sham eigenvalues and eigenvectors using ELSI and the ELPA eigensolver.
  Starting ELPA eigensolver
  Finished transformation to standard eigenproblem
  | Time :     0.000 s
  Finished solving standard eigenproblem
  | Time :     0.000 s
  Finished back-transformation of eigenvectors
  | Time :     0.001 s
  Starting ELPA eigensolver
  Finished transformation to standard eigenproblem
  | Time :     0.000 s
  Finished solving standard eigenproblem
  | Time :     0.001 s
  Finished back-transformation of eigenvectors
  | Time :     0.000 s

  Obtaining occupation numbers and chemical potential using ELSI.
  | Chemical potential (Fermi level):    -8.42139221 eV
  Current spin moment of the entire structure :
  | N = N_up - N_down :    2.00
  | S                 :    1.00
  | J                 :    3.00

  Highest occupied state (VBM) at     -9.01750854 eV
  | Occupation number:      1.00000000
  | Spin channel:        1

  Lowest unoccupied state (CBM) at    -7.85524508 eV
  | Occupation number:      0.00000000
  | Spin channel:        2

  Overall HOMO-LUMO gap:      1.16226346 eV.

[...]
  | Electronic free energy        :       -2830.98184056 Ha      -77034.93537602 eV

  Derived energy quantities:
  | Kinetic energy                :        3027.93747685 Ha       82394.37092440 eV
  | Electrostatic energy          :       -5526.32753818 Ha     -150379.02351440 eV
  | Energy correction for multipole
  | error in Hartree potential    :          -0.00013459 Ha          -0.00366225 eV
  | Sum of eigenvalues per atom                           :      -15530.04998928 eV
  | Total energy (T->0) per atom                          :      -25678.31179201 eV  <-- do not rely on this value for anything but (periodic) metals
  | Electronic free energy per atom                       :      -25678.31179201 eV

  Self-consistency convergence accuracy:
  | Change of charge/spin density :  0.7720E+00  0.1395E+00
  | Change of sum of eigenvalues  : -0.4484E+02 eV
  | Change of total energy        :  0.7797E+01 eV

  End self-consistency iteration #     3       :  max(cpu_time)    wall_clock(cpu1)
  | Time for this iteration                    :        0.176 s           0.176 s
  | Charge density update                      :        0.038 s           0.038 s
  | Density mixing                             :        0.003 s           0.003 s
  | Hartree multipole update                   :        0.003 s           0.003 s
  | Hartree multipole summation                :        0.020 s           0.020 s
  | Integration                                :        0.047 s           0.047 s
  | Fock matrix evaluation                     :        0.062 s           0.062 s
  | Solution of K.-S. eqns.                    :        0.003 s           0.003 s
  | Total energy evaluation                    :        0.000 s           0.000 s

  Partial memory accounting:
  | Current value for overall tracked memory usage:
  |   Minimum:        1.088 MB (on task 3)
  |   Maximum:        1.950 MB (on task 7)
  |   Average:        1.221 MB
  | Peak value for overall tracked memory usage:
  |   Minimum:        2.357 MB (on task 3 after allocating d_coeff_3fn)
  |   Maximum:        3.100 MB (on task 7 after allocating d_coeff_3fn)
  |   Average:        2.456 MB
  | Largest tracked array allocation so far:
  |   Minimum:        1.477 MB (coeff_3fn on task 0)
  |   Maximum:        1.477 MB (coeff_3fn on task 0)
  |   Average:        1.477 MB
  Note:  These values currently only include a subset of arrays which are explicitly tracked.
  The "true" memory usage will be greater.
------------------------------------------------------------
  Obtaining max. number of non-zero basis functions in each batch .
  Evaluating KS electron density on previously omitted grid points.
  ------------------------------------------------------------
  Computing monopole / dipole moments
  | Total electronic charge [e]         :          0.680000000000000E+02
  | Total ionic charge [e]              :          0.690000000000000E+02
  | Total charge [e]                    :          0.100000000000000E+01
 * Warning: The system has a total charge of      1.00000000 .
 * The dipole moment depends on the choice of the origin.
  | Total dipole moment [eAng]          :          0.717413097668381E+00         0.125432258285540E-13         0.110727730522675E+01
  | Absolute dipole moment              :          0.131937279924074E+01 eAng              /                   0.633622998519065E+01 Debye  .
------------------------------------------------------------
  Quadrupole information:
  | electronic quadrupole moment [eAng^2]     :         -0.206187375611953E+03        -0.412673830295336E+02         0.247454758641486E+03
  | ionic quadrupole moment [eAng^2]          :         -0.212614093319838E+03        -0.395069931180588E+02         0.252121086437897E+03
  | Total quadrupole moment [eAng^2]          :         -0.642671770788547E+01         0.176038978298851E+01         0.466632792489712E+01

  Energy and forces in a compact form:
  | Total energy uncorrected      :         -0.770349353760239E+05 eV
  | Total energy corrected        :         -0.770349353760239E+05 eV  <-- do not rely on this value for anything but (periodic) metals
  | Electronic free energy        :         -0.770349353760239E+05 eV

  ------------------------------------ 
  Start decomposition of the XC Energy 
  ------------------------------------ 
  X and C from original XC functional choice 
  Hartree-Fock Energy :        -32.970772600 Ha           -897.180370483 eV
  X Energy            :       -132.178264126 Ha          -3596.753567683 eV
  C Energy            :         -2.908999988 Ha            -79.157917193 eV
  Total XC Energy     :       -135.087264115 Ha          -3675.911484876 eV
  ------------------------------------ 
  LDA X and C from self-consistent density 
  X Energy LDA        :       -123.828640533 Ha          -3369.548749644 eV
  C Energy LDA        :         -5.646900573 Ha           -153.659982736 eV
  ------------------------------------ 
  End decomposition of the XC Energy 
  ------------------------------------ 

------------------------------------------------------------

 ***********************************************************
 *
 * WARNING! SELF-CONSISTENCY CYCLE DID NOT CONVERGE
 * USING YOUR PRESELECTED ACCURACY CRITERIA.
 * DO NOT RELY ON ANY FINAL DATA WITHOUT FURTHER CHECKS.
 *
 ***********************************************************


  ------------------------------------------------------------
                   Starting Mulliken Analysis
  ------------------------------------------------------------

  ***************************************************************************
 * Warning: scf cycle was not converged!
 * Conducting final Mulliken analysis from non-converged wave functions -
 * the result could be complete rubbish.
 * Do not trust it without further testing.
  ***************************************************************************


  Performing Mulliken charge analysis on all atoms.
  Full analysis will be written to separate file 'Mulliken.out'.
  Summary of the per-atom charge analysis:
  |
  |  atom       electrons          charge             l=0             l=1             l=2
  |     1       21.669591        1.330409        6.559380       12.127326        2.982884
  |     2       23.163149       -0.163149        6.743603       12.132089        4.287458
  |     3       23.167260       -0.167260        6.744506       12.131955        4.290800
  |
  | Total       68.000000        1.000000
 
  Summary of the per-atom spin analysis:
  |
  |  atom   spin      l=0         l=1         l=2
  |     1   -1.328697   -0.099673   -0.005699   -1.223325
  |     2    1.674631    0.055652    0.004154    1.614825
  |     3    1.654065    0.053763    0.004289    1.596013
  |
  | Total    2.000000
 
  Writing Mulliken decomposition to disk ...

  Mulliken analysis                                       :  max(cpu_time)    wall_clock(cpu1)
  | Time for Mulliken analysis                            :          0.002               0.004
  | Total time for Mulliken analysis                      :          0.002               0.004
------------------------------------------------------------
  Performing Hirshfeld analysis of fragment charges and moments.
  ----------------------------------------------------------------------
  | Atom     1: V
  |   Hirshfeld charge        :      0.23396921
  |   Free atom volume        :    151.99727954
  |   Hirshfeld volume        :     96.79757115
  |   Hirshfeld spin moment   :     -0.83549914
  |   Hirshfeld dipole vector :     -0.35580621       0.00000000      -0.54721531
  |   Hirshfeld dipole moment :      0.65271943
  |   Hirshfeld second moments:      0.86177491      -0.00000000      -0.02056662
  |                                 -0.00000000       1.14871230      -0.00000000
  |                                 -0.02056662      -0.00000000       0.84292614
  ----------------------------------------------------------------------
  | Atom     2: V
  |   Hirshfeld charge        :      0.38391277
  |   Free atom volume        :    151.99727954
  |   Hirshfeld volume        :     96.08563288
  |   Hirshfeld spin moment   :      1.42695440
  |   Hirshfeld dipole vector :      0.63739072      -0.00000000      -0.08617997
  |   Hirshfeld dipole moment :      0.64319042
  |   Hirshfeld second moments:      0.83875583      -0.00000000      -0.02990908
  |                                 -0.00000000       1.17940935      -0.00000000
  |                                 -0.02990908      -0.00000000       0.92850703
  ----------------------------------------------------------------------
  | Atom     3: V
  |   Hirshfeld charge        :      0.38459056
  |   Free atom volume        :    151.99727954
  |   Hirshfeld volume        :     96.05638238
  |   Hirshfeld spin moment   :      1.40827265
  |   Hirshfeld dipole vector :     -0.33849425       0.00000000       0.54651844
  |   Hirshfeld dipole moment :      0.64285360
  |   Hirshfeld second moments:      0.93644964      -0.00000000       0.01329594
  |                                 -0.00000000       1.18033104       0.00000000
  |                                  0.01329594       0.00000000       0.83183209
  ----------------------------------------------------------------------


  ------------------------------------------------------------
                      Starting Cube Output
  ------------------------------------------------------------

  The following cube files will be created:

  --------------------------------------
    Cube file:            1
    cube origin       0.6660      0.0000      1.0260
    cube edge 64      0.2000      0.0000      0.0000
    cube edge 64      0.0000      0.2000      0.0000
    cube edge 64      0.0000      0.0000      0.2000
    cube filename: total_density.cube
  --------------------------------------
    Cube file:            2
    cube origin       0.6660      0.0000      1.0260
    cube edge 64      0.2000      0.0000      0.0000
    cube edge 64      0.0000      0.2000      0.0000
    cube edge 64      0.0000      0.0000      0.2000
    cube filename: spin_density.cube
  --------------------------------------

  * WARNING: The output  of  the cube file is in 1/Ang^3  or
  * WARNING: 1/Ang^3/2,  but  the cube voxel  definition  is
  * WARNING: in atomic units. Be careful when postprocessing
  * WARNING: Consistent units can be chosen in control.in by
  *               cube_content_unit  bohr

  Evaluating density matrix
  Evaluating density matrix
 
   Starting cube            1
   Cube will be divided in
     7 minicubes along the first,
     7 minicubes along the second, and
     7 minicubes along the third cube edge
   Dividing grid points on processors
   Cube file 1 finished.

  Evaluating density matrix
  Evaluating density matrix
 
   Starting cube            2
   Cube will be divided in
     7 minicubes along the first,
     7 minicubes along the second, and
     7 minicubes along the third cube edge
   Dividing grid points on processors
   Cube file 2 finished.

  Cube output                                             :  max(cpu_time)    wall_clock(cpu1)
  | Total time for cube output                            :          0.598               0.639
------------------------------------------------------------
  |------------------------------------------------------
  | Final ELSI Output
  |------------------------------------------------------
  |
  | Physical Properties
  |   Number of electrons       :        0.68000000E+02
  |   Number of spins           :                     1
  |   Number of k-points        :                     1
  |   Number of states          :                    49
  |
  | Matrix Properties
  |   Matrix format             :           BLACS_DENSE
  |   Number of basis functions :                    72
  |   Matrix sparsity           :        0.41512346E+00
  |
  | Computational Details
  |   Parallel mode             :            MULTI_PROC
  |   Number of MPI tasks       :                     8
  |   Solver requested          :                  ELPA
  |   Number of ELSI calls      :                     8
  |
  |------------------------------------------------------
  | ELSI Project (c)  elsi-interchange.org
  |------------------------------------------------------

------------------------------------------------------------------------------
  Final output of selected total energy values:

  The following output summarizes some interesting total energy values
  at the end of a run (AFTER all relaxation, molecular dynamics, etc.).

  | Total energy of the DFT / Hartree-Fock s.c.f. calculation      :         -77034.935376024 eV
  | Final zero-broadening corrected energy (caution - metals only) :         -77034.935376024 eV
  | For reference only, the value of 1 Hartree used in FHI-aims is :             27.211384500 eV

  Before relying on these values, please be sure to understand exactly which
  total energy value is referred to by a given number. Different objects may
  all carry the same name 'total energy'. Definitions:

  Total energy of the DFT / Hartree-Fock s.c.f. calculation:
  | Note that this energy does not include ANY quantities calculated after the
  | s.c.f. cycle, in particular not ANY RPA, MP2, etc. many-body perturbation terms.

  Final zero-broadening corrected energy:
  | For metallic systems only, a broadening of the occupation numbers at the Fermi
  | level can be extrapolated back to zero broadening by an electron-gas inspired
  | formula. For all systems that are not real metals, this value can be
  | meaningless and should be avoided.

------------------------------------------------------------------------------
  Methods described in the following list of references were used in this FHI-aims run.
  If you publish the results, please make sure to cite these reference if they apply.
  FHI-aims is an academic code, and for our developers (often, Ph.D. students
  and postdocs), scientific credit in the community is essential.
  Thank you for helping us!

  For any use of FHI-aims, please cite:

    Volker Blum, Ralf Gehrke, Felix Hanke, Paula Havu, Ville Havu,
    Xinguo Ren, Karsten Reuter, and Matthias Scheffler
    'Ab initio molecular simulations with numeric atom-centered orbitals'
    Computer Physics Communications 180, 2175-2196 (2009)
    http://dx.doi.org/10.1016/j.cpc.2009.06.022


  For Hartree-Fock, hybrid functionals, or many-body perturbation theory used in your run, please cite:

    Xinguo Ren, Patrick Rinke, Volker Blum, Juergen Wieferink, Alex Tkatchenko,
    Andrea Sanfilippo, Karsten Reuter, and Matthias Scheffler,
    'Resolution-of-identity approach to Hartree-Fock, hybrid density functionals,
    RPA, MP2, and GW with numeric atom-centered orbital basis functions'
    New Journal of Physics 14, 053020 (2012).
    http://dx.doi.org/10.1088/1367-2630/14/5/053020


  The ELSI infrastructure was used in your run to solve the Kohn-Sham electronic structure.
  Please check out http://elsi-interchange.org to learn more.
  If scalability is important for your project, please acknowledge ELSI by citing:

    V. W-z. Yu, F. Corsetti, A. Garcia, W. P. Huhn, M. Jacquelin, W. Jia,
    B. Lange, L. Lin, J. Lu, W. Mi, A. Seifitokaldani, A. Vazquez-Mayagoitia,
    C. Yang, H. Yang, and V. Blum
    'ELSI: A unified software interface for Kohn-Sham electronic structure solvers'
    Computer Physics Communications 222, 267-285 (2018).
    http://dx.doi.org/10.1016/j.cpc.2017.09.007


  For the real-space grid partitioning and parallelization used in this calculation, please cite:

    Ville Havu, Volker Blum, Paula Havu, and Matthias Scheffler,
    'Efficient O(N) integration for all-electron electronic structure calculation'
    'using numerically tabulated basis functions'
    Journal of Computational Physics 228, 8367-8379 (2009).
    http://dx.doi.org/10.1016/j.jcp.2009.08.008


  The high-level electronic structure method used in your calculation
  employed our efficient localized resolution of identity for the Coulomb operator.
  Some calculations, especially large-scale hybrid density functional theory,
  are only possible thanks to this development. For this feature, please cite:

    Arvid Ihrig, Juergen Wieferink, Igor Ying Zhang, Matti Ropo, Xinguo Ren,
    Patrick Rinke, Matthias Scheffler, and Volker Blum,
    'Accurate localized resolution of identity approach for linear-scaling
    hybrid density functionals and for many-body perturbation theory'
    New Journal of Physics 117, 093020 (2015).
    http://dx.doi.org/10.1088/1367-2630/17/9/093020

  Of course, there are many other important community references, e.g., those cited in the
  above references. Our list is limited to references that describe implementations in the
  FHI-aims code. The reason is purely practical (length of this list) - please credit others as well.

 * A warning regarding the cube file format (cube_content_unit legacy)
 * was issued above. The output is Angstrom-based but the cube voxel
 * definition is in atomic units. Please check carefully.

------------------------------------------------------------
          Leaving FHI-aims.
          Date     :  20190817, Time     :  153213.431

          Computational steps:
          | Number of self-consistency cycles          :            3
          | Number of SCF (re)initializations          :            1

          Detailed time accounting                     :  max(cpu_time)    wall_clock(cpu1)
          | Total time                                 :        3.170 s           3.240 s
          | Preparation time                           :        0.570 s           0.570 s
          | Boundary condition initalization           :        0.000 s           0.000 s
          | Grid partitioning                          :        0.029 s           0.029 s
          | Preloading free-atom quantities on grid    :        0.008 s           0.008 s
          | Free-atom superposition energy             :        0.011 s           0.010 s
          | Total time for integrations                :        0.205 s           0.204 s
          | Product basis setup: Total time            :        1.220 s           1.236 s
          | Total time evaluating exchange matrix      :        0.189 s           0.237 s
          | Total time for solution of K.-S. equations :        0.015 s           0.016 s
          | Total time for density update              :        0.118 s           0.118 s
          | Total time for mixing                      :        0.006 s           0.006 s
          | Total time for Hartree multipole update    :        0.008 s           0.009 s
          | Total time for Hartree multipole sum       :        0.060 s           0.061 s
          | Total time for total energy evaluation     :        0.001 s           0.001 s
          | Total time for Mulliken analysis           :        0.002 s           0.004 s
          | Total time for cube output                 :        0.598 s           0.639 s

          Partial memory accounting:
          | Residual value for overall tracked memory usage across tasks:     0.000000 MB (should be 0.000000 MB)
          | Peak values for overall tracked memory usage:
          |   Minimum:        2.357 MB (on task 3 after allocating d_coeff_3fn)
          |   Maximum:        3.100 MB (on task 7 after allocating d_coeff_3fn)
          |   Average:        2.456 MB
          | Largest tracked array allocation:
          |   Minimum:        1.477 MB (coeff_3fn on task 0)
          |   Maximum:        1.477 MB (coeff_3fn on task 0)
          |   Average:        1.477 MB
          Note:  These values currently only include a subset of arrays which are explicitly tracked.
          The "true" memory usage will be greater.

------------------------------------------------------------
