  MPI-parallelism will be employed.
------------------------------------------------------------
          Invoking FHI-aims ...
          Version 171221
          Git rev.: 70e78bb6 VB: Updated error message for aborted rel[...]
          Compiled on 2017/12/22 at 19:14:53 on host egr-vwb3-mbp2.local.

          When using FHI-aims, please cite the following reference:

          Volker Blum, Ralf Gehrke, Felix Hanke, Paula Havu,
          Ville Havu, Xinguo Ren, Karsten Reuter, and Matthias Scheffler,
          'Ab Initio Molecular Simulations with Numeric Atom-Centered Orbitals',
          Computer Physics Communications 180, 2175-2196 (2009)

          For any questions about FHI-aims, please visit the aimsclub website
          with its forums and wiki. Contributions to both the forums and the
          wiki are warmly encouraged - they are for you, and everyone is welcome there.

------------------------------------------------------------



  Date     :  20171223, Time     :  122037.898
  Time zero on CPU 1             :   0.834300000000000E-01  s.
  Internal wall clock time zero  :           283263637.898  s.

  FHI-aims created a unique identifier for this run for later identification
  aims_uuid : 47F94293-24E5-4C16-AC05-DF11861A036F

  Using        4 parallel tasks.
  Task        0 on host egr-vwb3-mbp2.netgear.com reporting.
  Task        1 on host egr-vwb3-mbp2.netgear.com reporting.
  Task        2 on host egr-vwb3-mbp2.netgear.com reporting.
  Task        3 on host egr-vwb3-mbp2.netgear.com reporting.

  Performing system and environment tests:
  *** Environment variable OMP_NUM_THREADS is not set
  *** For performance reasons you might want to set it to 1
  | Maximum stacksize for task 0: 48 [Mb]
  | Maximum stacksize for task 1: 48 [Mb]
  | Maximum stacksize for task 2: 48 [Mb]
  | Maximum stacksize for task 3: 48 [Mb]
   *** Stacksize is not set to unlimited. This might cause problems...
  | Current stacksize for task 0: 48 [Mb]
  | Current stacksize for task 1: 48 [Mb]
  | Current stacksize for task 2: 48 [Mb]
  | Current stacksize for task 3: 48 [Mb]
  | Checking for scalapack...
  | Testing pdtran()...
  | All pdtran() tests passed.

  Obtaining array dimensions for all initial allocations:
  
  -----------------------------------------------------------------------
  Parsing control.in (first pass over file, find array dimensions only).
  The contents of control.in will be repeated verbatim below
  unless switched off by setting 'verbatim_writeout .false.' .
  in the first line of control.in .
  -----------------------------------------------------------------------
  
  #########################################################################################
  #
  #  Volker Blum, 2016 : Test run input file control.in for Au_2
  #
  #########################################################################################
  #
  #  Physical model
  #
    xc                 pw-lda
    spin               none
    relativistic       atomic_zora scalar
    charge             0.
  #
  #  Relaxation
  #
    relax_geometry   bfgs 1.e-2
  #
  
  ################################################################################
  #
  #  FHI-aims code project
  #  VB, Fritz-Haber Institut, 2009
  #
  #  Suggested "light" defaults for Au atom (to be pasted into control.in file)
  #  Be sure to double-check any results obtained with these settings for post-processing,
  #  e.g., with the "tight" defaults and larger basis sets.
  #
  ################################################################################
    species        Au
  #     global species definitions
      nucleus             79
      mass                196.966569
  #
      l_hartree           4
  #
      cut_pot             3.5  1.5  1.0
      basis_dep_cutoff    1e-4
  #
      radial_base         73 5.0
      radial_multiplier   1
      angular_grids specified
        division   0.5066   50
        division   0.9861  110
        division   1.2821  194
        division   1.5344  302
  #      division   2.0427  434
  #      division   2.1690  590
  #      division   2.2710  770
  #      division   2.3066  974
  #      division   2.7597 1202
  #      outer_grid 974
        outer_grid 302
  ################################################################################
  #
  #  Definition of "minimal" basis
  #
  ################################################################################
  #     valence basis states
      valence      6  s   1.
      valence      5  p   6.
      valence      5  d  10.
      valence      4  f  14.
  #     ion occupancy
      ion_occ     6  s   0.
      ion_occ     5  p   6.
      ion_occ     5  d   9.
      ion_occ     4  f   14.
  ################################################################################
  #
  #  Suggested additional basis functions. For production calculations,
  #  uncomment them one after another (the most important basis functions are
  #  listed first).
  #
  #  Constructed for dimers: 2.10, 2.45, 3.00, 4.00 AA
  #
  ################################################################################
  #  "First tier" - max. impr. -161.60  meV, min. impr. -4.53 meV
       ionic 6 p auto
       hydro 4 f 7.4
       ionic 6 s auto
  #     hydro 5 g 10
  #     hydro 6 h 12.8
       hydro 3 d 2.5
  #  "Second tier" - max. impr. -2.46  meV, min. impr. -0.28 meV
  #     hydro 5 f 14.8
  #     hydro 4 d 3.9
  #     hydro 3 p 3.3
  #     hydro 1 s 0.45
  #     hydro 5 g 16.4
  #     hydro 6 h 13.6
  #  "Third tier" - max. impr. -0.49  meV, min. impr. -0.09 meV
  #     hydro 4 f 5.2
  #     hydro 4 d 5
  #     hydro 5 g 8
  #     hydro 5 p 8.2
  #     hydro 6 d 12.4
  #     hydro 6 s 14.8
  #  Further basis functions: -0.08 meV and below
  #     hydro 5 f 18.8
  #     hydro 5 g 20
  #    hydro 5 g 15.2
  
  -----------------------------------------------------------------------
  Completed first pass over input file control.in .
  -----------------------------------------------------------------------
  
  
  -----------------------------------------------------------------------
  Parsing geometry.in (first pass over file, find array dimensions only).
  The contents of geometry.in will be repeated verbatim below
  unless switched off by setting 'verbatim_writeout .false.' .
  in the first line of geometry.in .
  -----------------------------------------------------------------------
  
  atom     0.0   0.0   0.0  Au
  atom     0.0   0.0   3.0  Au
  
  -----------------------------------------------------------------------
  Completed first pass over input file geometry.in .
  -----------------------------------------------------------------------
  

  Basic array size parameters:
  | Number of species                 :        1
  | Number of atoms                   :        2
  | Max. basis fn. angular momentum   :        3
  | Max. atomic/ionic basis occupied n:        6
  | Max. number of basis fn. types    :        3
  | Max. radial fns per species/type  :       14
  | Max. logarithmic grid size        :     1488
  | Max. radial integration grid size :       73
  | Max. angular integration grid size:      302
  | Max. angular grid division number :        8
  | Radial grid for Hartree potential :     1488
  | Number of spin channels           :        1

------------------------------------------------------------
          Reading file control.in.
------------------------------------------------------------
  XC: Using Perdew-Wang parametrisation of Ceperley-Alder LDA.
  Spin treatment: No spin polarisation.
  Scalar relativistic treatment of kinetic energy: on-site free-atom approximation to ZORA.
  Charge =   0.000000E+00: Neutral system requested explicitly.
  Geometry relaxation: Modified BFGS - TRM (trust radius method, i.e., trusted quadratic extrapolation).
  Convergence accuracy for geometry relaxation: Maximum force <   0.100000E-01 eV/A.
 
  Reading configuration options for species Au                  .
  | Found nuclear charge :  79.0000
  | Found atomic mass :    196.966569000000      amu
  | Found l_max for Hartree potential  :   4
  | Found cutoff potl. onset [A], width [A], scale factor :    3.50000    1.50000    1.00000
  | Threshold for basis-dependent cutoff potential is   0.100000E-03
  | Found data for basic radial integration grid :    73 points, outermost radius =    5.000 A
  | Found multiplier for basic radial grid :   1
  | Found angular grid specification: user-specified.
  | Specified grid contains     5 separate shells.
  | Check grid settings after all constraints further below.
  | Found free-atom valence shell :  6 s   1.000
  | Found free-atom valence shell :  5 p   6.000
  | Found free-atom valence shell :  5 d  10.000
  | Found free-atom valence shell :  4 f  14.000
  | Found free-ion valence shell :  6 s   0.000
  | Found free-ion valence shell :  5 p   6.000
  | Found free-ion valence shell :  5 d   9.000
  | Found free-ion valence shell :  4 f  14.000
  | Found ionic basis function :  6 p , default cutoff radius.
  | Found hydrogenic basis function :  4 f   7.400
  | Found ionic basis function :  6 s , default cutoff radius.
  | Found hydrogenic basis function :  3 d   2.500
  Species Au                  : Missing cutoff potential type.
  Defaulting to exp(1/x)/(1-x)^2 type cutoff potential.
  Species Au: No 'logarithmic' tag. Using default grid for free atom:
  | Default logarithmic grid data [bohr] : 0.1000E-03 0.1000E+03 0.1012E+01
  | Will include ionic basis functions of  2.0-fold positive Au                   ion.
  Species Au: On-site basis accuracy parameter (for Gram-Schmidt orthonormalisation) not specified.
  Using default value basis_acc =  0.1000000E-03.
  Species Au                  : Using default innermost maximum threshold i_radial=  2 for radial functions.
  Species Au                  : Default cutoff onset for free atom density etc. : 0.35000000E+01 AA.
  Species Au                  : Basic radial grid will be enhanced according to radial_multiplier =   1, to contain    73 grid points.
 
  Finished reading input file 'control.in'. Consistency checks are next.
 
  MPI_IN_PLACE appears to work with this MPI implementation.
  | Keeping use_mpi_in_place .true. (see manual).
  Target number of points in a grid batch is not set. Defaulting to  100
  Method for grid partitioning is not set. Defaulting to parallel hash+maxmin partitioning.
  Batch size limit is not set. Defaulting to    200
  By default, will store active basis functions for each batch.
  If in need of memory, prune_basis_once .false. can be used to disable this option.
  communication_type for Hartree potential was not specified.
  Defaulting to calc_hartree .
  Defaulting to Pulay charge density mixer.
  Pulay mixer: Number of relevant iterations not set.
  Defaulting to    8 iterations.
  Pulay mixer: Number of initial linear mixing iterations not set.
  Defaulting to    0 iterations.
  Work space size for distributed Hartree potential not set.
  Defaulting to   0.200000E+03 MB.
  Mixing parameter for charge density mixing has not been set.
  Using default: charge_mix_param =     0.0500.
  The mixing parameter will be adjusted in iteration number     2 of the first full s.c.f. cycle only.
  Algorithm-dependent basis array size parameters:
  | n_max_pulay                         :        8
 * Notice: The s.c.f. convergence criterion sc_accuracy_rho was not provided.
 * We used to stop in this case, and ask the user to provide reasonable
 * scf convergence criteria. However, this led some users to employ criteria
 * that led to extremely long run times, e.g., for simple relaxation.
 * We now preset a default value for sc_accuracy_rho if it is not set.
 * You may still wish to check if this setting is too tight or too loose for your needs.
 * Based on n_atoms, FHI-aims chose sc_accuracy_rho =  0.100000E-05 .
  Maximum number of self-consistency iterations not provided.
  Presetting  1000 iterations.
  Presetting        40 iterations before the initial mixing cycle
  is restarted anyway using the sc_init_iter criterion / keyword.
  Presetting a factor      1.000 between actual scf density residual
  and density convergence criterion sc_accuracy_rho below which sc_init_iter
  takes no effect.
 * No s.c.f. convergence criteria (sc_accuracy_*) were provided in control.in.
 * The run will proceed with a reasonable default guess, but please check whether.
 * the s.c.f. cycles seem to take too much or too little time.
  No maximum number of relaxation steps, defaulting to     1000
  Default initial Hessian is Lindh matrix (thres = 15.00) plus  0.200000E+01 eV/A^2 times unity.
  No maximum energy tolerance for TRM/BFGS moves, defaulting to   0.200000E-03
  No harmonic length scale. Defaulting to   0.250000E-01 A.
  No trust radius initializer. Defaulting to   0.200000E+00 A.
  Force calculation: scf convergence accuracy of forces not set.
  Defaulting to 'sc_accuracy_forces not_checked'.
  Handling of forces: Unphysical translation and rotation will be removed from forces.
  No accuracy limit for integral partition fn. given. Defaulting to  0.1000E-14.
  No threshold value for u(r) in integrations given. Defaulting to  0.1000E-05.
  No occupation type (smearing scheme) given. Defaulting to Gaussian broadening, width =  0.1000E-01 eV.
  The width will be adjusted in iteration number     2 of the first full s.c.f. cycle only.
  S.C.F. convergence parameters will be adjusted in iteration number     2 of the first full s.c.f. cycle only.
  No accuracy for occupation numbers given. Defaulting to  0.1000E-12.
  No threshold value for occupation numbers given. Defaulting to  0.0000E+00.
  No accuracy for fermi level given. Defaulting to  0.1000E-19.
  Maximum # of iterations to find E_F not set. Defaulting to  200.
  Preferred method for the eigenvalue solver ('KS_method') not specified in 'control.in'.
  Calling BLACS routine to test compilation state
  Since ScaLAPACK support is enabled, defaulting to 'elsi'.
  Will not use alltoall communication since running on < 1024 CPUs.
  Threshold for basis singularities not set.
  Default threshold for basis singularities:  0.1000E-04
  partition_type (choice of integration weights) for integrals was not specified.
  | Using a version of the partition function of Stratmann and coworkers ('stratmann_smoother').
  | At each grid point, the set of atoms used to build the partition table is smoothly restricted to
  | only those atoms whose free-atom density would be non-zero at that grid point.
  Partitioning for Hartree potential was not defined. Using partition_type for integrals.
  | Adjusted default value of keyword multip_moments_threshold to:       0.10000000E-11
  | This value may affect high angular momentum components of the Hartree potential in periodic systems.
  No q(lm)/r^(l+1) cutoff set for long-range Hartree potential.
  | Using default value of  0.100000E-09 .
  | Verify using the multipole_threshold keyword.
  Defaulting to new monopole extrapolation.
  Density update method: automatic selection selected.
  Geometry relaxation: A file "geometry.in.next_step" is written out by default after each step.
  | This file contains the geometry of the current relaxation step as well as
  | the current Hessian matrix needed to restart the relaxation algorithm.
  | If you do not want part or all of this information, use the keywords
  | "write_restart_geometry" or "hessian_to_restart_geometry" to switch the output off.
------------------------------------------------------------


------------------------------------------------------------
          Reading geometry description geometry.in.
------------------------------------------------------------
  Input structure read successfully.
  The structure contains        2 atoms,  and a total of        158.000 electrons.

  Input geometry:
  | No unit cell requested.
  | Atomic structure:
  |       Atom                x [A]            y [A]            z [A]
  |    1: Species Au            0.00000000        0.00000000        0.00000000
  |    2: Species Au            0.00000000        0.00000000        3.00000000
  |

  | The smallest distance between any two atoms is         3.00000000 AA.
  |
  | The first atom of this pair is atom number                      1 .
  | The second atom of this pair is atom number                     2 .

  Number of empty states per atom not set in control.in - providing a guess from actual geometry.
  | Total number of empty states used during s.c.f. cycle:       18
  If you use a very high smearing, use empty_states (per atom!) in control.in to increase this value.

  Structure-dependent array size parameters: 
  | Maximum number of distinct radial functions  :       18
  | Maximum number of basis functions            :      112
  | Number of Kohn-Sham states (occupied + empty):       97
------------------------------------------------------------

------------------------------------------------------------
          Preparing all fixed parts of the calculation.
------------------------------------------------------------
  Determining machine precision:
    2.225073858507201E-308
  Setting up grids for atomic and cluster calculations.

  Creating wave function, potential, and density for free atoms.

  Species: Au

  List of occupied orbitals and eigenvalues:
    n    l              occ      energy [Ha]    energy [eV]
    1    0           2.0000     -3253.501165    -88532.2712
    2    0           2.0000      -533.270055    -14511.0165
    3    0           2.0000      -124.130958     -3377.7752
    4    0           2.0000       -26.797942      -729.2091
    5    0           2.0000        -3.989734      -108.5662
    6    0           1.0000        -0.219521        -5.9735
    2    1           6.0000      -460.270091    -12524.5864
    3    1           6.0000      -103.425619     -2814.3543
    4    1           6.0000       -20.052147      -545.6467
    5    1           6.0000        -2.200500       -59.8786
    3    2          10.0000       -81.375479     -2214.3395
    4    2          10.0000       -11.974536      -325.8437
    5    2          10.0000        -0.258353        -7.0301
    4    3          14.0000        -3.003011       -81.7161

  Creating fixed part of basis set: Ionic, confined, hydrogenic.
 
  Au                   ion:

  List of free ionic orbitals and eigenvalues:
    n    l      energy [Ha]    energy [eV]
    1    0     -3254.377409    -88556.1150
    2    0      -534.086180    -14533.2244
    3    0      -124.937984     -3399.7355
    4    0       -27.602784      -751.1100
    5    0        -4.790082      -130.3448
    2    1      -461.084679    -12546.7525
    3    1      -104.232198     -2836.3024
    4    1       -20.856809      -567.5427
    5    1        -2.996012       -81.5256
    3    2       -82.181550     -2236.2738
    4    2       -12.778936      -347.7325
    5    2        -1.015310       -27.6280
    4    3        -3.806916      -103.5915


  List of ionic basis orbitals and eigenvalues:
    n    l      energy [Ha]    energy [eV]    outer radius [A]
    6    1        -0.542968       -14.7749       4.560053
    6    0        -0.850591       -23.1458       4.504645

 
  Au                   hydrogenic:
 
  List of hydrogenic basis orbitals: 
    n    l      effective z      eigenvalue [eV]  inner max. [A]     outer max. [A]     outer radius [A]   
    4    3         7.400000       -46.5648           1.145580           1.145580           4.504645
    3    2         2.500000        -9.0892           1.822958           1.822958           4.616141
 

  Adding cutoff potential to free-atom effective potential.
  Creating atomic-like basis functions for current effective potential.

  Species Au                  :

  List of atomic basis orbitals and eigenvalues:
    n    l      energy [Ha]    energy [eV]    outer radius [A]
    1    0     -3253.501165    -88532.2712       0.120816
    2    0      -533.270055    -14511.0165       0.313506
    3    0      -124.130958     -3377.7752       0.660860
    4    0       -26.797942      -729.2091       1.376144
    5    0        -3.989734      -108.5662       3.318406
    6    0        -0.219521        -5.9735       4.560053
    2    1      -460.270091    -12524.5864       0.329217
    3    1      -103.425619     -2814.3543       0.702515
    4    1       -20.052147      -545.6467       1.536198
    5    1        -2.200500       -59.8786       4.035315
    3    2       -81.375479     -2214.3395       0.755981
    4    2       -11.974536      -325.8437       1.868078
    5    2        -0.258353        -7.0301       4.504645
    4    3        -3.003011       -81.7161       3.160040

  Assembling full basis from fixed parts.
  | Species Au :   atomic orbital   1 s accepted.
  | Species Au :   atomic orbital   2 s accepted.
  | Species Au :   atomic orbital   3 s accepted.
  | Species Au :   atomic orbital   4 s accepted.
  | Species Au :   atomic orbital   5 s accepted.
  | Species Au :    ionic orbital   6 s accepted.
  | Species Au :   atomic orbital   6 s accepted.
  | Species Au :   atomic orbital   2 p accepted.
  | Species Au :   atomic orbital   3 p accepted.
  | Species Au :   atomic orbital   4 p accepted.
  | Species Au :   atomic orbital   5 p accepted.
  | Species Au :    ionic orbital   6 p accepted.
  | Species Au :   atomic orbital   3 d accepted.
  | Species Au :   atomic orbital   4 d accepted.
  | Species Au :   atomic orbital   5 d accepted.
  | Species Au :    hydro orbital   3 d accepted.
  | Species Au :   atomic orbital   4 f accepted.
  | Species Au :    hydro orbital   4 f accepted.
 
  Basis size parameters after reduction:
  | Total number of radial functions:       18
  | Total number of basis functions :      112
 
  Per-task memory consumption for arrays in subroutine allocate_ext:
  |           6.860096MB.
  Testing on-site integration grid accuracy.
  |  Species  Function  <phi|h_atom|phi> (log., in eV)  <phi|h_atom|phi> (rad., in eV)
           1        1             -88532.2711830858             -88531.9398390363 ***
           1        2             -14511.0165084552             -14511.0101455216
           1        3              -3377.7752319069              -3377.7748863373
           1        4               -729.2090996991               -729.2090733130
           1        5               -108.5661968367               -108.5661932910
           1        6                 -5.3855913612                 -5.3856998606
           1        7                  6.2266244886                  6.1992215682
           1        8             -12524.5864306426             -12524.5864216363
           1        9              -2814.3542956521              -2814.3542801311
           1       10               -545.6466867315               -545.6466809546
           1       11                -59.8786391400                -59.8786374004
           1       12                  0.7245319193                  0.7225851611
           1       13              -2214.3394591899              -2214.3394539287
           1       14               -325.8437143073               -325.8437117931
           1       15                 -7.0304648770                 -7.0305588780
           1       16                  6.6988350376                  6.6747734543
           1       17                -81.7160863490                -81.7160858065
           1       18                 21.3702397256                 21.3702228770
 * Note: Onsite integrals marked "***" above are less accurate than
 * onsite_accuracy_threshold =    0.03000 eV. Usually, this is harmless.
 * However, one integral did have a negative value. This integral could be important.
 * When in doubt, tighten the "radial" and/or "radial_multiplier" flags to check.

  Preparing densities etc. for the partition functions (integrals / Hartree potential).

  Preparations completed.
  max(cpu_time)          :      0.259 s.
  Wall clock time (cpu1) :      0.285 s.
------------------------------------------------------------

------------------------------------------------------------
          Begin self-consistency loop: Initialization.

          Date     :  20171223, Time     :  122038.281
------------------------------------------------------------

  Initializing index lists of integration centers etc. from given atomic structure:
  | Number of centers in hartree potential         :         2
  | Number of centers in hartree multipole         :         2
  | Number of centers in electron density summation:         2
  | Number of centers in basis integrals           :         2
  | Number of centers in integrals                 :         2
  | Number of centers in hamiltonian               :         2
  Initializing relaxation algorithms.
  * Using 4 tasks for Scalapack Eigenvalue solver.
  Detailed listing of tasks and assigned k-points:
  (for non-periodic systems, the "k-point" denotes an internal label only)
   Task     0 k-point     1 on egr-vwb3-mbp2.netgear.com
   Task     1 k-point     1 on egr-vwb3-mbp2.netgear.com
   Task     2 k-point     1 on egr-vwb3-mbp2.netgear.com
   Task     3 k-point     1 on egr-vwb3-mbp2.netgear.com
  Tasks:     4 split into      2 X      2 BLACS grid
  Calculating block size based on n_basis =          112  max_nprow =            2  max_npcol =            2
  ScaLAPACK block size set to:           16
  Allocating        0.033 MB for ovlp
  Allocating        0.033 MB for ham
  Allocating        0.033 MB for eigenvec
  Required Scalapack workspace - INTEGER:            1  REAL:             1
  Partitioning the integration grid into batches with parallel hashing+maxmin method.
  | Number of batches:      240
  | Maximal batch size:     158
  | Minimal batch size:      62
  | Average batch size:      76.017
  | Standard deviation of batch sizes:      16.680

  Integration load balanced across     4 MPI tasks.
  Work distribution over tasks is as follows:
  Task     0 has       4525 integration points.
  Task     1 has       4500 integration points.
  Task     2 has       4629 integration points.
  Task     3 has       4590 integration points.
  Initializing partition tables, free-atom densities, potentials, etc. across the integration grid (initialize_grid_storage).
  | initialize_grid_storage: Actual outermost partition radius vs. multipole_radius_free
  | (-- VB: in principle, multipole_radius_free should be larger, hence this output)
  | Species        1: Confinement radius =              4.999999999999999 AA, multipole_radius_free =              5.028561921230412 AA.
  | Species        1: outer_partition_radius set to              5.028561921230412 AA .
  | Original list of interatomic distances with           2 x          2 entries is created.
  | Net number of integration points:    18244
  | of which are non-zero points    :    18040
  Renormalizing the initial density to the exact electron count on the 3D integration grid.
  | Initial density: Formal number of electrons (from input files) :     158.0000000000
  | Integrated number of electrons on 3D grid     :     157.9999386777
  | Charge integration error                      :      -0.0000613223
  | Normalization factor for density and gradient :       1.0000003881
  Obtaining max. number of non-zero basis functions in each batch (get_n_compute_maxes).
  | Maximal number of non-zero basis functions:       93 in task     0
  | Maximal number of non-zero basis functions:       93 in task     1
  | Maximal number of non-zero basis functions:       93 in task     2
  | Maximal number of non-zero basis functions:       89 in task     3
  Selecting the method for density update.
  Loop over occupied states selected for charge density update.
  Allocating        0.087 MB for KS_eigenvector
  Integrating Hamiltonian matrix: batch-based integration.
  Time summed over all CPUs for integration: real work        0.059 s, elapsed        0.060 s
  Integrating overlap matrix.
  Time summed over all CPUs for integration: real work        0.029 s, elapsed        0.036 s
  Deallocating overlap matrix.

  Updating Kohn-Sham eigenvalues and eigenvectors using ELSI and the ELPA eigensolver.
  ELPA settings:
  | ELPA solver          1
  | Time full => band           :     0.015 s
  | Time band => tridiagonal    :     0.002 s
  | Time solve tridiagonal      :     0.003 s
  Overlap matrix is nonsingular
  | Lowest eigenvalue of overlap  :  0.70E-01
  | Highest eigenvalue of overlap :  0.19E+01
  Finished singularity check of overlap matrix
  | Time :     0.019 s
  Finished Cholesky decomposition
  | Time :     0.003 s
  Finished transformation to standard eigenproblem
  | Time :     0.000 s
  Starting ELPA eigensolver
  | Time full => tridiagonal    :     0.001 s
  | Time solve tridiagonal      :     0.000 s
  | Time ev tridiagonal => full :     0.001 s
  Finished solving standard eigenproblem
  | Time :     0.002 s
  Finished back-transformation of eigenvectors
  | Time :     0.000 s

  Obtaining occupation numbers and chemical potential using ELSI.
  | Chemical potential (Fermi level):    -6.30024318eV
  Writing Kohn-Sham eigenvalues.

  State    Occupation    Eigenvalue [Ha]    Eigenvalue [eV]
      1       2.00000       -3253.501392       -88532.27735
      2       2.00000       -3253.501392       -88532.27735
      3       2.00000        -533.270280       -14511.02262
      4       2.00000        -533.270280       -14511.02262
      5       2.00000        -460.270317       -12524.59257
      6       2.00000        -460.270317       -12524.59257
      7       2.00000        -460.270316       -12524.59253
      8       2.00000        -460.270316       -12524.59253
      9       2.00000        -460.270316       -12524.59253
     10       2.00000        -460.270316       -12524.59253
     11       2.00000        -124.131188        -3377.78148
     12       2.00000        -124.131188        -3377.78148
     13       2.00000        -103.425856        -2814.36075
     14       2.00000        -103.425856        -2814.36075
     15       2.00000        -103.425846        -2814.36046
     16       2.00000        -103.425846        -2814.36046
     17       2.00000        -103.425846        -2814.36046
     18       2.00000        -103.425846        -2814.36046
     19       2.00000         -81.375713        -2214.34581
     20       2.00000         -81.375713        -2214.34581
     21       2.00000         -81.375711        -2214.34575
     22       2.00000         -81.375711        -2214.34575
     23       2.00000         -81.375711        -2214.34575
     24       2.00000         -81.375711        -2214.34575
     25       2.00000         -81.375704        -2214.34558
     26       2.00000         -81.375704        -2214.34558
     27       2.00000         -81.375704        -2214.34558
     28       2.00000         -81.375704        -2214.34558
     29       2.00000         -26.798200         -729.21614
     30       2.00000         -26.798200         -729.21614
     31       2.00000         -20.052452         -545.65498
     32       2.00000         -20.052452         -545.65498
     33       2.00000         -20.052391         -545.65332
     34       2.00000         -20.052391         -545.65332
     35       2.00000         -20.052391         -545.65332
     36       2.00000         -20.052391         -545.65332
     37       2.00000         -11.974843         -325.85205
     38       2.00000         -11.974843         -325.85205
     39       2.00000         -11.974823         -325.85150
     40       2.00000         -11.974823         -325.85150
     41       2.00000         -11.974823         -325.85150
     42       2.00000         -11.974823         -325.85150
     43       2.00000         -11.974774         -325.85018
     44       2.00000         -11.974774         -325.85018
     45       2.00000         -11.974774         -325.85018
     46       2.00000         -11.974774         -325.85018
     47       2.00000          -3.990214         -108.57925
     48       2.00000          -3.990174         -108.57815
     49       2.00000          -3.003345          -81.72518
     50       2.00000          -3.003338          -81.72498
     51       2.00000          -3.003329          -81.72475
     52       2.00000          -3.003329          -81.72475
     53       2.00000          -3.003327          -81.72467
     54       2.00000          -3.003327          -81.72467
     55       2.00000          -3.003293          -81.72377
     56       2.00000          -3.003293          -81.72377
     57       2.00000          -3.003293          -81.72376
     58       2.00000          -3.003293          -81.72376
     59       2.00000          -3.003246          -81.72248
     60       2.00000          -3.003246          -81.72248
     61       2.00000          -3.003246          -81.72248
     62       2.00000          -3.003246          -81.72248
     63       2.00000          -2.202192          -59.92469
     64       2.00000          -2.200948          -59.89084
     65       2.00000          -2.200948          -59.89084
     66       2.00000          -2.200836          -59.88780
     67       2.00000          -2.200836          -59.88780
     68       2.00000          -2.200810          -59.88707
     69       2.00000          -0.298023           -8.10961
     70       2.00000          -0.273098           -7.43137
     71       2.00000          -0.273098           -7.43137
     72       2.00000          -0.261168           -7.10675
     73       2.00000          -0.261167           -7.10673
     74       2.00000          -0.256816           -6.98833
     75       2.00000          -0.256816           -6.98833
     76       2.00000          -0.248632           -6.76561
     77       2.00000          -0.248632           -6.76561
     78       2.00000          -0.247111           -6.72422
     79       2.00000          -0.245309           -6.67519
     80       0.00000          -0.180829           -4.92060
     81       0.00000          -0.015324           -0.41699
     82       0.00000          -0.006753           -0.18377
     83       0.00000          -0.006753           -0.18377
     84       0.00000           0.054610            1.48601
     85       0.00000           0.054610            1.48601
     86       0.00000           0.139236            3.78880
     87       0.00000           0.212405            5.77984
     88       0.00000           0.213475            5.80896
     89       0.00000           0.213590            5.81207
     90       0.00000           0.244278            6.64714
     91       0.00000           0.244278            6.64714
     92       0.00000           0.282658            7.69152
     93       0.00000           0.282714            7.69303
     94       0.00000           0.286602            7.79885
     95       0.00000           0.355934            9.68546
     96       0.00000           0.364271            9.91232
     97       0.00000           0.364271            9.91232

  Highest occupied state (VBM) at     -6.67518786 eV
  | Occupation number:      2.00000000

  Lowest unoccupied state (CBM) at    -4.92059685 eV
  | Occupation number:      0.00000000

  Overall HOMO-LUMO gap:      1.75459101 eV.
  Calculating total energy contributions from superposition of free atom densities.

  Total energy components:
  | Sum of eigenvalues            :      -24755.00343380 Ha     -673617.91673607 eV
  | XC energy correction          :        -713.28590233 Ha      -19409.49694663 eV
  | XC potential correction       :         946.97961448 Ha       25768.62640327 eV
  | Free-atom electrostatic energy:      -14824.71448194 Ha     -403401.00587071 eV
  | Hartree energy correction     :           0.00000000 Ha           0.00000000 eV
  | Entropy correction            :           0.00000000 Ha           0.00000000 eV
  | ---------------------------
  | Total energy                  :      -39346.02420359 Ha    -1070659.79315015 eV
  | Total energy, T -> 0          :      -39346.02420359 Ha    -1070659.79315015 eV  <-- do not rely on this value for anything but (periodic) metals
  | Electronic free energy        :      -39346.02420359 Ha    -1070659.79315015 eV

  Derived energy quantities:
  | Kinetic energy                :       44141.02226991 Ha     1201138.32920960 eV
  | Electrostatic energy          :      -82773.76057117 Ha    -2252388.62541311 eV
  | Energy correction for multipole
  | error in Hartree potential    :           0.00000000 Ha           0.00000000 eV
  | Sum of eigenvalues per atom                           :     -336808.95836803 eV
  | Total energy (T->0) per atom                          :     -535329.89657507 eV  <-- do not rely on this value for anything but (periodic) metals
  | Electronic free energy per atom                       :     -535329.89657507 eV
  Initialize hartree_potential_storage
  Max. number of atoms included in rho_multipole:            2

  End scf initialization - timings             :  max(cpu_time)    wall_clock(cpu1)
  | Time for scf. initialization               :        0.043 s           0.075 s
  | Boundary condition initialization          :        0.000 s           0.000 s
  | Relaxation initialization                  :        0.001 s           0.005 s
  | Integration                                :        0.018 s           0.025 s
  | Solution of K.-S. eqns.                    :        0.011 s           0.025 s
  | Grid partitioning                          :        0.007 s           0.014 s
  | Preloading free-atom quantities on grid    :        0.001 s           0.000 s
  | Free-atom superposition energy             :        0.002 s           0.002 s
  | Total energy evaluation                    :        0.000 s           0.001 s

  Partial memory accounting:
  | Current value for overall tracked memory usage on task 0  :           0.237 MB
  | Peak value for overall tracked memory usage on task 0     :           0.709 MB after allocating wave
  | Largest tracked array allocation on task 0 so far         :           0.118 MB  when allocating H_times_psi
  Note:  These values currently only include a subset of arrays which are explicitly tracked.
  The "true" memory usage will be greater.
------------------------------------------------------------

------------------------------------------------------------
          Begin self-consistency iteration #    1

  Date     :  20171223, Time     :  122038.356
------------------------------------------------------------
  Evaluating new KS density.
  Integration grid: deviation in total charge (<rho> - N_e) =   1.705303E-13
  Pulay mixing of updated and previous charge densities.

  Evaluating partitioned Hartree potential by multipole expansion.
  | Analytical far-field extrapolation by fixed multipoles:
  | Hartree multipole sum: apparent total charge =  -0.613842E-04
  Summing up the Hartree potential.
  Time summed over all CPUs for potential: real work        0.015 s, elapsed        0.018 s
  | RMS charge density error from multipole expansion :   0.126777E-03

  Integrating Hamiltonian matrix: batch-based integration.
  Time summed over all CPUs for integration: real work        0.048 s, elapsed        0.052 s

  Updating Kohn-Sham eigenvalues and eigenvectors using ELSI and the ELPA eigensolver.
  ELPA settings:
  | ELPA solver          1
  Finished transformation to standard eigenproblem
  | Time :     0.000 s
  Starting ELPA eigensolver
  | Time full => tridiagonal    :     0.001 s
  | Time solve tridiagonal      :     0.000 s
  | Time ev tridiagonal => full :     0.000 s
  Finished solving standard eigenproblem
  | Time :     0.001 s
  Finished back-transformation of eigenvectors
  | Time :     0.000 s

  Obtaining occupation numbers and chemical potential using ELSI.
  | Chemical potential (Fermi level):    -6.29959618eV
  Writing Kohn-Sham eigenvalues.

  State    Occupation    Eigenvalue [Ha]    Eigenvalue [eV]
      1       2.00000       -3253.503456       -88532.33350
      2       2.00000       -3253.503456       -88532.33350
      3       2.00000        -533.272386       -14511.07995
      4       2.00000        -533.272386       -14511.07995
      5       2.00000        -460.272428       -12524.65000
      6       2.00000        -460.272428       -12524.65000
      7       2.00000        -460.272428       -12524.65000
      8       2.00000        -460.272428       -12524.65000
      9       2.00000        -460.272422       -12524.64985
     10       2.00000        -460.272422       -12524.64985
     11       2.00000        -124.133175        -3377.83556
     12       2.00000        -124.133175        -3377.83556
     13       2.00000        -103.427862        -2814.41532
     14       2.00000        -103.427862        -2814.41532
     15       2.00000        -103.427862        -2814.41532
     16       2.00000        -103.427862        -2814.41532
     17       2.00000        -103.427782        -2814.41314
     18       2.00000        -103.427782        -2814.41314
     19       2.00000         -81.377755        -2214.40137
     20       2.00000         -81.377755        -2214.40137
     21       2.00000         -81.377755        -2214.40137
     22       2.00000         -81.377755        -2214.40137
     23       2.00000         -81.377695        -2214.39976
     24       2.00000         -81.377695        -2214.39976
     25       2.00000         -81.377695        -2214.39976
     26       2.00000         -81.377695        -2214.39976
     27       2.00000         -81.377687        -2214.39954
     28       2.00000         -81.377687        -2214.39954
     29       2.00000         -26.799981         -729.26458
     30       2.00000         -26.799981         -729.26458
     31       2.00000         -20.054190         -545.70229
     32       2.00000         -20.054190         -545.70229
     33       2.00000         -20.054157         -545.70138
     34       2.00000         -20.054157         -545.70138
     35       2.00000         -20.054157         -545.70138
     36       2.00000         -20.054157         -545.70138
     37       2.00000         -11.976595         -325.89973
     38       2.00000         -11.976595         -325.89973
     39       2.00000         -11.976545         -325.89838
     40       2.00000         -11.976545         -325.89838
     41       2.00000         -11.976545         -325.89838
     42       2.00000         -11.976545         -325.89838
     43       2.00000         -11.976516         -325.89759
     44       2.00000         -11.976516         -325.89759
     45       2.00000         -11.976516         -325.89759
     46       2.00000         -11.976516         -325.89759
     47       2.00000          -3.991486         -108.61385
     48       2.00000          -3.991445         -108.61276
     49       2.00000          -3.005070          -81.77212
     50       2.00000          -3.005063          -81.77193
     51       2.00000          -3.005040          -81.77130
     52       2.00000          -3.005040          -81.77130
     53       2.00000          -3.005037          -81.77122
     54       2.00000          -3.005037          -81.77122
     55       2.00000          -3.004975          -81.76954
     56       2.00000          -3.004975          -81.76954
     57       2.00000          -3.004975          -81.76953
     58       2.00000          -3.004975          -81.76953
     59       2.00000          -3.004931          -81.76834
     60       2.00000          -3.004931          -81.76834
     61       2.00000          -3.004931          -81.76834
     62       2.00000          -3.004931          -81.76834
     63       2.00000          -2.203677          -59.96512
     64       2.00000          -2.202305          -59.92776
     65       2.00000          -2.201832          -59.91491
     66       2.00000          -2.201832          -59.91491
     67       2.00000          -2.201722          -59.91189
     68       2.00000          -2.201722          -59.91189
     69       2.00000          -0.298185           -8.11404
     70       2.00000          -0.273554           -7.44378
     71       2.00000          -0.273554           -7.44378
     72       2.00000          -0.261321           -7.11089
     73       2.00000          -0.261320           -7.11087
     74       2.00000          -0.257014           -6.99369
     75       2.00000          -0.257013           -6.99369
     76       2.00000          -0.249422           -6.78712
     77       2.00000          -0.249422           -6.78712
     78       2.00000          -0.247809           -6.74323
     79       2.00000          -0.244937           -6.66507
     80       0.00000          -0.181663           -4.94331
     81       0.00000          -0.015878           -0.43205
     82       0.00000          -0.006195           -0.16857
     83       0.00000          -0.006195           -0.16857
     84       0.00000           0.054727            1.48919
     85       0.00000           0.054727            1.48919
     86       0.00000           0.138982            3.78188
     87       0.00000           0.212780            5.79005
     88       0.00000           0.213980            5.82269
     89       0.00000           0.214095            5.82581
     90       0.00000           0.244316            6.64818
     91       0.00000           0.244316            6.64818
     92       0.00000           0.282865            7.69715
     93       0.00000           0.282921            7.69867
     94       0.00000           0.286558            7.79763
     95       0.00000           0.355612            9.67671
     96       0.00000           0.364295            9.91297
     97       0.00000           0.364295            9.91297

  Highest occupied state (VBM) at     -6.66506625 eV
  | Occupation number:      2.00000000

  Lowest unoccupied state (CBM) at    -4.94330724 eV
  | Occupation number:      0.00000000

  Overall HOMO-LUMO gap:      1.72175901 eV.

  Total energy components:
  | Sum of eigenvalues            :      -24755.25333593 Ha     -673624.71691900 eV
  | XC energy correction          :        -713.27734644 Ha      -19409.26412906 eV
  | XC potential correction       :         946.96829347 Ha       25768.31834287 eV
  | Free-atom electrostatic energy:      -14824.71448194 Ha     -403401.00587071 eV
  | Hartree energy correction     :           0.25465659 Ha           6.92955837 eV
  | Entropy correction            :           0.00000000 Ha           0.00000000 eV
  | ---------------------------
  | Total energy                  :      -39346.02221425 Ha    -1070659.73901754 eV
  | Total energy, T -> 0          :      -39346.02221425 Ha    -1070659.73901754 eV  <-- do not rely on this value for anything but (periodic) metals
  | Electronic free energy        :      -39346.02221425 Ha    -1070659.73901754 eV

  Derived energy quantities:
  | Kinetic energy                :       44140.95531680 Ha     1201136.50732265 eV
  | Electrostatic energy          :      -82773.70018461 Ha    -2252386.98221112 eV
  | Energy correction for multipole
  | error in Hartree potential    :          -0.00002696 Ha          -0.00073353 eV
  | Sum of eigenvalues per atom                           :     -336812.35845950 eV
  | Total energy (T->0) per atom                          :     -535329.86950877 eV  <-- do not rely on this value for anything but (periodic) metals
  | Electronic free energy per atom                       :     -535329.86950877 eV

  Self-consistency convergence accuracy:
  | Change of charge density      :  0.8939E-01
  | Change of sum of eigenvalues  : -0.6800E+01 eV
  | Change of total energy        :  0.5413E-01 eV

  End self-consistency iteration #     1       :  max(cpu_time)    wall_clock(cpu1)
  | Time for this iteration                    :        0.027 s           0.029 s
  | Charge density update                      :        0.006 s           0.006 s
  | Density mixing                             :        0.000 s           0.000 s
  | Hartree multipole update                   :        0.001 s           0.002 s
  | Hartree multipole summation                :        0.005 s           0.005 s
  | Integration                                :        0.011 s           0.013 s
  | Solution of K.-S. eqns.                    :        0.002 s           0.002 s
  | Total energy evaluation                    :        0.000 s           0.000 s

  Partial memory accounting:
  | Current value for overall tracked memory usage on task 0  :           0.237 MB
  | Peak value for overall tracked memory usage on task 0     :           0.709 MB after allocating wave
  | Largest tracked array allocation on task 0 so far         :           0.118 MB  when allocating H_times_psi
  Note:  These values currently only include a subset of arrays which are explicitly tracked.
  The "true" memory usage will be greater.
------------------------------------------------------------

------------------------------------------------------------
          Begin self-consistency iteration #    2

  Date     :  20171223, Time     :  122038.385
------------------------------------------------------------
  Evaluating new KS density.
  Integration grid: deviation in total charge (<rho> - N_e) =   0.000000E+00
  Pulay mixing of updated and previous charge densities.

  Evaluating partitioned Hartree potential by multipole expansion.
  | Analytical far-field extrapolation by fixed multipoles:
  | Hartree multipole sum: apparent total charge =  -0.629197E-04
  Summing up the Hartree potential.
  Time summed over all CPUs for potential: real work        0.016 s, elapsed        0.019 s
  | RMS charge density error from multipole expansion :   0.107081E-02

  Integrating Hamiltonian matrix: batch-based integration.
  Time summed over all CPUs for integration: real work        0.042 s, elapsed        0.049 s

  Updating Kohn-Sham eigenvalues and eigenvectors using ELSI and the ELPA eigensolver.
  ELPA settings:
  | ELPA solver          1
  Finished transformation to standard eigenproblem
  | Time :     0.000 s
  Starting ELPA eigensolver
  | Time full => tridiagonal    :     0.003 s
  | Time solve tridiagonal      :     0.000 s
  | Time ev tridiagonal => full :     0.000 s
  Finished solving standard eigenproblem
  | Time :     0.004 s
  Finished back-transformation of eigenvectors
  | Time :     0.000 s

  Obtaining occupation numbers and chemical potential using ELSI.
  | Chemical potential (Fermi level):    -6.28762435eV
  Highest occupied state (VBM) at     -6.58502749 eV
  | Occupation number:      2.00000000

  Lowest unoccupied state (CBM) at    -5.09233977 eV
  | Occupation number:      0.00000000

  Overall HOMO-LUMO gap:      1.49268771 eV.

  Checking to see if s.c.f. parameters should be adjusted.
  The system likely has a gap. Increased the default Pulay mixing parameter (charge_mix_param). Value:   0.200000 .
  Kept the default occupation width. Value:   0.010000 eV.

  Total energy components:
  | Sum of eigenvalues            :      -24756.97250068 Ha     -673671.49777202 eV
  | XC energy correction          :        -713.22134520 Ha      -19407.74025776 eV
  | XC potential correction       :         946.89418523 Ha       25766.30175505 eV
  | Free-atom electrostatic energy:      -14824.71448194 Ha     -403401.00587071 eV
  | Hartree energy correction     :           1.99811394 Ha          54.37144681 eV
  | Entropy correction            :           0.00000000 Ha           0.00000000 eV
  | ---------------------------
  | Total energy                  :      -39346.01602865 Ha    -1070659.57069864 eV
  | Total energy, T -> 0          :      -39346.01602865 Ha    -1070659.57069864 eV  <-- do not rely on this value for anything but (periodic) metals
  | Electronic free energy        :      -39346.01602865 Ha    -1070659.57069864 eV

  Derived energy quantities:
  | Kinetic energy                :       44140.33935649 Ha     1201119.74619006 eV
  | Electrostatic energy          :      -82773.13403994 Ha    -2252371.57663094 eV
  | Energy correction for multipole
  | error in Hartree potential    :          -0.00024494 Ha          -0.00666511 eV
  | Sum of eigenvalues per atom                           :     -336835.74888601 eV
  | Total energy (T->0) per atom                          :     -535329.78534932 eV  <-- do not rely on this value for anything but (periodic) metals
  | Electronic free energy per atom                       :     -535329.78534932 eV

  Self-consistency convergence accuracy:
  | Change of charge density      :  0.7958E-01
  | Change of sum of eigenvalues  : -0.4678E+02 eV
  | Change of total energy        :  0.1683E+00 eV

  End self-consistency iteration #     2       :  max(cpu_time)    wall_clock(cpu1)
  | Time for this iteration                    :        0.030 s           0.034 s
  | Charge density update                      :        0.008 s           0.008 s
  | Density mixing                             :        0.001 s           0.002 s
  | Hartree multipole update                   :        0.001 s           0.001 s
  | Hartree multipole summation                :        0.005 s           0.005 s
  | Integration                                :        0.012 s           0.012 s
  | Solution of K.-S. eqns.                    :        0.003 s           0.005 s
  | Total energy evaluation                    :        0.000 s           0.000 s

  Partial memory accounting:
  | Current value for overall tracked memory usage on task 0  :           0.237 MB
  | Peak value for overall tracked memory usage on task 0     :           0.709 MB after allocating wave
  | Largest tracked array allocation on task 0 so far         :           0.118 MB  when allocating H_times_psi
  Note:  These values currently only include a subset of arrays which are explicitly tracked.
  The "true" memory usage will be greater.
------------------------------------------------------------

------------------------------------------------------------
          Begin self-consistency iteration #    3

  Date     :  20171223, Time     :  122038.420
------------------------------------------------------------
  Evaluating new KS density.
  Integration grid: deviation in total charge (<rho> - N_e) =   1.705303E-13
  Pulay mixing of updated and previous charge densities.

  Evaluating partitioned Hartree potential by multipole expansion.
  | Analytical far-field extrapolation by fixed multipoles:
  | Hartree multipole sum: apparent total charge =  -0.686184E-04
  Summing up the Hartree potential.
  Time summed over all CPUs for potential: real work        0.016 s, elapsed        0.022 s
  | RMS charge density error from multipole expansion :   0.155596E-02

  Integrating Hamiltonian matrix: batch-based integration.
  Time summed over all CPUs for integration: real work        0.036 s, elapsed        0.044 s

  Updating Kohn-Sham eigenvalues and eigenvectors using ELSI and the ELPA eigensolver.
  ELPA settings:
  | ELPA solver          1
  Finished transformation to standard eigenproblem
  | Time :     0.000 s
  Starting ELPA eigensolver
  | Time full => tridiagonal    :     0.001 s
  | Time solve tridiagonal      :     0.000 s
  | Time ev tridiagonal => full :     0.000 s
  Finished solving standard eigenproblem
  | Time :     0.001 s
  Finished back-transformation of eigenvectors
  | Time :     0.000 s

  Obtaining occupation numbers and chemical potential using ELSI.
  | Chemical potential (Fermi level):    -6.27586521eV
  Highest occupied state (VBM) at     -6.56970766 eV
  | Occupation number:      2.00000000

  Lowest unoccupied state (CBM) at    -5.08588053 eV
  | Occupation number:      0.00000000

  Overall HOMO-LUMO gap:      1.48382713 eV.

  Total energy components:
  | Sum of eigenvalues            :      -24756.79536644 Ha     -673666.67770400 eV
  | XC energy correction          :        -713.22632868 Ha      -19407.87586518 eV
  | XC potential correction       :         946.90080341 Ha       25766.48184504 eV
  | Free-atom electrostatic energy:      -14824.71448194 Ha     -403401.00587071 eV
  | Hartree energy correction     :           1.81962102 Ha          49.51440723 eV
  | Entropy correction            :           0.00000000 Ha           0.00000000 eV
  | ---------------------------
  | Total energy                  :      -39346.01575262 Ha    -1070659.56318762 eV
  | Total energy, T -> 0          :      -39346.01575262 Ha    -1070659.56318762 eV  <-- do not rely on this value for anything but (periodic) metals
  | Electronic free energy        :      -39346.01575262 Ha    -1070659.56318762 eV

  Derived energy quantities:
  | Kinetic energy                :       44140.52812875 Ha     1201124.88294443 eV
  | Electrostatic energy          :      -82773.31755269 Ha    -2252376.57026688 eV
  | Energy correction for multipole
  | error in Hartree potential    :          -0.00051984 Ha          -0.01414562 eV
  | Sum of eigenvalues per atom                           :     -336833.33885200 eV
  | Total energy (T->0) per atom                          :     -535329.78159381 eV  <-- do not rely on this value for anything but (periodic) metals
  | Electronic free energy per atom                       :     -535329.78159381 eV

  Self-consistency convergence accuracy:
  | Change of charge density      :  0.2730E-01
  | Change of sum of eigenvalues  :  0.4820E+01 eV
  | Change of total energy        :  0.7511E-02 eV

  End self-consistency iteration #     3       :  max(cpu_time)    wall_clock(cpu1)
  | Time for this iteration                    :        0.029 s           0.030 s
  | Charge density update                      :        0.008 s           0.008 s
  | Density mixing                             :        0.001 s           0.002 s
  | Hartree multipole update                   :        0.001 s           0.001 s
  | Hartree multipole summation                :        0.006 s           0.006 s
  | Integration                                :        0.011 s           0.011 s
  | Solution of K.-S. eqns.                    :        0.002 s           0.002 s
  | Total energy evaluation                    :        0.000 s           0.000 s

  Partial memory accounting:
  | Current value for overall tracked memory usage on task 0  :           0.237 MB
  | Peak value for overall tracked memory usage on task 0     :           0.709 MB after allocating wave
  | Largest tracked array allocation on task 0 so far         :           0.118 MB  when allocating H_times_psi
  Note:  These values currently only include a subset of arrays which are explicitly tracked.
  The "true" memory usage will be greater.
------------------------------------------------------------

------------------------------------------------------------
          Begin self-consistency iteration #    4

  Date     :  20171223, Time     :  122038.450
------------------------------------------------------------
  Evaluating new KS density.
  Integration grid: deviation in total charge (<rho> - N_e) =  -1.136868E-13
  Pulay mixing of updated and previous charge densities.

  Evaluating partitioned Hartree potential by multipole expansion.
  | Analytical far-field extrapolation by fixed multipoles:
  | Hartree multipole sum: apparent total charge =  -0.744806E-04
  Summing up the Hartree potential.
  Time summed over all CPUs for potential: real work        0.022 s, elapsed        0.023 s
  | RMS charge density error from multipole expansion :   0.193608E-02

  Integrating Hamiltonian matrix: batch-based integration.
  Time summed over all CPUs for integration: real work        0.035 s, elapsed        0.037 s

  Updating Kohn-Sham eigenvalues and eigenvectors using ELSI and the ELPA eigensolver.
  ELPA settings:
  | ELPA solver          1
  Finished transformation to standard eigenproblem
  | Time :     0.000 s
  Starting ELPA eigensolver
  | Time full => tridiagonal    :     0.001 s
  | Time solve tridiagonal      :     0.000 s
  | Time ev tridiagonal => full :     0.000 s
  Finished solving standard eigenproblem
  | Time :     0.002 s
  Finished back-transformation of eigenvectors
  | Time :     0.000 s

  Obtaining occupation numbers and chemical potential using ELSI.
  | Chemical potential (Fermi level):    -6.25576262eV
  Highest occupied state (VBM) at     -6.54459175 eV
  | Occupation number:      2.00000000

  Lowest unoccupied state (CBM) at    -5.06235338 eV
  | Occupation number:      0.00000000

  Overall HOMO-LUMO gap:      1.48223838 eV.

  Total energy components:
  | Sum of eigenvalues            :      -24756.32035798 Ha     -673653.75206624 eV
  | XC energy correction          :        -713.23773625 Ha      -19408.18628094 eV
  | XC potential correction       :         946.91591464 Ha       25766.89304246 eV
  | Free-atom electrostatic energy:      -14824.71448194 Ha     -403401.00587071 eV
  | Hartree energy correction     :           1.34099110 Ha          36.49022453 eV
  | Entropy correction            :           0.00000000 Ha           0.00000000 eV
  | ---------------------------
  | Total energy                  :      -39346.01567042 Ha    -1070659.56095090 eV
  | Total energy, T -> 0          :      -39346.01567042 Ha    -1070659.56095090 eV  <-- do not rely on this value for anything but (periodic) metals
  | Electronic free energy        :      -39346.01567042 Ha    -1070659.56095090 eV

  Derived energy quantities:
  | Kinetic energy                :       44140.76908151 Ha     1201131.43960258 eV
  | Electrostatic energy          :      -82773.54701568 Ha    -2252382.81427254 eV
  | Energy correction for multipole
  | error in Hartree potential    :          -0.00076566 Ha          -0.02083473 eV
  | Sum of eigenvalues per atom                           :     -336826.87603312 eV
  | Total energy (T->0) per atom                          :     -535329.78047545 eV  <-- do not rely on this value for anything but (periodic) metals
  | Electronic free energy per atom                       :     -535329.78047545 eV

  Self-consistency convergence accuracy:
  | Change of charge density      :  0.1460E-01
  | Change of sum of eigenvalues  :  0.1293E+02 eV
  | Change of total energy        :  0.2237E-02 eV

  End self-consistency iteration #     4       :  max(cpu_time)    wall_clock(cpu1)
  | Time for this iteration                    :        0.025 s           0.026 s
  | Charge density update                      :        0.007 s           0.006 s
  | Density mixing                             :        0.000 s           0.000 s
  | Hartree multipole update                   :        0.001 s           0.002 s
  | Hartree multipole summation                :        0.004 s           0.006 s
  | Integration                                :        0.010 s           0.009 s
  | Solution of K.-S. eqns.                    :        0.003 s           0.003 s
  | Total energy evaluation                    :        0.000 s           0.000 s

  Partial memory accounting:
  | Current value for overall tracked memory usage on task 0  :           0.237 MB
  | Peak value for overall tracked memory usage on task 0     :           0.709 MB after allocating wave
  | Largest tracked array allocation on task 0 so far         :           0.118 MB  when allocating H_times_psi
  Note:  These values currently only include a subset of arrays which are explicitly tracked.
  The "true" memory usage will be greater.
------------------------------------------------------------

------------------------------------------------------------
          Begin self-consistency iteration #    5

  Date     :  20171223, Time     :  122038.478
------------------------------------------------------------
  Evaluating new KS density.
  Integration grid: deviation in total charge (<rho> - N_e) =  -8.526513E-14
  Pulay mixing of updated and previous charge densities.

  Evaluating partitioned Hartree potential by multipole expansion.
  | Analytical far-field extrapolation by fixed multipoles:
  | Hartree multipole sum: apparent total charge =  -0.765552E-04
  Summing up the Hartree potential.
  Time summed over all CPUs for potential: real work        0.015 s, elapsed        0.019 s
  | RMS charge density error from multipole expansion :   0.202663E-02

  Integrating Hamiltonian matrix: batch-based integration.
  Time summed over all CPUs for integration: real work        0.034 s, elapsed        0.037 s

  Updating Kohn-Sham eigenvalues and eigenvectors using ELSI and the ELPA eigensolver.
  ELPA settings:
  | ELPA solver          1
  Finished transformation to standard eigenproblem
  | Time :     0.000 s
  Starting ELPA eigensolver
  | Time full => tridiagonal    :     0.001 s
  | Time solve tridiagonal      :     0.000 s
  | Time ev tridiagonal => full :     0.000 s
  Finished solving standard eigenproblem
  | Time :     0.001 s
  Finished back-transformation of eigenvectors
  | Time :     0.000 s

  Obtaining occupation numbers and chemical potential using ELSI.
  | Chemical potential (Fermi level):    -6.23969043eV
  Highest occupied state (VBM) at     -6.52077231 eV
  | Occupation number:      2.00000000

  Lowest unoccupied state (CBM) at    -5.04668395 eV
  | Occupation number:      0.00000000

  Overall HOMO-LUMO gap:      1.47408836 eV.

  Total energy components:
  | Sum of eigenvalues            :      -24755.99276654 Ha     -673644.83784961 eV
  | XC energy correction          :        -713.24380385 Ha      -19408.35138890 eV
  | XC potential correction       :         946.92393874 Ha       25767.11138920 eV
  | Free-atom electrostatic energy:      -14824.71448194 Ha     -403401.00587071 eV
  | Hartree energy correction     :           1.01147117 Ha          27.52353091 eV
  | Entropy correction            :           0.00000000 Ha           0.00000000 eV
  | ---------------------------
  | Total energy                  :      -39346.01564243 Ha    -1070659.56018911 eV
  | Total energy, T -> 0          :      -39346.01564243 Ha    -1070659.56018911 eV  <-- do not rely on this value for anything but (periodic) metals
  | Electronic free energy        :      -39346.01564243 Ha    -1070659.56018911 eV

  Derived energy quantities:
  | Kinetic energy                :       44140.84752684 Ha     1201133.57420885 eV
  | Electrostatic energy          :      -82773.61936542 Ha    -2252384.78300906 eV
  | Energy correction for multipole
  | error in Hartree potential    :          -0.00085148 Ha          -0.02316987 eV
  | Sum of eigenvalues per atom                           :     -336822.41892481 eV
  | Total energy (T->0) per atom                          :     -535329.78009456 eV  <-- do not rely on this value for anything but (periodic) metals
  | Electronic free energy per atom                       :     -535329.78009456 eV

  Self-consistency convergence accuracy:
  | Change of charge density      :  0.6557E-02
  | Change of sum of eigenvalues  :  0.8914E+01 eV
  | Change of total energy        :  0.7618E-03 eV

  End self-consistency iteration #     5       :  max(cpu_time)    wall_clock(cpu1)
  | Time for this iteration                    :        0.024 s           0.024 s
  | Charge density update                      :        0.006 s           0.006 s
  | Density mixing                             :        0.000 s           0.000 s
  | Hartree multipole update                   :        0.001 s           0.001 s
  | Hartree multipole summation                :        0.005 s           0.005 s
  | Integration                                :        0.009 s           0.009 s
  | Solution of K.-S. eqns.                    :        0.002 s           0.002 s
  | Total energy evaluation                    :        0.000 s           0.000 s

  Partial memory accounting:
  | Current value for overall tracked memory usage on task 0  :           0.237 MB
  | Peak value for overall tracked memory usage on task 0     :           0.709 MB after allocating wave
  | Largest tracked array allocation on task 0 so far         :           0.118 MB  when allocating H_times_psi
  Note:  These values currently only include a subset of arrays which are explicitly tracked.
  The "true" memory usage will be greater.
------------------------------------------------------------

------------------------------------------------------------
          Begin self-consistency iteration #    6

  Date     :  20171223, Time     :  122038.502
------------------------------------------------------------
  Evaluating new KS density.
  Integration grid: deviation in total charge (<rho> - N_e) =   1.136868E-13
  Pulay mixing of updated and previous charge densities.

  Evaluating partitioned Hartree potential by multipole expansion.
  | Analytical far-field extrapolation by fixed multipoles:
  | Hartree multipole sum: apparent total charge =  -0.763767E-04
  Summing up the Hartree potential.
  Time summed over all CPUs for potential: real work        0.013 s, elapsed        0.013 s
  | RMS charge density error from multipole expansion :   0.210031E-02

  Integrating Hamiltonian matrix: batch-based integration.
  Time summed over all CPUs for integration: real work        0.035 s, elapsed        0.037 s

  Updating Kohn-Sham eigenvalues and eigenvectors using ELSI and the ELPA eigensolver.
  ELPA settings:
  | ELPA solver          1
  Finished transformation to standard eigenproblem
  | Time :     0.001 s
  Starting ELPA eigensolver
  | Time full => tridiagonal    :     0.001 s
  | Time solve tridiagonal      :     0.000 s
  | Time ev tridiagonal => full :     0.000 s
  Finished solving standard eigenproblem
  | Time :     0.002 s
  Finished back-transformation of eigenvectors
  | Time :     0.000 s

  Obtaining occupation numbers and chemical potential using ELSI.
  | Chemical potential (Fermi level):    -6.23386499eV
  Highest occupied state (VBM) at     -6.51238368 eV
  | Occupation number:      2.00000000

  Lowest unoccupied state (CBM) at    -5.04062505 eV
  | Occupation number:      0.00000000

  Overall HOMO-LUMO gap:      1.47175863 eV.

  Total energy components:
  | Sum of eigenvalues            :      -24755.95564210 Ha     -673643.82764219 eV
  | XC energy correction          :        -713.24370394 Ha      -19408.34867021 eV
  | XC potential correction       :         946.92379408 Ha       25767.10745285 eV
  | Free-atom electrostatic energy:      -14824.71448194 Ha     -403401.00587071 eV
  | Hartree energy correction     :           0.97439247 Ha          26.51456806 eV
  | Entropy correction            :           0.00000000 Ha           0.00000000 eV
  | ---------------------------
  | Total energy                  :      -39346.01564144 Ha    -1070659.56016220 eV
  | Total energy, T -> 0          :      -39346.01564144 Ha    -1070659.56016220 eV  <-- do not rely on this value for anything but (periodic) metals
  | Electronic free energy        :      -39346.01564144 Ha    -1070659.56016220 eV

  Derived energy quantities:
  | Kinetic energy                :       44140.80895602 Ha     1201132.52464341 eV
  | Electrostatic energy          :      -82773.58089352 Ha    -2252383.73613540 eV
  | Energy correction for multipole
  | error in Hartree potential    :          -0.00094540 Ha          -0.02572573 eV
  | Sum of eigenvalues per atom                           :     -336821.91382110 eV
  | Total energy (T->0) per atom                          :     -535329.78008110 eV  <-- do not rely on this value for anything but (periodic) metals
  | Electronic free energy per atom                       :     -535329.78008110 eV

  Self-consistency convergence accuracy:
  | Change of charge density      :  0.3450E-02
  | Change of sum of eigenvalues  :  0.1010E+01 eV
  | Change of total energy        :  0.2692E-04 eV

  End self-consistency iteration #     6       :  max(cpu_time)    wall_clock(cpu1)
  | Time for this iteration                    :        0.024 s           0.026 s
  | Charge density update                      :        0.006 s           0.008 s
  | Density mixing                             :        0.000 s           0.000 s
  | Hartree multipole update                   :        0.001 s           0.001 s
  | Hartree multipole summation                :        0.003 s           0.004 s
  | Integration                                :        0.010 s           0.009 s
  | Solution of K.-S. eqns.                    :        0.003 s           0.003 s
  | Total energy evaluation                    :        0.000 s           0.000 s

  Partial memory accounting:
  | Current value for overall tracked memory usage on task 0  :           0.237 MB
  | Peak value for overall tracked memory usage on task 0     :           0.709 MB after allocating wave
  | Largest tracked array allocation on task 0 so far         :           0.118 MB  when allocating H_times_psi
  Note:  These values currently only include a subset of arrays which are explicitly tracked.
  The "true" memory usage will be greater.
------------------------------------------------------------

------------------------------------------------------------
          Begin self-consistency iteration #    7

  Date     :  20171223, Time     :  122038.528
------------------------------------------------------------
  Evaluating new KS density.
  Integration grid: deviation in total charge (<rho> - N_e) =   0.000000E+00
  Pulay mixing of updated and previous charge densities.

  Evaluating partitioned Hartree potential by multipole expansion.
  | Analytical far-field extrapolation by fixed multipoles:
  | Hartree multipole sum: apparent total charge =  -0.763886E-04
  Summing up the Hartree potential.
  Time summed over all CPUs for potential: real work        0.011 s, elapsed        0.011 s
  | RMS charge density error from multipole expansion :   0.210125E-02

  Integrating Hamiltonian matrix: batch-based integration.
  Time summed over all CPUs for integration: real work        0.037 s, elapsed        0.047 s

  Updating Kohn-Sham eigenvalues and eigenvectors using ELSI and the ELPA eigensolver.
  ELPA settings:
  | ELPA solver          1
  Finished transformation to standard eigenproblem
  | Time :     0.000 s
  Starting ELPA eigensolver
  | Time full => tridiagonal    :     0.001 s
  | Time solve tridiagonal      :     0.000 s
  | Time ev tridiagonal => full :     0.000 s
  Finished solving standard eigenproblem
  | Time :     0.001 s
  Finished back-transformation of eigenvectors
  | Time :     0.000 s

  Obtaining occupation numbers and chemical potential using ELSI.
  | Chemical potential (Fermi level):    -6.23336892eV
  Highest occupied state (VBM) at     -6.51147301 eV
  | Occupation number:      2.00000000

  Lowest unoccupied state (CBM) at    -5.04008804 eV
  | Occupation number:      0.00000000

  Overall HOMO-LUMO gap:      1.47138497 eV.

  Total energy components:
  | Sum of eigenvalues            :      -24755.94151308 Ha     -673643.44317185 eV
  | XC energy correction          :        -713.24400219 Ha      -19408.35678600 eV
  | XC potential correction       :         946.92418842 Ha       25767.11818331 eV
  | Free-atom electrostatic energy:      -14824.71448194 Ha     -403401.00587071 eV
  | Hartree energy correction     :           0.96016731 Ha          26.12748180 eV
  | Entropy correction            :           0.00000000 Ha           0.00000000 eV
  | ---------------------------
  | Total energy                  :      -39346.01564148 Ha    -1070659.56016345 eV
  | Total energy, T -> 0          :      -39346.01564148 Ha    -1070659.56016345 eV  <-- do not rely on this value for anything but (periodic) metals
  | Electronic free energy        :      -39346.01564148 Ha    -1070659.56016345 eV

  Derived energy quantities:
  | Kinetic energy                :       44140.81153232 Ha     1201132.59474797 eV
  | Electrostatic energy          :      -82773.58317161 Ha    -2252383.79812542 eV
  | Energy correction for multipole
  | error in Hartree potential    :          -0.00094672 Ha          -0.02576149 eV
  | Sum of eigenvalues per atom                           :     -336821.72158592 eV
  | Total energy (T->0) per atom                          :     -535329.78008173 eV  <-- do not rely on this value for anything but (periodic) metals
  | Electronic free energy per atom                       :     -535329.78008173 eV

  Self-consistency convergence accuracy:
  | Change of charge density      :  0.8278E-03
  | Change of sum of eigenvalues  :  0.3845E+00 eV
  | Change of total energy        : -0.1254E-05 eV

  End self-consistency iteration #     7       :  max(cpu_time)    wall_clock(cpu1)
  | Time for this iteration                    :        0.022 s           0.024 s
  | Charge density update                      :        0.005 s           0.006 s
  | Density mixing                             :        0.000 s           0.000 s
  | Hartree multipole update                   :        0.001 s           0.001 s
  | Hartree multipole summation                :        0.003 s           0.003 s
  | Integration                                :        0.010 s           0.012 s
  | Solution of K.-S. eqns.                    :        0.002 s           0.001 s
  | Total energy evaluation                    :        0.000 s           0.000 s

  Partial memory accounting:
  | Current value for overall tracked memory usage on task 0  :           0.237 MB
  | Peak value for overall tracked memory usage on task 0     :           0.709 MB after allocating wave
  | Largest tracked array allocation on task 0 so far         :           0.118 MB  when allocating H_times_psi
  Note:  These values currently only include a subset of arrays which are explicitly tracked.
  The "true" memory usage will be greater.
------------------------------------------------------------

------------------------------------------------------------
          Begin self-consistency iteration #    8

  Date     :  20171223, Time     :  122038.552
------------------------------------------------------------
  Evaluating new KS density.
  Integration grid: deviation in total charge (<rho> - N_e) =  -5.684342E-14
  Pulay mixing of updated and previous charge densities.

  Evaluating partitioned Hartree potential by multipole expansion.
  | Analytical far-field extrapolation by fixed multipoles:
  | Hartree multipole sum: apparent total charge =  -0.763034E-04
  Summing up the Hartree potential.
  Time summed over all CPUs for potential: real work        0.015 s, elapsed        0.016 s
  | RMS charge density error from multipole expansion :   0.210454E-02

  Integrating Hamiltonian matrix: batch-based integration.
  Time summed over all CPUs for integration: real work        0.031 s, elapsed        0.032 s

  Updating Kohn-Sham eigenvalues and eigenvectors using ELSI and the ELPA eigensolver.
  ELPA settings:
  | ELPA solver          1
  Finished transformation to standard eigenproblem
  | Time :     0.000 s
  Starting ELPA eigensolver
  | Time full => tridiagonal    :     0.001 s
  | Time solve tridiagonal      :     0.000 s
  | Time ev tridiagonal => full :     0.000 s
  Finished solving standard eigenproblem
  | Time :     0.001 s
  Finished back-transformation of eigenvectors
  | Time :     0.000 s

  Obtaining occupation numbers and chemical potential using ELSI.
  | Chemical potential (Fermi level):    -6.23219254eV
  Highest occupied state (VBM) at     -6.50919646 eV
  | Occupation number:      2.00000000

  Lowest unoccupied state (CBM) at    -5.03881422 eV
  | Occupation number:      0.00000000

  Overall HOMO-LUMO gap:      1.47038225 eV.

  Total energy components:
  | Sum of eigenvalues            :      -24755.91254740 Ha     -673642.65497579 eV
  | XC energy correction          :        -713.24456819 Ha      -19408.37218762 eV
  | XC potential correction       :         946.92493566 Ha       25767.13851701 eV
[...]
  | Energy correction for multipole
  | error in Hartree potential    :          -0.00280416 Ha          -0.07630516 eV
  | Sum of eigenvalues per atom                           :     -336832.03042990 eV
  | Total energy (T->0) per atom                          :     -535330.22325948 eV  <-- do not rely on this value for anything but (periodic) metals
  | Electronic free energy per atom                       :     -535330.22325948 eV

  atomic forces [eV/Ang]:
  -----------------------
  atom #    1
   Hellmann-Feynman              : -0.379012E-09 -0.675523E-09  0.753842E+02
   Ionic forces                  :  0.000000E+00  0.000000E+00  0.000000E+00
   Multipole                     : -0.100529E-09 -0.622318E-10  0.663700E-01
   Pulay                         :  0.359179E-07 -0.598632E-08 -0.754539E+02
   ----------------------------------------------------------------
   Total forces(   1)            :  0.354384E-07 -0.672407E-08 -0.331770E-02
  atom #    2
   Hellmann-Feynman              : -0.234886E-08  0.555585E-09 -0.753842E+02
   Ionic forces                  :  0.000000E+00  0.000000E+00  0.000000E+00
   Multipole                     :  0.456198E-09 -0.670368E-09 -0.663700E-01
   Pulay                         :  0.598632E-08 -0.897947E-08  0.754539E+02
   ----------------------------------------------------------------
   Total forces(   2)            :  0.409365E-08 -0.909426E-08  0.331769E-02


  Self-consistency convergence accuracy:
  | Change of charge density      :  0.3529E-06
  | Change of sum of eigenvalues  : -0.4112E-05 eV
  | Change of total energy        :  0.3663E-07 eV
  | Change of forces              :  0.7545E+02 eV/A

  Writing Kohn-Sham eigenvalues.

  State    Occupation    Eigenvalue [Ha]    Eigenvalue [eV]
      1       2.00000       -3253.512598       -88532.58229
      2       2.00000       -3253.512598       -88532.58229
      3       2.00000        -533.282653       -14511.35931
      4       2.00000        -533.282653       -14511.35931
      5       2.00000        -460.282666       -12524.92861
      6       2.00000        -460.282666       -12524.92861
      7       2.00000        -460.282666       -12524.92861
      8       2.00000        -460.282666       -12524.92861
      9       2.00000        -460.282619       -12524.92732
     10       2.00000        -460.282619       -12524.92732
     11       2.00000        -124.143149        -3378.10696
     12       2.00000        -124.143149        -3378.10696
     13       2.00000        -103.438269        -2814.69852
     14       2.00000        -103.438269        -2814.69852
     15       2.00000        -103.438269        -2814.69852
     16       2.00000        -103.438269        -2814.69852
     17       2.00000        -103.436869        -2814.66042
     18       2.00000        -103.436869        -2814.66042
     19       2.00000         -81.388432        -2214.69192
     20       2.00000         -81.388432        -2214.69192
     21       2.00000         -81.388432        -2214.69192
     22       2.00000         -81.388432        -2214.69192
     23       2.00000         -81.387412        -2214.66415
     24       2.00000         -81.387412        -2214.66415
     25       2.00000         -81.387412        -2214.66415
     26       2.00000         -81.387412        -2214.66415
     27       2.00000         -81.387275        -2214.66043
     28       2.00000         -81.387275        -2214.66043
     29       2.00000         -26.809650         -729.52769
     30       2.00000         -26.809650         -729.52769
     31       2.00000         -20.063883         -545.96604
     32       2.00000         -20.063883         -545.96604
     33       2.00000         -20.063769         -545.96292
     34       2.00000         -20.063769         -545.96292
     35       2.00000         -20.063769         -545.96292
     36       2.00000         -20.063769         -545.96292
     37       2.00000         -11.986783         -326.17696
     38       2.00000         -11.986783         -326.17696
     39       2.00000         -11.986093         -326.15818
     40       2.00000         -11.986093         -326.15818
     41       2.00000         -11.986093         -326.15818
     42       2.00000         -11.986093         -326.15818
     43       2.00000         -11.985963         -326.15465
     44       2.00000         -11.985963         -326.15465
     45       2.00000         -11.985963         -326.15465
     46       2.00000         -11.985963         -326.15465
     47       2.00000          -4.000538         -108.86018
     48       2.00000          -3.999792         -108.83987
     49       2.00000          -3.015506          -82.05608
     50       2.00000          -3.015384          -82.05277
     51       2.00000          -3.015095          -82.04490
     52       2.00000          -3.015095          -82.04490
     53       2.00000          -3.015044          -82.04351
     54       2.00000          -3.015044          -82.04351
     55       2.00000          -3.014272          -82.02252
     56       2.00000          -3.014272          -82.02250
     57       2.00000          -3.014263          -82.02227
     58       2.00000          -3.014263          -82.02226
     59       2.00000          -3.013883          -82.01193
     60       2.00000          -3.013883          -82.01193
     61       2.00000          -3.013883          -82.01192
     62       2.00000          -3.013883          -82.01192
     63       2.00000          -2.226165          -60.57702
     64       2.00000          -2.214050          -60.24736
     65       2.00000          -2.205716          -60.02058
     66       2.00000          -2.205716          -60.02058
     67       2.00000          -2.204529          -59.98829
     68       2.00000          -2.204529          -59.98829
     69       2.00000          -0.351578           -9.56693
     70       2.00000          -0.303020           -8.24560
     71       2.00000          -0.303020           -8.24560
     72       2.00000          -0.262483           -7.14252
     73       2.00000          -0.262482           -7.14251
     74       2.00000          -0.248838           -6.77122
     75       2.00000          -0.248838           -6.77122
     76       2.00000          -0.247541           -6.73594
     77       2.00000          -0.239288           -6.51137
     78       2.00000          -0.239288           -6.51137
     79       2.00000          -0.237048           -6.45040
     80       0.00000          -0.165243           -4.49648
     81       0.00000          -0.009759           -0.26556
     82       0.00000          -0.009098           -0.24758
     83       0.00000          -0.009098           -0.24758
     84       0.00000           0.078686            2.14117
     85       0.00000           0.078686            2.14117
     86       0.00000           0.193382            5.26220
     87       0.00000           0.215026            5.85116
     88       0.00000           0.218584            5.94797
     89       0.00000           0.218635            5.94936
     90       0.00000           0.274260            7.46301
     91       0.00000           0.274260            7.46301
     92       0.00000           0.299672            8.15450
     93       0.00000           0.303190            8.25022
     94       0.00000           0.303199            8.25046
     95       0.00000           0.386952           10.52949
     96       0.00000           0.412485           11.22429
     97       0.00000           0.412485           11.22429

  Highest occupied state (VBM) at     -6.45040302 eV
  | Occupation number:      2.00000000

  Lowest unoccupied state (CBM) at    -4.49648219 eV
  | Occupation number:      0.00000000

  Overall HOMO-LUMO gap:      1.95392083 eV.

  Self-consistency cycle converged.

  End self-consistency iteration #     8       :  max(cpu_time)    wall_clock(cpu1)
  | Time for this iteration                    :        0.062 s           0.066 s
  | Charge density & force component update    :        0.035 s           0.037 s
  | Density mixing                             :        0.000 s           0.001 s
  | Hartree multipole update                   :        0.001 s           0.001 s
  | Hartree multipole summation                :        0.012 s           0.014 s
  | Integration                                :        0.009 s           0.009 s
  | Solution of K.-S. eqns.                    :        0.003 s           0.003 s
  | Total energy evaluation                    :        0.000 s           0.000 s

  Partial memory accounting:
  | Current value for overall tracked memory usage on task 0  :           0.237 MB
  | Peak value for overall tracked memory usage on task 0     :           0.849 MB after allocating h_times_wave
  | Largest tracked array allocation on task 0 so far         :           0.353 MB  when allocating gradient_basis_wave
  Note:  These values currently only include a subset of arrays which are explicitly tracked.
  The "true" memory usage will be greater.
------------------------------------------------------------
  |------------------------------------------
  | Final ELSI Output
  |------------------------------------------
  | Number of basis functions :          112
  | Number of electrons       :        158.0
  | Number of spins           :            1
  | Number of k-points        :            1
  | Number of states          :           97
  | Solver                    :         ELPA
  | Parallel mode             :   MULTI_PROC
  | Matrix format             :  BLACS_DENSE
  | Matrix sparsity           :        0.701
  |------------------------------------------
  | ELSI Project (c)  elsi-interchange.org
  |------------------------------------------
  Removing unitary transformations (pure translations, rotations) from forces on atoms.
  Atomic forces before filtering:
  | Net force on center of mass :   0.395320E-07 -0.158183E-07 -0.377290E-08 eV/A
  | Net torque on center of mass:   0.292058E-08 -0.386234E-07 -0.943508E-79 eV
  Atomic forces after filtering:
  | Net force on center of mass :   0.265846E-23 -0.265846E-23  0.000000E+00 eV/A
  | Net torque on center of mass:   0.000000E+00  0.327579E-23  0.850647E-95 eV

  Energy and forces in a compact form:
  | Total energy uncorrected      :         -0.107066044651896E+07 eV
  | Total energy corrected        :         -0.107066044651896E+07 eV  <-- do not rely on this value for anything but (periodic) metals
  | Electronic free energy        :         -0.107066044651896E+07 eV
  Total atomic forces (unitary forces cleaned) [eV/Ang]:
  |   1          0.000000000000000E+00         -0.132922920678630E-23         -0.331769686252281E-02
  |   2          0.265845841357260E-23         -0.132922920678630E-23          0.331769686252281E-02

  ------------------------------------ 
  Start decomposition of the XC Energy 
  ------------------------------------ 
  X and C from original XC functional choice 
  Hartree-Fock Energy :          0.000000000 Ha              0.000000000 eV
  X Energy            :       -696.764852415 Ha         -18959.936305144 eV
  C Energy            :        -16.540098164 Ha           -450.078970816 eV
  Total XC Energy     :       -713.304950579 Ha         -19410.015275960 eV
  ------------------------------------ 
  LDA X and C from self-consistent density 
  X Energy LDA        :       -696.764852415 Ha         -18959.936305144 eV
  C Energy LDA        :        -16.540098164 Ha           -450.078970816 eV
  ------------------------------------ 
  End decomposition of the XC Energy 
  ------------------------------------ 

------------------------------------------------------------
  Relaxation / MD: End force evaluation.       :  max(cpu_time)    wall_clock(cpu1)
  | Time for this force evaluation             :        0.253 s           0.268 s

------------------------------------------------------------
  Geometry optimization: Attempting to predict improved coordinates.

  Removing unitary transformations (pure translations, rotations) from forces on atoms.
  Atomic forces before filtering:
  | Net force on center of mass :   0.265846E-23 -0.265846E-23  0.000000E+00 eV/A
  | Net torque on center of mass:   0.000000E+00  0.327579E-23  0.850647E-95 eV
  Atomic forces after filtering:
  | Net force on center of mass :   0.590296E-39 -0.442722E-39  0.000000E+00 eV/A
  | Net torque on center of mass:   0.181843E-39  0.832192E-74  0.370166-111 eV
  Net remaining forces (excluding translations, rotations) in present geometry:
  Maximum force component is  0.331770E-02 eV/A.
  Present geometry is converged.

------------------------------------------------------------
  Final atomic structure:
                         x [A]             y [A]             z [A]
            atom        -0.00000000        0.00000000        0.26778616  Au
            atom        -0.00000000       -0.00000000        2.73221384  Au
------------------------------------------------------------

------------------------------------------------------------------------------
  Final output of selected total energy values:

  The following output summarizes some interesting total energy values
  at the end of a run (AFTER all relaxation, molecular dynamics, etc.).

  | Total energy of the DFT / Hartree-Fock s.c.f. calculation      :       -1070660.446518958 eV
  | Final zero-broadening corrected energy (caution - metals only) :       -1070660.446518958 eV
  | For reference only, the value of 1 Hartree used in FHI-aims is :             27.211384500 eV

  Before relying on these values, please be sure to understand exactly which
  total energy value is referred to by a given number. Different objects may
  all carry the same name 'total energy'. Definitions:

  Total energy of the DFT / Hartree-Fock s.c.f. calculation:
  | Note that this energy does not include ANY quantities calculated after the
  | s.c.f. cycle, in particular not ANY RPA, MP2, etc. many-body perturbation terms.

  Final zero-broadening corrected energy:
  | For metallic systems only, a broadening of the occupation numbers at the Fermi
  | level can be extrapolated back to zero broadening by an electron-gas inspired
  | formula. For all systems that are not real metals, this value can be
  | meaningless and should be avoided.

------------------------------------------------------------------------------
  Methods described in the following list of references were used in this FHI-aims run.
  If you publish the results, please make sure to cite these reference if they apply.
  FHI-aims is an academic code, and for our developers (often, Ph.D. students
  and postdocs), scientific credit in the community is essential.
  Thank you for helping us!

  For any use of FHI-aims, please cite:

    Volker Blum, Ralf Gehrke, Felix Hanke, Paula Havu, Ville Havu,
    Xinguo Ren, Karsten Reuter, and Matthias Scheffler
    'Ab initio molecular simulations with numeric atom-centered orbitals'
    Computer Physics Communications 180, 2175-2196 (2009)
    http://dx.doi.org/10.1016/j.cpc.2009.06.022


  The scalable eigensolver library ELPA was used in your run.
  ELPA is essential especially for large systems on hundreds or thousands of CPUs.
  For ELPA, please cite:

    Andreas Marek, Volker Blum, Rainer Johanni, Ville Havu, Bruno Lang,
    Thomas Auckenthaler, Alexander Heinecke, Hans-Joachim Bungartz, and Hermann Lederer,
    'The ELPA Library - Scalable Parallel Eigenvalue Solutions
    for Electronic Structure Theory and Computational Science'
    The Journal of Physics: Condensed Matter 26, 213201 (2014).
    http://dx.doi.org/10.1088/0953-8984/26/21/213201


  The ELSI infrastructure was used in your run to solve the Kohn-Sham electronic structure.
  Please check out http://elsi-interchange.org to learn more.
  If scalability is important for your project, please acknowledge ELSI by citing:

    V. W-z. Yu, F. Corsetti, A. Garcia, W. P. Huhn, M. Jacquelin, W. Jia,
    B. Lange, L. Lin, J. Lu, W. Mi, A. Seifitokaldani, A. Vazquez-Mayagoitia,
    C. Yang, H. Yang, and V. Blum
    'ELSI: A unified software interface for Kohn-Sham electronic structure solvers'
    Computer Physics Communications 222, 267-285 (2018).
    http://dx.doi.org/10.1016/j.cpc.2017.09.007


  For the real-space grid partitioning and parallelization used in this calculation, please cite:

    Ville Havu, Volker Blum, Paula Havu, and Matthias Scheffler,
    'Efficient O(N) integration for all-electron electronic structure calculation'
    'using numerically tabulated basis functions'
    Journal of Computational Physics 228, 8367-8379 (2009).
    http://dx.doi.org/10.1016/j.jcp.2009.08.008

  Of course, there are many other important community references, e.g., those cited in the
  above references. Our list is limited to references that describe implementations in the
  FHI-aims code. The reason is purely practical (length of this list) - please credit others as well.

 * A warning was issued further up regarding the accuracy of onsite integrals.
   An integral with a negative eigenvalue was among the flagged integrals.
   In most standard situations, this warning is probably harmless.
   If needed, this can be verified by adjusting the radial_multiplier flag.

------------------------------------------------------------
          Leaving FHI-aims.
          Date     :  20171223, Time     :  122041.105

          Computational steps:
          | Number of self-consistency cycles          :           84
          | Number of SCF (re)initializations          :            8
          | Number of relaxation steps                 :            7

          Detailed time accounting                     :  max(cpu_time)    wall_clock(cpu1)
          | Total time                                 :        2.994 s           3.207 s
          | Preparation time                           :        0.259 s           0.285 s
          | Boundary condition initalization           :        0.001 s           0.001 s
          | Grid partitioning                          :        0.040 s           0.048 s
          | Preloading free-atom quantities on grid    :        0.022 s           0.021 s
          | Free-atom superposition energy             :        0.019 s           0.020 s
          | Total time for integrations                :        0.891 s           0.929 s
          | Total time for solution of K.-S. equations :        0.213 s           0.240 s
          | Total time for EV reorthonormalization     :        0.011 s           0.015 s
          | Total time for density & force components  :        0.814 s           0.844 s
          | Total time for mixing                      :        0.032 s           0.039 s
          | Total time for Hartree multipole update    :        0.087 s           0.093 s
          | Total time for Hartree multipole sum       :        0.415 s           0.441 s
          | Total time for total energy evaluation     :        0.013 s           0.014 s
          | Total time for scaled ZORA corrections     :        0.000 s           0.000 s

          Partial memory accounting:
          | Residual value for overall tracked memory usage across tasks :           0.000 MB (should be 0.000 MB)
          | Peak values for overall tracked memory usage (after allocating h_times_wave):
          |   Minimum:        0.786 MB (on task 4)
          |   Maximum:        0.849 MB (on task 1)
          |   Average:        0.821 MB
          | Largest tracked array allocation (gradient_basis_wave):
          |   Minimum:        0.337 MB (on task 4)
          |   Maximum:        0.353 MB (on task 1)
          |   Average:        0.349 MB
          Note:  These values currently only include a subset of arrays which are explicitly tracked.
          The "true" memory usage will be greater.

          Have a nice day.
------------------------------------------------------------
