  MPI-parallelism will be employed.
------------------------------------------------------------
          Invoking FHI-aims ...
          Version 180101-
          Git rev. (modified): fa29f3a Merge branch master of fhiaims.rzberlin.mp[...]
          Compiled on 2018/01/19 at 14:47:46 on host theobook132.

          When using FHI-aims, please cite the following reference:

          Volker Blum, Ralf Gehrke, Felix Hanke, Paula Havu,
          Ville Havu, Xinguo Ren, Karsten Reuter, and Matthias Scheffler,
          'Ab Initio Molecular Simulations with Numeric Atom-Centered Orbitals',
          Computer Physics Communications 180, 2175-2196 (2009)

          For any questions about FHI-aims, please visit the aimsclub website
          with its forums and wiki. Contributions to both the forums and the
          wiki are warmly encouraged - they are for you, and everyone is welcome there.

------------------------------------------------------------



  Date     :  20180215, Time     :  214258.131
  Time zero on CPU 1             :   0.400000000000000E-01  s.
  Internal wall clock time zero  :           287962978.131  s.

  FHI-aims created a unique identifier for this run for later identification
  aims_uuid : 9A3FC846-C5E6-4719-AD1B-FB9C0AA8F3A5

  Using        8 parallel tasks.
  Task        0 on host theobook132 reporting.
  Task        1 on host theobook132 reporting.
  Task        2 on host theobook132 reporting.
  Task        3 on host theobook132 reporting.
  Task        4 on host theobook132 reporting.
  Task        5 on host theobook132 reporting.
  Task        6 on host theobook132 reporting.
  Task        7 on host theobook132 reporting.

  Performing system and environment tests:
  *** Environment variable OMP_NUM_THREADS is not set
  *** For performance reasons you might want to set it to 1
  | Stacksize not measured: no C compiler
  | Checking for scalapack...
  | No scalapack compiled in.

  Obtaining array dimensions for all initial allocations:
  
  -----------------------------------------------------------------------
  Parsing control.in (first pass over file, find array dimensions only).
  The contents of control.in will be repeated verbatim below
  unless switched off by setting 'verbatim_writeout .false.' .
  in the first line of control.in .
  -----------------------------------------------------------------------
  
  ################################################################################
  #
  #		Control.in generated by mkcontrol
  #
  ################################################################################
  xc			pbe
  vdw_correction_hirshfeld
  relativistic		none
  sc_accuracy_rho		1E-5
  sc_accuracy_eev		1E-3
  sc_accuracy_etot	1E-6
  sc_iter_limit		1000	
  
  compute_forces .true.
  final_forces_cleaned .true.
  
  ################################################################################
  #
  #  FHI-aims code project
  #  VB, Fritz-Haber Institut, 2009
  #
  #  Suggested "light" defaults for H atom (to be pasted into control.in file)
  #  Be sure to double-check any results obtained with these settings for post-processing,
  #  e.g., with the "tight" defaults and larger basis sets.
  #
  ################################################################################
    species        H
  #     global species definitions
      nucleus             1
      mass                1.00794
  #
      l_hartree           4
  #
      cut_pot             3.5  1.5  1.0
      basis_dep_cutoff    1e-4
  #
      radial_base         24 5.0
      radial_multiplier   1
      angular_grids       specified
        division   0.2421   50
        division   0.3822  110
        division   0.4799  194
        division   0.5341  302
  #      division   0.5626  434
  #      division   0.5922  590
  #      division   0.6542  770
  #      division   0.6868 1202
  #      outer_grid  770
        outer_grid  302
  ################################################################################
  #
  #  Definition of "minimal" basis
  #
  ################################################################################
  #     valence basis states
      valence      1  s   1.
  #     ion occupancy
      ion_occ      1  s   0.5
  ################################################################################
  #
  #  Suggested additional basis functions. For production calculations,
  #  uncomment them one after another (the most important basis functions are
  #  listed first).
  #
  #  Basis constructed for dimers: 0.5 A, 0.7 A, 1.0 A, 1.5 A, 2.5 A
  #
  ################################################################################
  #  "First tier" - improvements: -1014.90 meV to -62.69 meV
       hydro 2 s 2.1
       hydro 2 p 3.5
  #  "Second tier" - improvements: -12.89 meV to -1.83 meV
  #     hydro 1 s 0.85
  #     hydro 2 p 3.7
  #     hydro 2 s 1.2
  #     hydro 3 d 7
  #  "Third tier" - improvements: -0.25 meV to -0.12 meV
  #     hydro 4 f 11.2
  #     hydro 3 p 4.8
  #     hydro 4 d 9
  #     hydro 3 s 3.2
  
  ################################################################################
  #
  #  FHI-aims code project
  #  VB, Fritz-Haber Institut, 2009
  #
  #  Suggested "light" defaults for C atom (to be pasted into control.in file)
  #  Be sure to double-check any results obtained with these settings forpost-processing,
  #  e.g., with the "tight" defaults and larger basis sets.
  #
  ################################################################################
    species        C
  #     global species definitions
      nucleus             6
      mass                12.0107
  #
      l_hartree           4
  #
      cut_pot             3.5  1.5  1.0
      basis_dep_cutoff    1e-4
  #
      radial_base         34 5.0
      radial_multiplier   1
      angular_grids specified
        division   0.3326   50
        division   0.5710  110
        division   0.7727  194
        division   0.8772  302
  #      division   0.9334  434
  #      division   0.9625  590
  #      division   0.9924  770
  #      division   1.0230  974
  #      division   1.4589 1202
  #     outer_grid  974
       outer_grid 302
  ################################################################################
  #
  #  Definition of "minimal" basis
  #
  ################################################################################
  #     valence basis states
      valence      2  s   2.
      valence      2  p   2.
  #     ion occupancy
      ion_occ      2  s   1.
      ion_occ      2  p   1.
  ################################################################################
  #
  #  Suggested additional basis functions. For production calculations,
  #  uncomment them one after another (the most important basis functions are
  #  listed first).
  #
  #  Constructed for dimers: 1.0 A, 1.25 A, 1.5 A, 2.0 A, 3.0 A
  #
  ################################################################################
  #  "First tier" - improvements: -1214.57 meV to -155.61 meV
       hydro 2 p 1.7
       hydro 3 d 6
       hydro 2 s 4.9
  #  "Second tier" - improvements: -67.75 meV to -5.23 meV
  #     hydro 4 f 9.8
  #     hydro 3 p 5.2
  #     hydro 3 s 4.3
  #     hydro 5 g 14.4
  #     hydro 3 d 6.2
  #  "Third tier" - improvements: -2.43 meV to -0.60 meV
  #     hydro 2 p 5.6
  #     hydro 2 s 1.4
  #     hydro 3 d 4.9
  #     hydro 4 f 11.2
  #  "Fourth tier" - improvements: -0.39 meV to -0.18 meV
  #     hydro 2 p 2.1
  #     hydro 5 g 16.4
  #     hydro 4 d 13.2
  #     hydro 3 s 13.6
  #     hydro 4 f 17.6
  #  Further basis functions - improvements: -0.08 meV and below
  #     hydro 3 s 2
  #     hydro 3 p 6
  #     hydro 4 d 20
  
  -----------------------------------------------------------------------
  Completed first pass over input file control.in .
  -----------------------------------------------------------------------
  
  
  -----------------------------------------------------------------------
  Parsing geometry.in (first pass over file, find array dimensions only).
  The contents of geometry.in will be repeated verbatim below
  unless switched off by setting 'verbatim_writeout .false.' .
  in the first line of geometry.in .
  -----------------------------------------------------------------------
  
  #=======================================#
  # iterations/iteration0037/aims-chain-node-0.31244/geometry.in
  #=======================================#
  atom -1.6038970131101866 -1.1332877039584737 -0.0221971098958288 C
  atom -0.6689168380205348 0.0412739928429054 0.1168014219320536 C
  atom 0.6689168344686338 -0.0412739209065771 0.1168020084646831 C
  atom 1.6038969738371098 1.1332876921728954 -0.0221972423937491 C
  atom -1.2488882505470795 -1.7987328353197019 -0.8226442432137779 H
  atom -2.6110109910602546 -0.7966042191910478 -0.3019505973573058 H
  atom -1.7030286453357224 -1.7408147040835686 0.8904933865357184 H
  atom -1.1296565985693312 1.0365823306704436 0.1394961921595909 H
  atom 1.1296566645722190 -1.0365821944765843 0.1394984544071278 H
  atom 1.2488869179704380 1.7987337024437735 -0.8226430529726907 H
  atom 1.7030306111877236 1.7408137342150685 0.8904936855651915 H
  atom 2.6110103346069802 0.7966041255908675 -0.3019529032310190 H
  
  -----------------------------------------------------------------------
  Completed first pass over input file geometry.in .
  -----------------------------------------------------------------------
  

  Basic array size parameters:
  | Number of species                 :        2
  | Number of atoms                   :       12
  | Max. basis fn. angular momentum   :        2
  | Max. atomic/ionic basis occupied n:        2
  | Max. number of basis fn. types    :        2
  | Max. radial fns per species/type  :        3
  | Max. logarithmic grid size        :     1277
  | Max. radial integration grid size :       34
  | Max. angular integration grid size:      302
  | Max. angular grid division number :        8
  | Radial grid for Hartree potential :     1277
  | Number of spin channels           :        1

------------------------------------------------------------
          Reading file control.in.
------------------------------------------------------------
  XC: Using PBE gradient-corrected functionals.
  Non-relativistic treatment of kinetic energy.
  Convergence accuracy of self-consistent charge density:  0.1000E-04
  Convergence accuracy of sum of eigenvalues:  0.1000E-02
  Convergence accuracy of total energy:  0.1000E-05
  Maximum number of s.-c. iterations  :  1000
  Forces will be computed.
  Cleaning forces before final output.
 
  Reading configuration options for species H                   .
  | Found nuclear charge :   1.0000
  | Found atomic mass :    1.00794000000000      amu
  | Found l_max for Hartree potential  :   4
  | Found cutoff potl. onset [A], width [A], scale factor :    3.50000    1.50000    1.00000
  | Threshold for basis-dependent cutoff potential is   0.100000E-03
  | Found data for basic radial integration grid :    24 points, outermost radius =    5.000 A
  | Found multiplier for basic radial grid :   1
  | Found angular grid specification: user-specified.
  | Specified grid contains     5 separate shells.
  | Check grid settings after all constraints further below.
  | Found free-atom valence shell :  1 s   1.000
  | No ionic wave fns used. Skipping ion_occ.
  | Found hydrogenic basis function :  2 s   2.100
  | Found hydrogenic basis function :  2 p   3.500
  Species H                   : Missing cutoff potential type.
  Defaulting to exp(1/x)/(1-x)^2 type cutoff potential.
  Species H : No 'logarithmic' tag. Using default grid for free atom:
  | Default logarithmic grid data [bohr] : 0.1000E-03 0.1000E+03 0.1012E+01
  Species H : On-site basis accuracy parameter (for Gram-Schmidt orthonormalisation) not specified.
  Using default value basis_acc =  0.1000000E-03.
  Species H                   : Using default innermost maximum threshold i_radial=  2 for radial functions.
  Species H                   : Default cutoff onset for free atom density etc. : 0.35000000E+01 AA.
  Species H                   : Basic radial grid will be enhanced according to radial_multiplier =   1, to contain    24 grid points.
 
  Reading configuration options for species C                   .
  | Found nuclear charge :   6.0000
  | Found atomic mass :    12.0107000000000      amu
  | Found l_max for Hartree potential  :   4
  | Found cutoff potl. onset [A], width [A], scale factor :    3.50000    1.50000    1.00000
  | Threshold for basis-dependent cutoff potential is   0.100000E-03
  | Found data for basic radial integration grid :    34 points, outermost radius =    5.000 A
  | Found multiplier for basic radial grid :   1
  | Found angular grid specification: user-specified.
  | Specified grid contains     5 separate shells.
  | Check grid settings after all constraints further below.
  | Found free-atom valence shell :  2 s   2.000
  | Found free-atom valence shell :  2 p   2.000
  | No ionic wave fns used. Skipping ion_occ.
  | No ionic wave fns used. Skipping ion_occ.
  | Found hydrogenic basis function :  2 p   1.700
  | Found hydrogenic basis function :  3 d   6.000
  | Found hydrogenic basis function :  2 s   4.900
  Species C                   : Missing cutoff potential type.
  Defaulting to exp(1/x)/(1-x)^2 type cutoff potential.
  Species C : No 'logarithmic' tag. Using default grid for free atom:
  | Default logarithmic grid data [bohr] : 0.1000E-03 0.1000E+03 0.1012E+01
  Species C : On-site basis accuracy parameter (for Gram-Schmidt orthonormalisation) not specified.
  Using default value basis_acc =  0.1000000E-03.
  Species C                   : Using default innermost maximum threshold i_radial=  2 for radial functions.
  Species C                   : Default cutoff onset for free atom density etc. : 0.35000000E+01 AA.
  Species C                   : Basic radial grid will be enhanced according to radial_multiplier =   1, to contain    34 grid points.
 
  Finished reading input file 'control.in'. Consistency checks are next.
 
  MPI_IN_PLACE appears to work with this MPI implementation.
  | Keeping use_mpi_in_place .true. (see manual).
  Target number of points in a grid batch is not set. Defaulting to  100
  Method for grid partitioning is not set. Defaulting to parallel hash+maxmin partitioning.
  Batch size limit is not set. Defaulting to    200
  By default, will store active basis functions for each batch.
  If in need of memory, prune_basis_once .false. can be used to disable this option.
  communication_type for Hartree potential was not specified.
  Defaulting to calc_hartree .
  Defaulting to Pulay charge density mixer.
  Pulay mixer: Number of relevant iterations not set.
  Defaulting to    8 iterations.
  Pulay mixer: Number of initial linear mixing iterations not set.
  Defaulting to    0 iterations.
  Work space size for distributed Hartree potential not set.
  Defaulting to   0.200000E+03 MB.
  Mixing parameter for charge density mixing has not been set.
  Using default: charge_mix_param =     0.0500.
  The mixing parameter will be adjusted in iteration number     2 of the first full s.c.f. cycle only.
  Algorithm-dependent basis array size parameters:
  | n_max_pulay                         :        8
  Presetting        40 iterations before the initial mixing cycle
  is restarted anyway using the sc_init_iter criterion / keyword.
  Presetting a factor      1.000 between actual scf density residual
  and density convergence criterion sc_accuracy_rho below which sc_init_iter
  takes no effect.
  Geometry relaxation not requested: no relaxation will be performed.
  Force calculation: scf convergence accuracy of forces not set.
  Defaulting to 'sc_accuracy_forces not_checked'.
  Handling of forces: Unphysical translation and rotation will be removed from forces.
  No accuracy limit for integral partition fn. given. Defaulting to  0.1000E-14.
  No threshold value for u(r) in integrations given. Defaulting to  0.1000E-05.
  No occupation type (smearing scheme) given. Defaulting to Gaussian broadening, width =  0.1000E-01 eV.
  The width will be adjusted in iteration number     2 of the first full s.c.f. cycle only.
  S.C.F. convergence parameters will be adjusted in iteration number     2 of the first full s.c.f. cycle only.
  No accuracy for occupation numbers given. Defaulting to  0.1000E-12.
  No threshold value for occupation numbers given. Defaulting to  0.0000E+00.
  No accuracy for fermi level given. Defaulting to  0.1000E-19.
  Maximum # of iterations to find E_F not set. Defaulting to  200.
  Preferred method for the eigenvalue solver ('KS_method') not specified in 'control.in'.
  Calling BLACS routine to test compilation state
  The best choice would be 'elsi', but your version of FHI-aims is compiled without ScaLAPACK support.
  Defaulting to 'lapack_fast' instead (serial solution, time will not improve with more CPUs).
  Will not use alltoall communication since running on < 1024 CPUs.
  Threshold for basis singularities not set.
  Default threshold for basis singularities:  0.1000E-04
  partition_type (choice of integration weights) for integrals was not specified.
  | Using a version of the partition function of Stratmann and coworkers ('stratmann_smoother').
  | At each grid point, the set of atoms used to build the partition table is smoothly restricted to
  | only those atoms whose free-atom density would be non-zero at that grid point.
  Partitioning for Hartree potential was not defined. Using partition_type for integrals.
  | Adjusted default value of keyword multip_moments_threshold to:       0.10000000E-11
  | This value may affect high angular momentum components of the Hartree potential in periodic systems.
  Spin handling was not defined in control.in. Defaulting to unpolarized case.
  No q(lm)/r^(l+1) cutoff set for long-range Hartree potential.
  | Using default value of  0.100000E-09 .
  | Verify using the multipole_threshold keyword.
  Defaulting to new monopole extrapolation.
  Density update method: automatic selection selected.
------------------------------------------------------------


------------------------------------------------------------
          Reading geometry description geometry.in.
------------------------------------------------------------
  Input structure read successfully.
  The structure contains       12 atoms,  and a total of         32.000 electrons.

  Input geometry:
  | No unit cell requested.
  | Atomic structure:
  |       Atom                x [A]            y [A]            z [A]
  |    1: Species C            -1.60389701       -1.13328770       -0.02219711
  |    2: Species C            -0.66891684        0.04127399        0.11680142
  |    3: Species C             0.66891683       -0.04127392        0.11680201
  |    4: Species C             1.60389697        1.13328769       -0.02219724
  |    5: Species H            -1.24888825       -1.79873284       -0.82264424
  |    6: Species H            -2.61101099       -0.79660422       -0.30195060
  |    7: Species H            -1.70302865       -1.74081470        0.89049339
  |    8: Species H            -1.12965660        1.03658233        0.13949619
  |    9: Species H             1.12965666       -1.03658219        0.13949845
  |   10: Species H             1.24888692        1.79873370       -0.82264305
  |   11: Species H             1.70303061        1.74081373        0.89049369
  |   12: Species H             2.61101033        0.79660413       -0.30195290
  |

  | The smallest distance between any two atoms is         1.09701179 AA.
  |
  | The first atom of this pair is atom number                      2 .
  | The second atom of this pair is atom number                     8 .

  Number of empty states per atom not set in control.in - providing a guess from actual geometry.
  | Total number of empty states used during s.c.f. cycle:       24
  If you use a very high smearing, use empty_states (per atom!) in control.in to increase this value.

  Structure-dependent array size parameters: 
  | Maximum number of distinct radial functions  :        9
  | Maximum number of basis functions            :       96
  | Number of Kohn-Sham states (occupied + empty):       40
------------------------------------------------------------

------------------------------------------------------------
          Preparing all fixed parts of the calculation.
------------------------------------------------------------
  Determining machine precision:
    2.225073858507201E-308
  Setting up grids for atomic and cluster calculations.

  Creating wave function, potential, and density for free atoms.

  Species: H

  List of occupied orbitals and eigenvalues:
    n    l              occ      energy [Ha]    energy [eV]
    1    0           1.0000        -0.237589        -6.4651


  Species: C

  List of occupied orbitals and eigenvalues:
    n    l              occ      energy [Ha]    energy [eV]
    1    0           2.0000       -10.038835      -273.1706
    2    0           2.0000        -0.502696       -13.6791
    2    1           2.0000        -0.191971        -5.2238

  Creating fixed part of basis set: Ionic, confined, hydrogenic.
 
  H                    hydrogenic:
 
  List of hydrogenic basis orbitals: 
    n    l      effective z      eigenvalue [eV]  inner max. [A]     outer max. [A]     outer radius [A]   
    2    0         2.100000       -14.9728           0.193243           1.317208           4.583499
    2    1         3.500000       -41.6669           0.602369           0.602369           3.723403
 
 
  C                    hydrogenic:
 
  List of hydrogenic basis orbitals: 
    n    l      effective z      eigenvalue [eV]  inner max. [A]     outer max. [A]     outer radius [A]   
    2    1         1.700000        -9.7616           1.230570           1.230570           4.607917
    3    2         6.000000       -54.4224           0.792453           0.792453           3.883070
    2    0         4.900000       -81.6679           0.082559           0.562749           3.078220
 

  Adding cutoff potential to free-atom effective potential.
  Creating atomic-like basis functions for current effective potential.

  Species H                   :

  List of atomic basis orbitals and eigenvalues:
    n    l      energy [Ha]    energy [eV]    outer radius [A]
    1    0        -0.237589        -6.4651       4.527807


  Species C                   :

  List of atomic basis orbitals and eigenvalues:
    n    l      energy [Ha]    energy [eV]    outer radius [A]
    1    0       -10.038835      -273.1706       1.934409
    2    0        -0.502696       -13.6791       4.496620
    2    1        -0.191971        -5.2238       4.551928

  Assembling full basis from fixed parts.
  | Species H :   atomic orbital   1 s accepted.
  | Species H :    hydro orbital   2 s accepted.
  | Species H :    hydro orbital   2 p accepted.
  | Species C :   atomic orbital   1 s accepted.
  | Species C :    hydro orbital   2 s accepted.
  | Species C :   atomic orbital   2 s accepted.
  | Species C :   atomic orbital   2 p accepted.
  | Species C :    hydro orbital   2 p accepted.
  | Species C :    hydro orbital   3 d accepted.
 
  Basis size parameters after reduction:
  | Total number of radial functions:        9
  | Total number of basis functions :       96
 
  Per-task memory consumption for arrays in subroutine allocate_ext:
  |           2.209696MB.
  Testing on-site integration grid accuracy.
  |  Species  Function  <phi|h_atom|phi> (log., in eV)  <phi|h_atom|phi> (rad., in eV)
           1        1                 -6.4663192853                 -6.4651273558
           1        2                 13.7111246313                 13.7170609718
           1        3                 25.2673269279                 25.2674696378
           2        4               -273.1705927641               -273.1705631568
           2        5                -10.7109323383                -10.7107120029
           2        6                 17.4381822266                 17.4352413244
           2        7                 -5.2255326521                 -5.2270484734
           2        8                  8.6835629259                  8.6603288385
           2        9                 27.4952418996                 27.4953360207

  Preparing densities etc. for the partition functions (integrals / Hartree potential).

  Preparations completed.
  max(cpu_time)          :      0.124 s.
  Wall clock time (cpu1) :      0.145 s.
------------------------------------------------------------

------------------------------------------------------------
          Begin self-consistency loop: Initialization.

          Date     :  20180215, Time     :  214258.296
------------------------------------------------------------

  Initializing index lists of integration centers etc. from given atomic structure:
  | Number of centers in hartree potential         :        12
  | Number of centers in hartree multipole         :        12
  | Number of centers in electron density summation:        12
  | Number of centers in basis integrals           :        12
  | Number of centers in integrals                 :        12
  | Number of centers in hamiltonian               :        12
  Partitioning the integration grid into batches with parallel hashing+maxmin method.
  | Number of batches:      726
  | Maximal batch size:     179
  | Minimal batch size:      66
  | Average batch size:      83.945
  | Standard deviation of batch sizes:      18.781

  Integration load balanced across     8 MPI tasks.
  Work distribution over tasks is as follows:
  Task     0 has       7649 integration points.
  Task     1 has       7574 integration points.
  Task     2 has       7601 integration points.
  Task     3 has       7638 integration points.
  Task     4 has       7601 integration points.
  Task     5 has       7622 integration points.
  Task     6 has       7621 integration points.
  Task     7 has       7638 integration points.
  Initializing partition tables, free-atom densities, potentials, etc. across the integration grid (initialize_grid_storage).
  | initialize_grid_storage: Actual outermost partition radius vs. multipole_radius_free
  | (-- VB: in principle, multipole_radius_free should be larger, hence this output)
  | Species        1: Confinement radius =              4.999999999999999 AA, multipole_radius_free =              5.054417573612229 AA.
  | Species        1: outer_partition_radius set to              5.054417573612229 AA .
  | Species        2: Confinement radius =              4.999999999999999 AA, multipole_radius_free =              5.019602836301480 AA.
  | Species        2: outer_partition_radius set to              5.019602836301480 AA .
  | Original list of interatomic distances with          12 x         12 entries is created.
  | Net number of integration points:    60944
  | of which are non-zero points    :    52364
  Renormalizing the initial density to the exact electron count on the 3D integration grid.
  | Initial density: Formal number of electrons (from input files) :      32.0000000000
  | Integrated number of electrons on 3D grid     :      31.9998421678
  | Charge integration error                      :      -0.0001578322
  | Normalization factor for density and gradient :       1.0000049323
  Obtaining max. number of non-zero basis functions in each batch (get_n_compute_maxes).
  | Maximal number of non-zero basis functions:       96 in task     0
  | Maximal number of non-zero basis functions:       96 in task     1
  | Maximal number of non-zero basis functions:       96 in task     2
  | Maximal number of non-zero basis functions:       96 in task     3
  | Maximal number of non-zero basis functions:       96 in task     4
  | Maximal number of non-zero basis functions:       96 in task     5
  | Maximal number of non-zero basis functions:       96 in task     6
  | Maximal number of non-zero basis functions:       96 in task     7
  Selecting the method for density update.
  Loop over occupied states selected for charge density update.
  Allocating        0.031 MB for KS_eigenvector
  Integrating Hamiltonian matrix: batch-based integration.
  Time summed over all CPUs for integration: real work        1.545 s, elapsed        2.285 s => Consider using load balancing!
  Integrating overlap matrix.
  Time summed over all CPUs for integration: real work        0.532 s, elapsed        0.749 s

  Updating Kohn-Sham eigenvalues, eigenvectors, occupation numbers, and Fermi level.
  Solving generalized eigenproblem
  Updating Kohn-Sham eigenvalues and eigenfunctions.
  Transforming overlap matrix and checking for singularities.
  Overlap matrix is nonsingular:
  | Lowest eigenvalue:  0.319791E-02
  Solving real generalised eigenvalue problem by standard LAPACK (fast)

  Obtaining occupation numbers and chemical potential using ELSI.
  | Chemical potential (Fermi level):    -8.50228550eV
  Writing Kohn-Sham eigenvalues.

  State    Occupation    Eigenvalue [Ha]    Eigenvalue [eV]
      1       2.00000         -10.166360         -276.64072
      2       2.00000         -10.166360         -276.64072
      3       2.00000         -10.150860         -276.21894
      4       2.00000         -10.150204         -276.20111
      5       2.00000          -0.927483          -25.23811
      6       2.00000          -0.853849          -23.23441
      7       2.00000          -0.784862          -21.35718
      8       2.00000          -0.667442          -18.16202
      9       2.00000          -0.591216          -16.08782
     10       2.00000          -0.584425          -15.90301
     11       2.00000          -0.548026          -14.91255
     12       2.00000          -0.535033          -14.55899
     13       2.00000          -0.516793          -14.06264
     14       2.00000          -0.511891          -13.92928
     15       2.00000          -0.474622          -12.91512
     16       2.00000          -0.383932          -10.44733
     17       0.00000          -0.185198           -5.03950
     18       0.00000          -0.037192           -1.01204
     19       0.00000          -0.032429           -0.88243
     20       0.00000          -0.015288           -0.41600
     21       0.00000          -0.003455           -0.09403
     22       0.00000           0.017473            0.47547
     23       0.00000           0.022536            0.61324
     24       0.00000           0.044870            1.22098
     25       0.00000           0.048961            1.33231
     26       0.00000           0.052093            1.41751
     27       0.00000           0.136494            3.71418
     28       0.00000           0.180717            4.91757
     29       0.00000           0.192074            5.22660
     30       0.00000           0.196539            5.34810
     31       0.00000           0.225319            6.13124
     32       0.00000           0.233301            6.34845
     33       0.00000           0.246996            6.72110
     34       0.00000           0.264890            7.20801
     35       0.00000           0.343289            9.34137
     36       0.00000           0.366721            9.97899
     37       0.00000           0.394737           10.74133
     38       0.00000           0.433585           11.79846
     39       0.00000           0.511725           13.92474
     40       0.00000           0.522624           14.22131

  Highest occupied state (VBM) at    -10.44733463 eV
  | Occupation number:      2.00000000

  Lowest unoccupied state (CBM) at    -5.03949783 eV
  | Occupation number:      0.00000000

  Overall HOMO-LUMO gap:      5.40783679 eV.
  Calculating total energy contributions from superposition of free atom densities.

  Total energy components:
  | Sum of eigenvalues            :         -96.02671805 Ha       -2613.01994720 eV
  | XC energy correction          :         -23.65454158 Ha        -643.67282616 eV
  | XC potential correction       :          30.38587983 Ha         826.84185954 eV
  | Free-atom electrostatic energy:         -68.02763710 Ha       -1851.12618986 eV
  | Hartree energy correction     :           0.00000000 Ha           0.00000000 eV
  | vdW energy correction         :           0.00000000 Ha           0.00000000 eV
  | Entropy correction            :           0.00000000 Ha           0.00000000 eV
  | ---------------------------
  | Total energy                  :        -157.32301690 Ha       -4280.97710368 eV
  | Total energy, T -> 0          :        -157.32301690 Ha       -4280.97710368 eV  <-- do not rely on this value for anything but (periodic) metals
  | Electronic free energy        :        -157.32301690 Ha       -4280.97710368 eV

  Derived energy quantities:
  | Kinetic energy                :         154.18475892 Ha        4195.58075899 eV
  | Electrostatic energy          :        -287.85323424 Ha       -7832.88503651 eV
  | Energy correction for multipole
  | error in Hartree potential    :           0.00000000 Ha           0.00000000 eV
  | Sum of eigenvalues per atom                           :        -217.75166227 eV
  | Total energy (T->0) per atom                          :        -356.74809197 eV  <-- do not rely on this value for anything but (periodic) metals
  | Electronic free energy per atom                       :        -356.74809197 eV
  Initialize hartree_potential_storage
  Max. number of atoms included in rho_multipole:           12

  End scf initialization - timings             :  max(cpu_time)    wall_clock(cpu1)
  | Time for scf. initialization               :        0.692 s           0.696 s
  | Boundary condition initialization          :        0.000 s           0.000 s
  | Integration                                :        0.400 s           0.401 s
  | Solution of K.-S. eqns.                    :        0.012 s           0.016 s
  | Grid partitioning                          :        0.100 s           0.100 s
  | Preloading free-atom quantities on grid    :        0.004 s           0.007 s
  | Free-atom superposition energy             :        0.028 s           0.027 s
  | Total energy evaluation                    :        0.000 s           0.000 s

  Partial memory accounting:
  | Current value for overall tracked memory usage on task 0  :           0.179 MB
  | Peak value for overall tracked memory usage on task 0     :           0.594 MB after allocating wave
  | Largest tracked array allocation on task 0 so far         :           0.137 MB  when allocating H_times_psi
  Note:  These values currently only include a subset of arrays which are explicitly tracked.
  The "true" memory usage will be greater.
------------------------------------------------------------

------------------------------------------------------------
          Begin self-consistency iteration #    1

  Date     :  20180215, Time     :  214258.993
------------------------------------------------------------
  Evaluating new KS density.
  Integration grid: deviation in total charge (<rho> - N_e) =   1.421085E-14
  Pulay mixing of updated and previous charge densities.

  Evaluating partitioned Hartree potential by multipole expansion.
  | Analytical far-field extrapolation by fixed multipoles:
  | Hartree multipole sum: apparent total charge =  -0.189182E-03
  Summing up the Hartree potential.
  Time summed over all CPUs for potential: real work        1.522 s, elapsed        2.288 s
  | RMS charge density error from multipole expansion :   0.132493E-02

  Integrating Hamiltonian matrix: batch-based integration.
  Time summed over all CPUs for integration: real work        1.570 s, elapsed        2.181 s => Consider using load balancing!

  Updating Kohn-Sham eigenvalues, eigenvectors, occupation numbers, and Fermi level.
  Solving generalized eigenproblem
  Updating Kohn-Sham eigenvalues and eigenfunctions.
  Solving real generalised eigenvalue problem by standard LAPACK (fast)

  Obtaining occupation numbers and chemical potential using ELSI.
  | Chemical potential (Fermi level):    -8.12086762eV
  Writing Kohn-Sham eigenvalues.

  State    Occupation    Eigenvalue [Ha]    Eigenvalue [eV]
      1       2.00000         -10.131647         -275.69614
      2       2.00000         -10.131647         -275.69614
      3       2.00000         -10.121392         -275.41708
      4       2.00000         -10.120736         -275.39924
      5       2.00000          -0.907147          -24.68474
      6       2.00000          -0.834936          -22.71976
      7       2.00000          -0.765530          -20.83113
      8       2.00000          -0.651209          -17.72031
      9       2.00000          -0.572453          -15.57725
     10       2.00000          -0.566302          -15.40986
     11       2.00000          -0.531457          -14.46169
     12       2.00000          -0.518602          -14.11187
     13       2.00000          -0.497981          -13.55076
     14       2.00000          -0.495453          -13.48196
     15       2.00000          -0.458405          -12.47385
     16       2.00000          -0.366701           -9.97844
     17       0.00000          -0.169211           -4.60446
     18       0.00000          -0.025330           -0.68925
     19       0.00000          -0.023233           -0.63219
     20       0.00000          -0.007222           -0.19651
     21       0.00000           0.005806            0.15799
     22       0.00000           0.032071            0.87269
     23       0.00000           0.032769            0.89169
     24       0.00000           0.055251            1.50347
     25       0.00000           0.060683            1.65127
     26       0.00000           0.062938            1.71262
     27       0.00000           0.148820            4.04959
     28       0.00000           0.192810            5.24663
     29       0.00000           0.201800            5.49124
     30       0.00000           0.206766            5.62640
     31       0.00000           0.239558            6.51872
     32       0.00000           0.246071            6.69592
     33       0.00000           0.256939            6.99167
     34       0.00000           0.277131            7.54112
     35       0.00000           0.353915            9.63053
     36       0.00000           0.377983           10.28543
     37       0.00000           0.407077           11.07712
     38       0.00000           0.444171           12.08652
     39       0.00000           0.523291           14.23946
     40       0.00000           0.534887           14.55500

  Highest occupied state (VBM) at     -9.97844228 eV
  | Occupation number:      2.00000000

  Lowest unoccupied state (CBM) at    -4.60445784 eV
  | Occupation number:      0.00000000

  Overall HOMO-LUMO gap:      5.37398443 eV.

  Total energy components:
  | Sum of eigenvalues            :         -95.34319831 Ha       -2594.42042876 eV
  | XC energy correction          :         -23.71519670 Ha        -645.32333582 eV
  | XC potential correction       :          30.46449525 Ha         828.98109383 eV
  | Free-atom electrostatic energy:         -68.02763710 Ha       -1851.12618986 eV
  | Hartree energy correction     :          -0.65213262 Ha         -17.74543140 eV
  | vdW energy correction         :           0.00000000 Ha           0.00000000 eV
  | Entropy correction            :           0.00000000 Ha           0.00000000 eV
  | ---------------------------
  | Total energy                  :        -157.27366948 Ha       -4279.63429201 eV
  | Total energy, T -> 0          :        -157.27366948 Ha       -4279.63429201 eV  <-- do not rely on this value for anything but (periodic) metals
  | Electronic free energy        :        -157.27366948 Ha       -4279.63429201 eV

  Derived energy quantities:
  | Kinetic energy                :         154.51364832 Ha        4204.53029481 eV
  | Electrostatic energy          :        -288.07212110 Ha       -7838.84125101 eV
  | Energy correction for multipole
  | error in Hartree potential    :           0.00227527 Ha           0.06191314 eV
  | Sum of eigenvalues per atom                           :        -216.20170240 eV
  | Total energy (T->0) per atom                          :        -356.63619100 eV  <-- do not rely on this value for anything but (periodic) metals
  | Electronic free energy per atom                       :        -356.63619100 eV

  Self-consistency convergence accuracy:
  | Change of charge density      :  0.4891E+00
  | Change of sum of eigenvalues  :  0.1860E+02 eV
  | Change of total energy        :  0.1343E+01 eV

  End self-consistency iteration #     1       :  max(cpu_time)    wall_clock(cpu1)
  | Time for this iteration                    :        0.848 s           0.868 s
  | Charge density update                      :        0.240 s           0.239 s
  | Density mixing                             :        0.004 s           0.002 s
  | Hartree multipole update                   :        0.016 s           0.016 s
  | Hartree multipole summation                :        0.300 s           0.306 s
  | Integration                                :        0.284 s           0.293 s
  | Solution of K.-S. eqns.                    :        0.004 s           0.002 s
  | Total energy evaluation                    :        0.004 s           0.001 s

  Partial memory accounting:
  | Current value for overall tracked memory usage on task 0  :           0.179 MB
  | Peak value for overall tracked memory usage on task 0     :           0.729 MB after allocating gradient_basis_wave
  | Largest tracked array allocation on task 0 so far         :           0.412 MB  when allocating gradient_basis_wave
  Note:  These values currently only include a subset of arrays which are explicitly tracked.
  The "true" memory usage will be greater.
------------------------------------------------------------

------------------------------------------------------------
          Begin self-consistency iteration #    2

  Date     :  20180215, Time     :  214259.862
------------------------------------------------------------
  Evaluating new KS density.
  Integration grid: deviation in total charge (<rho> - N_e) =   7.105427E-15
  Pulay mixing of updated and previous charge densities.

  Evaluating partitioned Hartree potential by multipole expansion.
  | Analytical far-field extrapolation by fixed multipoles:
  | Hartree multipole sum: apparent total charge =  -0.465007E-03
  Summing up the Hartree potential.
  Time summed over all CPUs for potential: real work        1.408 s, elapsed        1.889 s
  | RMS charge density error from multipole expansion :   0.130587E-01

  Integrating Hamiltonian matrix: batch-based integration.
  Time summed over all CPUs for integration: real work        1.348 s, elapsed        1.553 s

  Updating Kohn-Sham eigenvalues, eigenvectors, occupation numbers, and Fermi level.
  Solving generalized eigenproblem
  Updating Kohn-Sham eigenvalues and eigenfunctions.
  Solving real generalised eigenvalue problem by standard LAPACK (fast)

  Obtaining occupation numbers and chemical potential using ELSI.
  | Chemical potential (Fermi level):    -4.80112737eV
  Highest occupied state (VBM) at     -6.10365802 eV
  | Occupation number:      2.00000000

  Lowest unoccupied state (CBM) at    -1.08902968 eV
  | Occupation number:      0.00000000

  Overall HOMO-LUMO gap:      5.01462834 eV.

  Checking to see if s.c.f. parameters should be adjusted.
  The system likely has a gap. Increased the default Pulay mixing parameter (charge_mix_param). Value:   0.200000 .
  Kept the default occupation width. Value:   0.010000 eV.

  Total energy components:
  | Sum of eigenvalues            :         -89.62071260 Ha       -2438.70366985 eV
  | XC energy correction          :         -24.27560359 Ha        -660.57278319 eV
  | XC potential correction       :          31.19051738 Ha         848.73716115 eV
  | Free-atom electrostatic energy:         -68.02763710 Ha       -1851.12618986 eV
  | Hartree energy correction     :          -6.33656906 Ha        -172.42681711 eV
  | vdW energy correction         :           0.00000000 Ha           0.00000000 eV
  | Entropy correction            :           0.00000000 Ha           0.00000000 eV
  | ---------------------------
  | Total energy                  :        -157.07000498 Ha       -4274.09229886 eV
  | Total energy, T -> 0          :        -157.07000498 Ha       -4274.09229886 eV  <-- do not rely on this value for anything but (periodic) metals
  | Electronic free energy        :        -157.07000498 Ha       -4274.09229886 eV

  Derived energy quantities:
  | Kinetic energy                :         156.94516987 Ha        4270.69536278 eV
  | Electrostatic energy          :        -289.73957126 Ha       -7884.21487844 eV
  | Energy correction for multipole
  | error in Hartree potential    :           0.02162125 Ha           0.58834423 eV
  | Sum of eigenvalues per atom                           :        -203.22530582 eV
  | Total energy (T->0) per atom                          :        -356.17435824 eV  <-- do not rely on this value for anything but (periodic) metals
  | Electronic free energy per atom                       :        -356.17435824 eV

  Self-consistency convergence accuracy:
  | Change of charge density      :  0.4500E+00
  | Change of sum of eigenvalues  :  0.1557E+03 eV
  | Change of total energy        :  0.5542E+01 eV

  End self-consistency iteration #     2       :  max(cpu_time)    wall_clock(cpu1)
  | Time for this iteration                    :        0.700 s           0.733 s
  | Charge density update                      :        0.228 s           0.222 s
  | Density mixing                             :        0.004 s           0.003 s
  | Hartree multipole update                   :        0.040 s           0.038 s
  | Hartree multipole summation                :        0.256 s           0.259 s
  | Integration                                :        0.204 s           0.208 s
  | Solution of K.-S. eqns.                    :        0.004 s           0.002 s
  | Total energy evaluation                    :        0.000 s           0.000 s

  Partial memory accounting:
  | Current value for overall tracked memory usage on task 0  :           0.180 MB
  | Peak value for overall tracked memory usage on task 0     :           0.729 MB after allocating gradient_basis_wave
  | Largest tracked array allocation on task 0 so far         :           0.412 MB  when allocating gradient_basis_wave
  Note:  These values currently only include a subset of arrays which are explicitly tracked.
  The "true" memory usage will be greater.
------------------------------------------------------------

------------------------------------------------------------
          Begin self-consistency iteration #    3

  Date     :  20180215, Time     :  214300.595
------------------------------------------------------------
  Evaluating new KS density.
  Integration grid: deviation in total charge (<rho> - N_e) =   1.421085E-14
  Pulay mixing of updated and previous charge densities.

  Evaluating partitioned Hartree potential by multipole expansion.
  | Analytical far-field extrapolation by fixed multipoles:
  | Hartree multipole sum: apparent total charge =  -0.463404E-03
  Summing up the Hartree potential.
  Time summed over all CPUs for potential: real work        1.314 s, elapsed        1.445 s
  | RMS charge density error from multipole expansion :   0.161347E-01

  Integrating Hamiltonian matrix: batch-based integration.
  Time summed over all CPUs for integration: real work        1.307 s, elapsed        1.432 s

  Updating Kohn-Sham eigenvalues, eigenvectors, occupation numbers, and Fermi level.
  Solving generalized eigenproblem
  Updating Kohn-Sham eigenvalues and eigenfunctions.
  Solving real generalised eigenvalue problem by standard LAPACK (fast)

  Obtaining occupation numbers and chemical potential using ELSI.
  | Chemical potential (Fermi level):    -5.16397369eV
  Highest occupied state (VBM) at     -6.76804973 eV
  | Occupation number:      2.00000000

  Lowest unoccupied state (CBM) at    -1.68971343 eV
  | Occupation number:      0.00000000

  Overall HOMO-LUMO gap:      5.07833630 eV.

  Total energy components:
  | Sum of eigenvalues            :         -90.56237187 Ha       -2464.32752211 eV
  | XC energy correction          :         -24.23072371 Ha        -659.35153958 eV
  | XC potential correction       :          31.12880038 Ha         847.05775604 eV
  | Free-atom electrostatic energy:         -68.02763710 Ha       -1851.12618986 eV
  | Hartree energy correction     :          -5.37261430 Ha        -146.19627351 eV
  | vdW energy correction         :           0.00000000 Ha           0.00000000 eV
  | Entropy correction            :           0.00000000 Ha           0.00000000 eV
  | ---------------------------
  | Total energy                  :        -157.06454661 Ha       -4273.94376902 eV
  | Total energy, T -> 0          :        -157.06454661 Ha       -4273.94376902 eV  <-- do not rely on this value for anything but (periodic) metals
  | Electronic free energy        :        -157.06454661 Ha       -4273.94376902 eV

  Derived energy quantities:
  | Kinetic energy                :         156.28533593 Ha        4252.74036779 eV
  | Electrostatic energy          :        -289.11915883 Ha       -7867.33259723 eV
  | Energy correction for multipole
  | error in Hartree potential    :           0.02609366 Ha           0.71004450 eV
  | Sum of eigenvalues per atom                           :        -205.36062684 eV
  | Total energy (T->0) per atom                          :        -356.16198075 eV  <-- do not rely on this value for anything but (periodic) metals
  | Electronic free energy per atom                       :        -356.16198075 eV

  Self-consistency convergence accuracy:
  | Change of charge density      :  0.2093E+00
  | Change of sum of eigenvalues  : -0.2562E+02 eV
  | Change of total energy        :  0.1485E+00 eV

  End self-consistency iteration #     3       :  max(cpu_time)    wall_clock(cpu1)
  | Time for this iteration                    :        0.628 s           0.666 s
  | Charge density update                      :        0.248 s           0.261 s
  | Density mixing                             :        0.008 s           0.008 s
  | Hartree multipole update                   :        0.016 s           0.019 s
  | Hartree multipole summation                :        0.192 s           0.189 s
  | Integration                                :        0.188 s           0.186 s
  | Solution of K.-S. eqns.                    :        0.004 s           0.002 s
  | Total energy evaluation                    :        0.000 s           0.000 s

  Partial memory accounting:
  | Current value for overall tracked memory usage on task 0  :           0.180 MB
  | Peak value for overall tracked memory usage on task 0     :           0.730 MB after allocating gradient_basis_wave
  | Largest tracked array allocation on task 0 so far         :           0.412 MB  when allocating gradient_basis_wave
  Note:  These values currently only include a subset of arrays which are explicitly tracked.
  The "true" memory usage will be greater.
------------------------------------------------------------

------------------------------------------------------------
          Begin self-consistency iteration #    4

  Date     :  20180215, Time     :  214301.261
------------------------------------------------------------
  Evaluating new KS density.
  Integration grid: deviation in total charge (<rho> - N_e) =  -3.552714E-15
  Pulay mixing of updated and previous charge densities.

  Evaluating partitioned Hartree potential by multipole expansion.
  | Analytical far-field extrapolation by fixed multipoles:
  | Hartree multipole sum: apparent total charge =  -0.548815E-03
  Summing up the Hartree potential.
  Time summed over all CPUs for potential: real work        1.310 s, elapsed        1.359 s
  | RMS charge density error from multipole expansion :   0.219193E-01

  Integrating Hamiltonian matrix: batch-based integration.
  Time summed over all CPUs for integration: real work        1.274 s, elapsed        1.321 s

  Updating Kohn-Sham eigenvalues, eigenvectors, occupation numbers, and Fermi level.
  Solving generalized eigenproblem
  Updating Kohn-Sham eigenvalues and eigenfunctions.
  Solving real generalised eigenvalue problem by standard LAPACK (fast)

  Obtaining occupation numbers and chemical potential using ELSI.
  | Chemical potential (Fermi level):    -4.43308338eV
  Highest occupied state (VBM) at     -6.10620496 eV
  | Occupation number:      2.00000000

  Lowest unoccupied state (CBM) at    -1.09938300 eV
  | Occupation number:      0.00000000

  Overall HOMO-LUMO gap:      5.00682195 eV.

  Total energy components:
  | Sum of eigenvalues            :         -89.63406338 Ha       -2439.06696286 eV
  | XC energy correction          :         -24.37217825 Ha        -663.20071358 eV
  | XC potential correction       :          31.30970326 Ha         851.98037395 eV
  | Free-atom electrostatic energy:         -68.02763710 Ha       -1851.12618986 eV
  | Hartree energy correction     :          -6.32961212 Ha        -172.23750918 eV
  | vdW energy correction         :           0.00000000 Ha           0.00000000 eV
  | Entropy correction            :           0.00000000 Ha           0.00000000 eV
  | ---------------------------
  | Total energy                  :        -157.05378760 Ha       -4273.65100153 eV
  | Total energy, T -> 0          :        -157.05378760 Ha       -4273.65100153 eV  <-- do not rely on this value for anything but (periodic) metals
  | Electronic free energy        :        -157.05378760 Ha       -4273.65100153 eV

  Derived energy quantities:
  | Kinetic energy                :         156.35505166 Ha        4254.63742920 eV
  | Electrostatic energy          :        -289.03666100 Ha       -7865.08771715 eV
  | Energy correction for multipole
  | error in Hartree potential    :           0.03389424 Ha           0.92230932 eV
  | Sum of eigenvalues per atom                           :        -203.25558024 eV
  | Total energy (T->0) per atom                          :        -356.13758346 eV  <-- do not rely on this value for anything but (periodic) metals
  | Electronic free energy per atom                       :        -356.13758346 eV

  Self-consistency convergence accuracy:
  | Change of charge density      :  0.1267E+00
  | Change of sum of eigenvalues  :  0.2526E+02 eV
  | Change of total energy        :  0.2928E+00 eV

  End self-consistency iteration #     4       :  max(cpu_time)    wall_clock(cpu1)
  | Time for this iteration                    :        0.540 s           0.542 s
  | Charge density update                      :        0.172 s           0.172 s
  | Density mixing                             :        0.008 s           0.006 s
  | Hartree multipole update                   :        0.012 s           0.010 s
  | Hartree multipole summation                :        0.176 s           0.178 s
  | Integration                                :        0.172 s           0.172 s
  | Solution of K.-S. eqns.                    :        0.004 s           0.003 s
  | Total energy evaluation                    :        0.000 s           0.001 s

  Partial memory accounting:
  | Current value for overall tracked memory usage on task 0  :           0.180 MB
  | Peak value for overall tracked memory usage on task 0     :           0.730 MB after allocating gradient_basis_wave
  | Largest tracked array allocation on task 0 so far         :           0.412 MB  when allocating gradient_basis_wave
  Note:  These values currently only include a subset of arrays which are explicitly tracked.
  The "true" memory usage will be greater.
------------------------------------------------------------

------------------------------------------------------------
          Begin self-consistency iteration #    5

  Date     :  20180215, Time     :  214301.804
------------------------------------------------------------
  Evaluating new KS density.
  Integration grid: deviation in total charge (<rho> - N_e) =   1.421085E-14
  Pulay mixing of updated and previous charge densities.

  Evaluating partitioned Hartree potential by multipole expansion.
  | Analytical far-field extrapolation by fixed multipoles:
  | Hartree multipole sum: apparent total charge =  -0.574501E-03
  Summing up the Hartree potential.
  Time summed over all CPUs for potential: real work        1.299 s, elapsed        1.360 s
  | RMS charge density error from multipole expansion :   0.224217E-01

  Integrating Hamiltonian matrix: batch-based integration.
  Time summed over all CPUs for integration: real work        1.305 s, elapsed        1.396 s

  Updating Kohn-Sham eigenvalues, eigenvectors, occupation numbers, and Fermi level.
  Solving generalized eigenproblem
  Updating Kohn-Sham eigenvalues and eigenfunctions.
  Solving real generalised eigenvalue problem by standard LAPACK (fast)

  Obtaining occupation numbers and chemical potential using ELSI.
  | Chemical potential (Fermi level):    -4.25510368eV
  Highest occupied state (VBM) at     -5.86627043 eV
  | Occupation number:      2.00000000

  Lowest unoccupied state (CBM) at    -0.87281386 eV
  | Occupation number:      0.00000000

  Overall HOMO-LUMO gap:      4.99345657 eV.

  Total energy components:
  | Sum of eigenvalues            :         -89.40295764 Ha       -2432.77825569 eV
  | XC energy correction          :         -24.39153450 Ha        -663.72742382 eV
  | XC potential correction       :          31.33490661 Ha         852.66619207 eV
  | Free-atom electrostatic energy:         -68.02763710 Ha       -1851.12618986 eV
  | Hartree energy correction     :          -6.56555571 Ha        -178.65786078 eV
  | vdW energy correction         :           0.00000000 Ha           0.00000000 eV
  | Entropy correction            :           0.00000000 Ha           0.00000000 eV
  | ---------------------------
  | Total energy                  :        -157.05277834 Ha       -4273.62353808 eV
  | Total energy, T -> 0          :        -157.05277834 Ha       -4273.62353808 eV  <-- do not rely on this value for anything but (periodic) metals
  | Electronic free energy        :        -157.05277834 Ha       -4273.62353808 eV

  Derived energy quantities:
  | Kinetic energy                :         156.33376359 Ha        4254.05815135 eV
  | Electrostatic energy          :        -288.99500742 Ha       -7863.95426561 eV
  | Energy correction for multipole
  | error in Hartree potential    :           0.03329106 Ha           0.90589578 eV
  | Sum of eigenvalues per atom                           :        -202.73152131 eV
  | Total energy (T->0) per atom                          :        -356.13529484 eV  <-- do not rely on this value for anything but (periodic) metals
  | Electronic free energy per atom                       :        -356.13529484 eV

  Self-consistency convergence accuracy:
  | Change of charge density      :  0.3026E-01
  | Change of sum of eigenvalues  :  0.6289E+01 eV
  | Change of total energy        :  0.2746E-01 eV

  End self-consistency iteration #     5       :  max(cpu_time)    wall_clock(cpu1)
  | Time for this iteration                    :        0.552 s           0.550 s
  | Charge density update                      :        0.168 s           0.167 s
  | Density mixing                             :        0.008 s           0.007 s
  | Hartree multipole update                   :        0.012 s           0.012 s
  | Hartree multipole summation                :        0.180 s           0.178 s
  | Integration                                :        0.184 s           0.182 s
  | Solution of K.-S. eqns.                    :        0.004 s           0.002 s
  | Total energy evaluation                    :        0.000 s           0.001 s

  Partial memory accounting:
  | Current value for overall tracked memory usage on task 0  :           0.180 MB
  | Peak value for overall tracked memory usage on task 0     :           0.730 MB after allocating gradient_basis_wave
  | Largest tracked array allocation on task 0 so far         :           0.412 MB  when allocating gradient_basis_wave
  Note:  These values currently only include a subset of arrays which are explicitly tracked.
  The "true" memory usage will be greater.
------------------------------------------------------------

------------------------------------------------------------
          Begin self-consistency iteration #    6

  Date     :  20180215, Time     :  214302.355
------------------------------------------------------------
  Evaluating new KS density.
  Integration grid: deviation in total charge (<rho> - N_e) =   1.421085E-14
  Pulay mixing of updated and previous charge densities.

  Evaluating partitioned Hartree potential by multipole expansion.
  | Analytical far-field extrapolation by fixed multipoles:
  | Hartree multipole sum: apparent total charge =  -0.594274E-03
  Summing up the Hartree potential.
  Time summed over all CPUs for potential: real work        1.282 s, elapsed        1.330 s
  | RMS charge density error from multipole expansion :   0.227385E-01

  Integrating Hamiltonian matrix: batch-based integration.
  Time summed over all CPUs for integration: real work        1.330 s, elapsed        1.540 s

  Updating Kohn-Sham eigenvalues, eigenvectors, occupation numbers, and Fermi level.
  Solving generalized eigenproblem
  Updating Kohn-Sham eigenvalues and eigenfunctions.
  Solving real generalised eigenvalue problem by standard LAPACK (fast)

  Obtaining occupation numbers and chemical potential using ELSI.
  | Chemical potential (Fermi level):    -4.16477585eV
  Highest occupied state (VBM) at     -5.77123663 eV
  | Occupation number:      2.00000000

  Lowest unoccupied state (CBM) at    -0.78275872 eV
  | Occupation number:      0.00000000

  Overall HOMO-LUMO gap:      4.98847791 eV.

  Total energy components:
  | Sum of eigenvalues            :         -89.29536327 Ha       -2429.85046413 eV
  | XC energy correction          :         -24.40299989 Ha        -664.03941285 eV
  | XC potential correction       :          31.34979009 Ha         853.07119202 eV
  | Free-atom electrostatic energy:         -68.02763710 Ha       -1851.12618986 eV
  | Hartree energy correction     :          -6.67632068 Ha        -181.67192910 eV
  | vdW energy correction         :           0.00000000 Ha           0.00000000 eV
  | Entropy correction            :           0.00000000 Ha           0.00000000 eV
  | ---------------------------
  | Total energy                  :        -157.05253086 Ha       -4273.61680392 eV
  | Total energy, T -> 0          :        -157.05253086 Ha       -4273.61680392 eV  <-- do not rely on this value for anything but (periodic) metals
  | Electronic free energy        :        -157.05253086 Ha       -4273.61680392 eV

  Derived energy quantities:
  | Kinetic energy                :         156.29010834 Ha        4252.87023155 eV
  | Electrostatic energy          :        -288.93963931 Ha       -7862.44762262 eV
  | Energy correction for multipole
  | error in Hartree potential    :           0.03252117 Ha           0.88494613 eV
  | Sum of eigenvalues per atom                           :        -202.48753868 eV
  | Total energy (T->0) per atom                          :        -356.13473366 eV  <-- do not rely on this value for anything but (periodic) metals
  | Electronic free energy per atom                       :        -356.13473366 eV

  Self-consistency convergence accuracy:
  | Change of charge density      :  0.1592E-01
  | Change of sum of eigenvalues  :  0.2928E+01 eV
  | Change of total energy        :  0.6734E-02 eV

  End self-consistency iteration #     6       :  max(cpu_time)    wall_clock(cpu1)
  | Time for this iteration                    :        0.576 s           0.576 s
  | Charge density update                      :        0.164 s           0.162 s
  | Density mixing                             :        0.008 s           0.011 s
  | Hartree multipole update                   :        0.012 s           0.010 s
  | Hartree multipole summation                :        0.172 s           0.174 s
  | Integration                                :        0.212 s           0.214 s
  | Solution of K.-S. eqns.                    :        0.004 s           0.004 s
  | Total energy evaluation                    :        0.000 s           0.001 s

  Partial memory accounting:
  | Current value for overall tracked memory usage on task 0  :           0.180 MB
  | Peak value for overall tracked memory usage on task 0     :           0.730 MB after allocating gradient_basis_wave
  | Largest tracked array allocation on task 0 so far         :           0.412 MB  when allocating gradient_basis_wave
  Note:  These values currently only include a subset of arrays which are explicitly tracked.
  The "true" memory usage will be greater.
------------------------------------------------------------

------------------------------------------------------------
          Begin self-consistency iteration #    7

  Date     :  20180215, Time     :  214302.932
------------------------------------------------------------
  Evaluating new KS density.
  Integration grid: deviation in total charge (<rho> - N_e) =   0.000000E+00
  Pulay mixing of updated and previous charge densities.

  Evaluating partitioned Hartree potential by multipole expansion.
  | Analytical far-field extrapolation by fixed multipoles:
  | Hartree multipole sum: apparent total charge =  -0.598424E-03
  Summing up the Hartree potential.
  Time summed over all CPUs for potential: real work        1.397 s, elapsed        1.726 s
  | RMS charge density error from multipole expansion :   0.227178E-01

  Integrating Hamiltonian matrix: batch-based integration.
  Time summed over all CPUs for integration: real work        1.334 s, elapsed        1.551 s

  Updating Kohn-Sham eigenvalues, eigenvectors, occupation numbers, and Fermi level.
  Solving generalized eigenproblem
  Updating Kohn-Sham eigenvalues and eigenfunctions.
  Solving real generalised eigenvalue problem by standard LAPACK (fast)

  Obtaining occupation numbers and chemical potential using ELSI.
  | Chemical potential (Fermi level):    -4.14209247eV
  Highest occupied state (VBM) at     -5.73898091 eV
  | Occupation number:      2.00000000

  Lowest unoccupied state (CBM) at    -0.75241837 eV
  | Occupation number:      0.00000000

  Overall HOMO-LUMO gap:      4.98656253 eV.

  Total energy components:
  | Sum of eigenvalues            :         -89.26323355 Ha       -2428.97616976 eV
  | XC energy correction          :         -24.40499346 Ha        -664.09366086 eV
  | XC potential correction       :          31.35244868 Ha         853.14353614 eV
  | Free-atom electrostatic energy:         -68.02763710 Ha       -1851.12618986 eV
  | Hartree energy correction     :          -6.70906813 Ha        -182.56303247 eV
  | vdW energy correction         :           0.00000000 Ha           0.00000000 eV
  | Entropy correction            :           0.00000000 Ha           0.00000000 eV
  | ---------------------------
  | Total energy                  :        -157.05248356 Ha       -4273.61551682 eV
  | Total energy, T -> 0          :        -157.05248356 Ha       -4273.61551682 eV  <-- do not rely on this value for anything but (periodic) metals
  | Electronic free energy        :        -157.05248356 Ha       -4273.61551682 eV

  Derived energy quantities:
  | Kinetic energy                :         156.28858190 Ha        4252.82869506 eV
  | Electrostatic energy          :        -288.93607200 Ha       -7862.35055102 eV
  | Energy correction for multipole
  | error in Hartree potential    :           0.03221016 Ha           0.87648302 eV
  | Sum of eigenvalues per atom                           :        -202.41468081 eV
  | Total energy (T->0) per atom                          :        -356.13462640 eV  <-- do not rely on this value for anything but (periodic) metals
  | Electronic free energy per atom                       :        -356.13462640 eV

  Self-consistency convergence accuracy:
  | Change of charge density      :  0.6516E-02
  | Change of sum of eigenvalues  :  0.8743E+00 eV
  | Change of total energy        :  0.1287E-02 eV

  End self-consistency iteration #     7       :  max(cpu_time)    wall_clock(cpu1)
  | Time for this iteration                    :        0.668 s           0.667 s
  | Charge density update                      :        0.204 s           0.204 s
  | Density mixing                             :        0.016 s           0.015 s
  | Hartree multipole update                   :        0.016 s           0.014 s
  | Hartree multipole summation                :        0.224 s           0.226 s
  | Integration                                :        0.204 s           0.204 s
  | Solution of K.-S. eqns.                    :        0.004 s           0.002 s
  | Total energy evaluation                    :        0.000 s           0.000 s

  Partial memory accounting:
  | Current value for overall tracked memory usage on task 0  :           0.180 MB
  | Peak value for overall tracked memory usage on task 0     :           0.730 MB after allocating gradient_basis_wave
  | Largest tracked array allocation on task 0 so far         :           0.412 MB  when allocating gradient_basis_wave
  Note:  These values currently only include a subset of arrays which are explicitly tracked.
  The "true" memory usage will be greater.
------------------------------------------------------------

------------------------------------------------------------
          Begin self-consistency iteration #    8

  Date     :  20180215, Time     :  214303.600
------------------------------------------------------------
  Evaluating new KS density.
  Integration grid: deviation in total charge (<rho> - N_e) =   2.842171E-14
  Pulay mixing of updated and previous charge densities.

  Evaluating partitioned Hartree potential by multipole expansion.
  | Analytical far-field extrapolation by fixed multipoles:
  | Hartree multipole sum: apparent total charge =  -0.606944E-03
  Summing up the Hartree potential.
  Time summed over all CPUs for potential: real work        1.429 s, elapsed        1.708 s
  | RMS charge density error from multipole expansion :   0.227595E-01

  Integrating Hamiltonian matrix: batch-based integration.
  Time summed over all CPUs for integration: real work        1.332 s, elapsed        1.524 s

  Updating Kohn-Sham eigenvalues, eigenvectors, occupation numbers, and Fermi level.
  Solving generalized eigenproblem
  Updating Kohn-Sham eigenvalues and eigenfunctions.
  Solving real generalised eigenvalue problem by standard LAPACK (fast)

  Obtaining occupation numbers and chemical potential using ELSI.
  | Chemical potential (Fermi level):    -4.09348720eV
  Highest occupied state (VBM) at     -5.67790037 eV
  | Occupation number:      2.00000000

  Lowest unoccupied state (CBM) at    -0.69670920 eV
  | Occupation number:      0.00000000

  Overall HOMO-LUMO gap:      4.98119117 eV.

  Total energy components:
  | Sum of eigenvalues            :         -89.19830394 Ha       -2427.20934522 eV
  | XC energy correction          :         -24.41130007 Ha        -664.26527236 eV
  | XC potential correction       :          31.36069962 Ha         853.36805549 eV
  | Free-atom electrostatic energy:         -68.02763710 Ha       -1851.12618986 eV
  | Hartree energy correction     :          -6.77590455 Ha        -184.38174407 eV
  | vdW energy correction         :           0.00000000 Ha           0.00000000 eV
  | Entropy correction            :           0.00000000 Ha           0.00000000 eV
  | ---------------------------
  | Total energy                  :        -157.05244605 Ha       -4273.61449602 eV
  | Total energy, T -> 0          :        -157.05244605 Ha       -4273.61449602 eV  <-- do not rely on this value for anything but (periodic) metals
  | Electronic free energy        :        -157.05244605 Ha       -4273.61449602 eV

  Derived energy quantities:
  | Kinetic energy                :         156.29166777 Ha        4252.91266573 eV
  | Electrostatic energy          :        -288.93281374 Ha       -7862.26188940 eV
  | Energy correction for multipole
  | error in Hartree potential    :           0.03180943 Ha           0.86557854 eV
  | Sum of eigenvalues per atom                           :        -202.26744544 eV
  | Total energy (T->0) per atom                          :        -356.13454134 eV  <-- do not rely on this value for anything but (periodic) metals
  | Electronic free energy per atom                       :        -356.13454134 eV

  Self-consistency convergence accuracy:
  | Change of charge density      :  0.4696E-02
  | Change of sum of eigenvalues  :  0.1767E+01 eV
  | Change of total energy        :  0.1021E-02 eV

  End self-consistency iteration #     8       :  max(cpu_time)    wall_clock(cpu1)
  | Time for this iteration                    :        0.744 s           0.778 s
  | Charge density update                      :        0.220 s           0.234 s
  | Density mixing                             :        0.020 s           0.055 s
  | Hartree multipole update                   :        0.060 s           0.062 s
  | Hartree multipole summation                :        0.224 s           0.225 s
  | Integration                                :        0.200 s           0.199 s
  | Solution of K.-S. eqns.                    :        0.004 s           0.002 s
  | Total energy evaluation                    :        0.004 s           0.001 s

  Partial memory accounting:
  | Current value for overall tracked memory usage on task 0  :           0.180 MB
  | Peak value for overall tracked memory usage on task 0     :           0.730 MB after allocating gradient_basis_wave
  | Largest tracked array allocation on task 0 so far         :           0.412 MB  when allocating gradient_basis_wave
  Note:  These values currently only include a subset of arrays which are explicitly tracked.
  The "true" memory usage will be greater.
------------------------------------------------------------

------------------------------------------------------------
          Begin self-consistency iteration #    9

  Date     :  20180215, Time     :  214304.379
------------------------------------------------------------
  Evaluating new KS density.
  Integration grid: deviation in total charge (<rho> - N_e) =   0.000000E+00
  Pulay mixing of updated and previous charge densities.

  Evaluating partitioned Hartree potential by multipole expansion.
  | Analytical far-field extrapolation by fixed multipoles:
  | Hartree multipole sum: apparent total charge =  -0.608204E-03
  Summing up the Hartree potential.
  Time summed over all CPUs for potential: real work        1.355 s, elapsed        1.544 s
  | RMS charge density error from multipole expansion :   0.227679E-01

  Integrating Hamiltonian matrix: batch-based integration.
  Time summed over all CPUs for integration: real work        1.365 s, elapsed        1.776 s => Consider using load balancing!

  Updating Kohn-Sham eigenvalues, eigenvectors, occupation numbers, and Fermi level.
  Solving generalized eigenproblem
  Updating Kohn-Sham eigenvalues and eigenfunctions.
  Solving real generalised eigenvalue problem by standard LAPACK (fast)

  Obtaining occupation numbers and chemical potential using ELSI.
  | Chemical potential (Fermi level):    -4.08556415eV
  Highest occupied state (VBM) at     -5.66864166 eV
  | Occupation number:      2.00000000

  Lowest unoccupied state (CBM) at    -0.68805218 eV
  | Occupation number:      0.00000000

  Overall HOMO-LUMO gap:      4.98058948 eV.

  Total energy components:
  | Sum of eigenvalues            :         -89.18757851 Ha       -2426.91749147 eV
  | XC energy correction          :         -24.41252821 Ha        -664.29869163 eV
  | XC potential correction       :          31.36229624 Ha         853.41150169 eV
  | Free-atom electrostatic energy:         -68.02763710 Ha       -1851.12618986 eV
  | Hartree energy correction     :          -6.78699891 Ha        -184.68363681 eV
  | vdW energy correction         :           0.00000000 Ha           0.00000000 eV
  | Entropy correction            :           0.00000000 Ha           0.00000000 eV
  | ---------------------------
  | Total energy                  :        -157.05244649 Ha       -4273.61450807 eV
  | Total energy, T -> 0          :        -157.05244649 Ha       -4273.61450807 eV  <-- do not rely on this value for anything but (periodic) metals
  | Electronic free energy        :        -157.05244649 Ha       -4273.61450807 eV

  Derived energy quantities:
  | Kinetic energy                :         156.29440006 Ha        4252.98701521 eV
  | Electrostatic energy          :        -288.93431834 Ha       -7862.30283165 eV
  | Energy correction for multipole
  | error in Hartree potential    :           0.03177368 Ha           0.86460595 eV
  | Sum of eigenvalues per atom                           :        -202.24312429 eV
  | Total energy (T->0) per atom                          :        -356.13454234 eV  <-- do not rely on this value for anything but (periodic) metals
  | Electronic free energy per atom                       :        -356.13454234 eV

  Self-consistency convergence accuracy:
  | Change of charge density      :  0.6624E-03
  | Change of sum of eigenvalues  :  0.2919E+00 eV
  | Change of total energy        : -0.1205E-04 eV

  End self-consistency iteration #     9       :  max(cpu_time)    wall_clock(cpu1)
  | Time for this iteration                    :        0.668 s           0.669 s
  | Charge density update                      :        0.204 s           0.203 s
  | Density mixing                             :        0.016 s           0.016 s
  | Hartree multipole update                   :        0.012 s           0.012 s
  | Hartree multipole summation                :        0.200 s           0.201 s
  | Integration                                :        0.232 s           0.232 s
  | Solution of K.-S. eqns.                    :        0.004 s           0.003 s
  | Total energy evaluation                    :        0.000 s           0.001 s

  Partial memory accounting:
  | Current value for overall tracked memory usage on task 0  :           0.180 MB
  | Peak value for overall tracked memory usage on task 0     :           0.730 MB after allocating gradient_basis_wave
  | Largest tracked array allocation on task 0 so far         :           0.412 MB  when allocating gradient_basis_wave
  Note:  These values currently only include a subset of arrays which are explicitly tracked.
  The "true" memory usage will be greater.
------------------------------------------------------------

------------------------------------------------------------
          Begin self-consistency iteration #   10

  Date     :  20180215, Time     :  214305.049
------------------------------------------------------------
  Evaluating new KS density.
  Integration grid: deviation in total charge (<rho> - N_e) =   1.421085E-14
  Pulay mixing of updated and previous charge densities.

  Evaluating partitioned Hartree potential by multipole expansion.
  | Analytical far-field extrapolation by fixed multipoles:
  | Hartree multipole sum: apparent total charge =  -0.608133E-03
  Summing up the Hartree potential.
  Time summed over all CPUs for potential: real work        1.435 s, elapsed        1.592 s
  | RMS charge density error from multipole expansion :   0.227680E-01

[...]
  |   Hirshfeld dipole moment :      0.08844781
  |   Hirshfeld second moments:      0.10679055      -0.00430275       0.00094902
  |                                 -0.00430275       0.10042068       0.00913519
  |                                  0.00094902       0.00913519       0.09397262
  ----------------------------------------------------------------------
  | Atom     8: H
  |   Hirshfeld charge        :      0.03781599
  |   Free atom volume        :      9.95071624
  |   Hirshfeld volume        :      6.44335741
  |   Hirshfeld dipole vector :     -0.04156994       0.07865958       0.00161488
  |   Hirshfeld dipole moment :      0.08898313
  |   Hirshfeld second moments:      0.09777014       0.00591348      -0.00040059
  |                                  0.00591348       0.08972452      -0.00012409
  |                                 -0.00040059      -0.00012409       0.09948081
  ----------------------------------------------------------------------
  | Atom     9: H
  |   Hirshfeld charge        :      0.03781600
  |   Free atom volume        :      9.95071624
  |   Hirshfeld volume        :      6.44335703
  |   Hirshfeld dipole vector :      0.04156994      -0.07865958       0.00161501
  |   Hirshfeld dipole moment :      0.08898313
  |   Hirshfeld second moments:      0.09777015       0.00591349       0.00040059
  |                                  0.00591349       0.08972453       0.00012411
  |                                  0.00040059       0.00012411       0.09948083
  ----------------------------------------------------------------------
  | Atom    10: H
  |   Hirshfeld charge        :      0.04183435
  |   Free atom volume        :      9.95071624
  |   Hirshfeld volume        :      6.26786154
  |   Hirshfeld dipole vector :     -0.02564881       0.05553681      -0.06403674
  |   Hirshfeld dipole moment :      0.08856016
  |   Hirshfeld second moments:      0.10190956      -0.00024919      -0.00523959
  |                                 -0.00024919       0.09615935       0.00923797
  |                                 -0.00523959       0.00923797       0.09777247
  ----------------------------------------------------------------------
  | Atom    11: H
  |   Hirshfeld charge        :      0.04247447
  |   Free atom volume        :      9.95071624
  |   Hirshfeld volume        :      6.18152080
  |   Hirshfeld dipole vector :      0.00981314       0.05110590       0.07151854
  |   Hirshfeld dipole moment :      0.08844780
  |   Hirshfeld second moments:      0.10679054      -0.00430277      -0.00094905
  |                                 -0.00430277       0.10042071      -0.00913519
  |                                 -0.00094905      -0.00913519       0.09397261
  ----------------------------------------------------------------------
  | Atom    12: H
  |   Hirshfeld charge        :      0.04164128
  |   Free atom volume        :      9.95071624
  |   Hirshfeld volume        :      6.07452094
  |   Hirshfeld dipole vector :      0.08210902      -0.02741757      -0.02252024
  |   Hirshfeld dipole moment :      0.08944706
  |   Hirshfeld second moments:      0.08950121       0.00371978       0.00526100
  |                                  0.00371978       0.10904165      -0.00185166
  |                                  0.00526100      -0.00185166       0.10950880
  ----------------------------------------------------------------------


  Total energy components:
  | Sum of eigenvalues            :         -89.18814208 Ha       -2426.93282685 eV
  | XC energy correction          :         -24.41253325 Ha        -664.29882877 eV
  | XC potential correction       :          31.36230017 Ha         853.41160871 eV
  | Free-atom electrostatic energy:         -68.02763710 Ha       -1851.12618986 eV
  | Hartree energy correction     :          -6.78643457 Ha        -184.66828052 eV
  | vdW energy correction         :          -0.00214172 Ha          -0.05827907 eV
  | Entropy correction            :           0.00000000 Ha           0.00000000 eV
  | ---------------------------
  | Total energy                  :        -157.05458854 Ha       -4273.67279636 eV
  | Total energy, T -> 0          :        -157.05458854 Ha       -4273.67279636 eV  <-- do not rely on this value for anything but (periodic) metals
  | Electronic free energy        :        -157.05458854 Ha       -4273.67279636 eV

  Derived energy quantities:
  | Kinetic energy                :         156.29453869 Ha        4252.99078760 eV
  | Electrostatic energy          :        -288.93445227 Ha       -7862.30647612 eV
  | Energy correction for multipole
  | error in Hartree potential    :           0.03177914 Ha           0.86475434 eV
  | Sum of eigenvalues per atom                           :        -202.24440224 eV
  | Total energy (T->0) per atom                          :        -356.13939970 eV  <-- do not rely on this value for anything but (periodic) metals
  | Electronic free energy per atom                       :        -356.13939970 eV

  atomic forces [eV/Ang]:
  -----------------------
  atom #    1
   Hellmann-Feynman              :  0.142178E+00  0.508745E-01 -0.699684E-01
   Ionic forces                  :  0.000000E+00  0.000000E+00  0.000000E+00
   Multipole                     : -0.419431E+00 -0.472713E+00 -0.674560E-01
   Pulay + GGA                   :  0.269880E+00  0.411173E+00  0.151911E+00
   Van der Waals                 : -0.171528E-02  0.327642E-02 -0.746227E-03
   ----------------------------------------------------------------
   Total forces(   1)            : -0.908865E-02 -0.738916E-02  0.137405E-01
  atom #    2
   Hellmann-Feynman              :  0.225508E+01  0.479110E+00 -0.363776E+00
   Ionic forces                  :  0.000000E+00  0.000000E+00  0.000000E+00
   Multipole                     : -0.199628E+00 -0.750542E-01  0.130659E-01
   Pulay + GGA                   : -0.205082E+01 -0.397309E+00  0.275457E+00
   Van der Waals                 : -0.483408E-02 -0.469364E-02  0.104981E-02
   ----------------------------------------------------------------
   Total forces(   2)            : -0.200287E-03  0.205363E-02 -0.742030E-01
  atom #    3
   Hellmann-Feynman              : -0.225508E+01 -0.479110E+00 -0.363777E+00
   Ionic forces                  :  0.000000E+00  0.000000E+00  0.000000E+00
   Multipole                     :  0.199628E+00  0.750543E-01  0.130663E-01
   Pulay + GGA                   :  0.205081E+01  0.397308E+00  0.275458E+00
   Van der Waals                 :  0.483412E-02  0.469367E-02  0.104981E-02
   ----------------------------------------------------------------
   Total forces(   3)            :  0.200296E-03 -0.205364E-02 -0.742028E-01
  atom #    4
   Hellmann-Feynman              : -0.142179E+00 -0.508748E-01 -0.699683E-01
   Ionic forces                  :  0.000000E+00  0.000000E+00  0.000000E+00
   Multipole                     :  0.419431E+00  0.472713E+00 -0.674563E-01
   Pulay + GGA                   : -0.269879E+00 -0.411172E+00  0.151911E+00
   Van der Waals                 :  0.171527E-02 -0.327642E-02 -0.746222E-03
   ----------------------------------------------------------------
   Total forces(   4)            :  0.908865E-02  0.738916E-02  0.137405E-01
  atom #    5
   Hellmann-Feynman              :  0.916449E-02 -0.682148E-01  0.526460E-01
   Ionic forces                  :  0.000000E+00  0.000000E+00  0.000000E+00
   Multipole                     : -0.242170E-01 -0.946153E-01 -0.777654E-01
   Pulay + GGA                   : -0.177357E-01  0.876458E-01  0.726421E-01
   Van der Waals                 : -0.583185E-02 -0.184309E-02 -0.282004E-02
   ----------------------------------------------------------------
   Total forces(   5)            : -0.386200E-01 -0.770274E-01  0.447027E-01
  atom #    6
   Hellmann-Feynman              :  0.170862E-01  0.519647E-01  0.433692E-01
   Ionic forces                  :  0.000000E+00  0.000000E+00  0.000000E+00
   Multipole                     : -0.135273E+00 -0.359180E-01 -0.391683E-01
   Pulay + GGA                   :  0.973263E-01 -0.370857E-01  0.229035E-01
   Van der Waals                 :  0.211412E-02 -0.200718E-02 -0.408330E-03
   ----------------------------------------------------------------
   Total forces(   6)            : -0.187468E-01 -0.230461E-01  0.266960E-01
  atom #    7
   Hellmann-Feynman              :  0.345569E-01  0.689371E-01  0.970583E-01
   Ionic forces                  :  0.000000E+00  0.000000E+00  0.000000E+00
   Multipole                     : -0.467101E-01 -0.892067E-01  0.609891E-01
   Pulay + GGA                   :  0.286982E-01  0.762956E-01 -0.851635E-01
   Van der Waals                 :  0.660017E-03  0.866114E-03  0.180847E-03
   ----------------------------------------------------------------
   Total forces(   7)            :  0.172050E-01  0.568921E-01  0.730647E-01
  atom #    8
   Hellmann-Feynman              : -0.352189E-01 -0.599774E-01 -0.977004E-01
   Ionic forces                  :  0.000000E+00  0.000000E+00  0.000000E+00
   Multipole                     : -0.381769E-02  0.164378E+00  0.694149E-02
   Pulay + GGA                   :  0.446296E-01 -0.973530E-01  0.309402E-02
   Van der Waals                 : -0.188719E-02 -0.309198E-02  0.274396E-02
   ----------------------------------------------------------------
   Total forces(   8)            :  0.370585E-02  0.395605E-02 -0.849209E-01
  atom #    9
   Hellmann-Feynman              :  0.352189E-01  0.599774E-01 -0.976995E-01
   Ionic forces                  :  0.000000E+00  0.000000E+00  0.000000E+00
   Multipole                     :  0.381776E-02 -0.164378E+00  0.694160E-02
   Pulay + GGA                   : -0.446296E-01  0.973529E-01  0.309380E-02
   Van der Waals                 :  0.188714E-02  0.309195E-02  0.274395E-02
   ----------------------------------------------------------------
   Total forces(   9)            : -0.370584E-02 -0.395606E-02 -0.849202E-01
  atom #   10
   Hellmann-Feynman              : -0.916506E-02  0.682148E-01  0.526466E-01
   Ionic forces                  :  0.000000E+00  0.000000E+00  0.000000E+00
   Multipole                     :  0.242169E-01  0.946155E-01 -0.777654E-01
   Pulay + GGA                   :  0.177359E-01 -0.876458E-01  0.726419E-01
   Van der Waals                 :  0.583189E-02  0.184310E-02 -0.282005E-02
   ----------------------------------------------------------------
   Total forces(  10)            :  0.386197E-01  0.770275E-01  0.447030E-01
  atom #   11
   Hellmann-Feynman              : -0.345563E-01 -0.689373E-01  0.970584E-01
   Ionic forces                  :  0.000000E+00  0.000000E+00  0.000000E+00
   Multipole                     :  0.467101E-01  0.892066E-01  0.609891E-01
   Pulay + GGA                   : -0.286984E-01 -0.762954E-01 -0.851635E-01
   Van der Waals                 : -0.660048E-03 -0.866131E-03  0.180838E-03
   ----------------------------------------------------------------
   Total forces(  11)            : -0.172047E-01 -0.568923E-01  0.730649E-01
  atom #   12
   Hellmann-Feynman              : -0.170861E-01 -0.519646E-01  0.433688E-01
   Ionic forces                  :  0.000000E+00  0.000000E+00  0.000000E+00
   Multipole                     :  0.135273E+00  0.359179E-01 -0.391686E-01
   Pulay + GGA                   : -0.973263E-01  0.370857E-01  0.229036E-01
   Van der Waals                 : -0.211412E-02  0.200718E-02 -0.408338E-03
   ----------------------------------------------------------------
   Total forces(  12)            :  0.187467E-01  0.230462E-01  0.266955E-01

  Timings for VdW correction (Tkatchenko-Scheffler 2009 or later):
  | CPU time:        0.052 s, Wall clock time:        0.052 s.
  Removing unitary transformations (pure translations, rotations) from forces on atoms.
  Atomic forces before filtering:
  | Net force on center of mass :   0.775348E-08 -0.168608E-07 -0.183915E-02 eV/A
  | Net torque on center of mass:  -0.863387E-07  0.133920E-06 -0.618203E-02 eV
  Atomic forces after filtering:
  | Net force on center of mass :   0.278760E-17 -0.836279E-17  0.223008E-16 eV/A
  | Net torque on center of mass:   0.737566E-17 -0.118011E-16  0.118011E-16 eV

  Energy and forces in a compact form:
  | Total energy uncorrected      :         -0.427367279635567E+04 eV
  | Total energy corrected        :         -0.427367279635567E+04 eV  <-- do not rely on this value for anything but (periodic) metals
  | Electronic free energy        :         -0.427367279635567E+04 eV
  Total atomic forces (unitary forces cleaned) [eV/Ang]:
  |   1         -0.894759619833343E-02         -0.758878870423252E-02          0.138937126394263E-01
  |   2         -0.205425593407132E-03          0.197037318597574E-02         -0.740497633202828E-01
  |   3          0.205432180744335E-03         -0.197038247679393E-02         -0.740495692366108E-01
  |   4          0.894759366091044E-02          0.758878941708411E-02          0.138937456422352E-01
  |   5         -0.383961003568208E-01         -0.771828800376993E-01          0.448559808852473E-01
  |   6         -0.186476022461105E-01         -0.233711217414346E-01          0.268492360438240E-01
  |   7          0.174216732337872E-01          0.566801064746554E-01          0.732179837671862E-01
  |   8          0.357683250462178E-02          0.381544414511946E-02         -0.847676298375261E-01
  |   9         -0.357681837308187E-02         -0.381545225448834E-02         -0.847669264762527E-01
  |  10          0.383957778532711E-01          0.771829939222703E-01          0.448562791146515E-01
  |  11         -0.174213299544956E-01         -0.566803022600282E-01          0.732181314497125E-01
  |  12          0.186475632889146E-01          0.233712203295717E-01          0.268488193283893E-01

  ------------------------------------ 
  Start decomposition of the XC Energy 
  ------------------------------------ 
  X and C from original XC functional choice 
  Hartree-Fock Energy :          0.000000000 Ha              0.000000000 eV
  X Energy            :        -23.396845970 Ha           -636.660571770 eV
  C Energy            :         -1.015687276 Ha            -27.638256998 eV
  Total XC Energy     :        -24.412533246 Ha           -664.298828767 eV
  ------------------------------------ 
  LDA X and C from self-consistent density 
  X Energy LDA        :        -21.149022267 Ha           -575.494176698 eV
  C Energy LDA        :         -1.974393628 Ha            -53.725984169 eV
  ------------------------------------ 
  End decomposition of the XC Energy 
  ------------------------------------ 

------------------------------------------------------------

------------------------------------------------------------------------------
  Final output of selected total energy values:

  The following output summarizes some interesting total energy values
  at the end of a run (AFTER all relaxation, molecular dynamics, etc.).

  | Total energy of the DFT / Hartree-Fock s.c.f. calculation      :          -4273.672796356 eV
  | Final zero-broadening corrected energy (caution - metals only) :          -4273.672796356 eV
  | For reference only, the value of 1 Hartree used in FHI-aims is :             27.211384500 eV

  Before relying on these values, please be sure to understand exactly which
  total energy value is referred to by a given number. Different objects may
  all carry the same name 'total energy'. Definitions:

  Total energy of the DFT / Hartree-Fock s.c.f. calculation:
  | Note that this energy does not include ANY quantities calculated after the
  | s.c.f. cycle, in particular not ANY RPA, MP2, etc. many-body perturbation terms.

  Final zero-broadening corrected energy:
  | For metallic systems only, a broadening of the occupation numbers at the Fermi
  | level can be extrapolated back to zero broadening by an electron-gas inspired
  | formula. For all systems that are not real metals, this value can be
  | meaningless and should be avoided.

------------------------------------------------------------------------------
  Methods described in the following list of references were used in this FHI-aims run.
  If you publish the results, please make sure to cite these reference if they apply.
  FHI-aims is an academic code, and for our developers (often, Ph.D. students
  and postdocs), scientific credit in the community is essential.
  Thank you for helping us!

  For any use of FHI-aims, please cite:

    Volker Blum, Ralf Gehrke, Felix Hanke, Paula Havu, Ville Havu,
    Xinguo Ren, Karsten Reuter, and Matthias Scheffler
    'Ab initio molecular simulations with numeric atom-centered orbitals'
    Computer Physics Communications 180, 2175-2196 (2009)
    http://dx.doi.org/10.1016/j.cpc.2009.06.022


  For the real-space grid partitioning and parallelization used in this calculation, please cite:

    Ville Havu, Volker Blum, Paula Havu, and Matthias Scheffler,
    'Efficient O(N) integration for all-electron electronic structure calculation'
    'using numerically tabulated basis functions'
    Journal of Computational Physics 228, 8367-8379 (2009).
    http://dx.doi.org/10.1016/j.jcp.2009.08.008

  Of course, there are many other important community references, e.g., those cited in the
  above references. Our list is limited to references that describe implementations in the
  FHI-aims code. The reason is purely practical (length of this list) - please credit others as well.

------------------------------------------------------------
          Leaving FHI-aims.
          Date     :  20180215, Time     :  214310.161

          Computational steps:
          | Number of self-consistency cycles          :           15
          | Number of SCF (re)initializations          :            1

          Detailed time accounting                     :  max(cpu_time)    wall_clock(cpu1)
          | Total time                                 :       11.408 s          12.030 s
          | Preparation time                           :        0.124 s           0.145 s
          | Boundary condition initalization           :        0.000 s           0.000 s
          | Grid partitioning                          :        0.100 s           0.100 s
          | Preloading free-atom quantities on grid    :        0.004 s           0.007 s
          | Free-atom superposition energy             :        0.028 s           0.027 s
          | Total time for integrations                :        3.520 s           3.523 s
          | Total time for solution of K.-S. equations :        0.072 s           0.071 s
          | Total time for density & force components  :        3.580 s           3.602 s
          | Total time for mixing                      :        0.204 s           0.250 s
          | Total time for Hartree multipole update    :        0.344 s           0.337 s
          | Total time for Hartree multipole sum       :        3.672 s           3.693 s
          | Total time for total energy evaluation     :        0.012 s           0.013 s
          | Total time for vdW correction              :        0.052 s           0.052 s

          Partial memory accounting:
          | Residual value for overall tracked memory usage across tasks :           0.000 MB (should be 0.000 MB)
          | Peak values for overall tracked memory usage (after allocating hessian_basis_wave):
          |   Minimum:        1.692 MB (on task 1)
          |   Maximum:        1.692 MB (on task 1)
          |   Average:        1.692 MB
          | Largest tracked array allocation (hessian_basis_wave):
          |   Minimum:        0.825 MB (on task 1)
          |   Maximum:        0.825 MB (on task 1)
          |   Average:        0.825 MB
          Note:  These values currently only include a subset of arrays which are explicitly tracked.
          The "true" memory usage will be greater.

          Have a nice day.
------------------------------------------------------------
