  MPI-parallelism will be employed.
------------------------------------------------------------
          Invoking FHI-aims ...

          When using FHI-aims, please cite the following reference:

          Volker Blum, Ralf Gehrke, Felix Hanke, Paula Havu,
          Ville Havu, Xinguo Ren, Karsten Reuter, and Matthias Scheffler,
          'Ab Initio Molecular Simulations with Numeric Atom-Centered Orbitals',
          Computer Physics Communications 180, 2175-2196 (2009)

          For any questions about FHI-aims, please visit the aimsclub website
          with its forums and wiki. Contributions to both the forums and the
          wiki are warmly encouraged - they are for you, and everyone is welcome there.

------------------------------------------------------------



  Date     :  20190817, Time     :  154036.517
  Time zero on CPU 1             :   0.330630000000000E-01  s.
  Internal wall clock time zero  :           335288436.517  s.

  FHI-aims created a unique identifier for this run for later identification
  aims_uuid : 128D7818-A806-483E-A755-6F411BAB273F

  Build configuration of the current instance of FHI-aims
  -------------------------------------------------------
  FHI-aims version      : 190813
  Commit number         : 3da7baeb3
  CMake host system     : Linux-4.4.180-94.97-default
  CMake version         : 3.5.2
  Fortran compiler      : /mpcdf/soft/SLE_12_SP3/packages/x86_64/intel_parallel_studio/2018.4/compilers_and_libraries_2018.5.274/linux/mpi/bin64/mpiifort (Intel) version 18.0.5.20180823
  Fortran compiler flags: -O3 -ip -fp-model precise
  C compiler            : /mpcdf/soft/SLE_12_SP3/packages/skylake/intel/18.0.5/bin/icc (Intel) version 18.0.5.20180823
  C compiler flags      : -O3 -ip -fp-model precise
  Architecture          :
  Using MPI
  Using Scalapack
  Using C files
  Using SPGlib
  Using i-PI
  Linking against: /mpcdf/soft/SLE_12_SP3/packages/x86_64/anaconda/3.5.1.0/lib/libmkl_intel_lp64.so
                   /mpcdf/soft/SLE_12_SP3/packages/x86_64/anaconda/3.5.1.0/lib/libmkl_sequential.so
                   /mpcdf/soft/SLE_12_SP3/packages/x86_64/anaconda/3.5.1.0/lib/libmkl_core.so
                   /mpcdf/soft/SLE_12_SP3/packages/x86_64/anaconda/3.5.1.0/lib/libmkl_blacs_intelmpi_lp64.so
                   /mpcdf/soft/SLE_12_SP3/packages/x86_64/anaconda/3.5.1.0/lib/libmkl_scalapack_lp64.so

  Using        8 parallel tasks.
  Task        0 on host co1631 reporting.
  Task        1 on host co1631 reporting.
  Task        2 on host co1631 reporting.
  Task        3 on host co1631 reporting.
  Task        4 on host co1631 reporting.
  Task        5 on host co1631 reporting.
  Task        6 on host co1631 reporting.
  Task        7 on host co1631 reporting.

  Performing system and environment tests:
  | Environment variable OMP_NUM_THREADS correctly set to 1.
  | Maximum stacksize for task 0: unlimited
  | Maximum stacksize for task 1: unlimited
  | Maximum stacksize for task 2: unlimited
  | Maximum stacksize for task 3: unlimited
  | Maximum stacksize for task 4: unlimited
  | Maximum stacksize for task 5: unlimited
  | Maximum stacksize for task 6: unlimited
  | Maximum stacksize for task 7: unlimited
  | Current stacksize for task 0: unlimited
  | Current stacksize for task 1: unlimited
  | Current stacksize for task 2: unlimited
  | Current stacksize for task 3: unlimited
  | Current stacksize for task 4: unlimited
  | Current stacksize for task 5: unlimited
  | Current stacksize for task 6: unlimited
  | Current stacksize for task 7: unlimited
  | Checking for scalapack...
  | Testing pdtran()...
  | All pdtran() tests passed.

  Obtaining array dimensions for all initial allocations:
  
  -----------------------------------------------------------------------
  Parsing control.in (first pass over file, find array dimensions only).
  The contents of control.in will be repeated verbatim below
  unless switched off by setting 'verbatim_writeout .false.' .
  in the first line of control.in .
  -----------------------------------------------------------------------
  
  #
  #  Physical model
  #
    xc                 pbe
    spin               none
    default_initial_moment 0.
    relativistic       none
    charge             0.
  #
  #  SCF convergence
  #
    occupation_type    gaussian 0.01
    mixer              pulay
      n_max_pulay        10
      charge_mix_param   0.5
    sc_accuracy_rho    1E-3
    sc_accuracy_eev    1E-3
    sc_accuracy_etot   1E-3
    sc_iter_limit      100
  #
  # Trigger TDDFT Calculation
  #
    neutral_excitation   tddft
    tddft_kernel         pw-lda
    excited_states       20
    excited_mode         singlet
    empty_states         1000
  
  ################################################################################
  #
  #  FHI-aims code project
  #  VB, Fritz-Haber Institut, 2007
  #
  #  Suggested "safe" defaults for C atom (to be pasted into control.in file)
  #
  ################################################################################
    species        C
  #     global species definitions
      nucleus             6
      mass                12.0107
  #
      l_hartree           8
  #
      cut_pot             4.0  2.0  1.0
      basis_dep_cutoff    0.d0
  #
      radial_base         34 7.0
      radial_multiplier   6
      angular_grids specified
        division   0.2187   50
        division   0.4416  110
        division   0.6335  194
        division   0.7727  302
        division   0.8772  434
        division   0.9334  590
        division   0.9924  770
        division   1.0230  974
        division   1.5020 1202
        outer_grid  1202
  
  ################################################################################
  #
  #  Definition of "minimal" basis
  #
  ################################################################################
  #     valence basis states
      valence      2  s   2.
      valence      2  p   2.
  #     ion occupancy
      ion_occ      2  s   1.
      ion_occ      2  p   1.
  ################################################################################
  #
  #  Suggested additional basis functions. For production calculations,
  #  uncomment them one after another (the most important basis functions are
  #  listed first).
  #
  #  Constructed for dimers: 1.0 A, 1.25 A, 1.5 A, 2.0 A, 3.0 A
  #
  ################################################################################
  #  "First tier" - improvements: -1214.57 meV to -155.61 meV
       hydro 2 p 1.7
       hydro 3 d 6
       hydro 2 s 4.9
  #  "Second tier" - improvements: -67.75 meV to -5.23 meV
       hydro 4 f 9.8
       hydro 3 p 5.2
       hydro 3 s 4.3
       hydro 5 g 14.4
       hydro 3 d 6.2
  #  "Third tier" - improvements: -2.43 meV to -0.60 meV
  #     hydro 2 p 5.6
  #     hydro 2 s 1.4
  #     hydro 3 d 4.9
  #     hydro 4 f 11.2
  #  "Fourth tier" - improvements: -0.39 meV to -0.18 meV
  #     hydro 2 p 2.1
  #     hydro 5 g 16.4
  #     hydro 4 d 13.2
  #     hydro 3 s 13.6
  #     hydro 4 f 17.6
  #  Further basis functions - improvements: -0.08 meV and below
  #     hydro 3 s 2
  #     hydro 3 p 6
  #     hydro 4 d 20
  
  ###############################################################################
  #
  # Gaussian augmentation functions.
  # Obtained by diff cc-pV5Z aug-cc-pV5Z
  #
  ###############################################################################
  
      gaussian 0 1 0.0394000
      gaussian 1 1 0.0272000
  
  ################################################################################
  #
  #  FHI-aims code project
  #  VB, Fritz-Haber Institut, 2007
  #
  #  Suggested "safe" defaults for O atom (to be pasted into control.in file)
  #
  ################################################################################
    species        O
  #     global species definitions
      nucleus             8
      mass                15.9994
  #
      l_hartree           8
  #
      cut_pot             4.0  2.0  1.0
      basis_dep_cutoff    0.d0
  #
      radial_base         36 7.0
      radial_multiplier   6
       angular_grids specified
        division   0.1817   50
        division   0.3417  110
        division   0.4949  194
        division   0.6251  302
        division   0.8014  434
        division   0.8507  590
        division   0.8762  770
        division   0.9023  974
        division   1.2339 1202
        outer_grid 1202
  
  ################################################################################
  #
  #  Definition of "minimal" basis
  #
  ################################################################################
  #     valence basis states
      valence      2  s   2.
      valence      2  p   4.
  #     ion occupancy
      ion_occ      2  s   1.
      ion_occ      2  p   3.
  ################################################################################
  #
  #  Suggested additional basis functions. For production calculations,
  #  uncomment them one after another (the most important basis functions are
  #  listed first).
  #
  #  Constructed for dimers: 1.0 A, 1.208 A, 1.5 A, 2.0 A, 3.0 A
  #
  ################################################################################
  #  "First tier" - improvements: -699.05 meV to -159.38 meV
       hydro 2 p 1.8
       hydro 3 d 7.6
       hydro 3 s 6.4
  #  "Second tier" - improvements: -49.91 meV to -5.39 meV
       hydro 4 f 11.6
       hydro 3 p 6.2
       hydro 3 d 5.6
       hydro 5 g 17.6
       hydro 1 s 0.75
  #  "Third tier" - improvements: -2.83 meV to -0.50 meV
  #     ionic 2 p auto
  #     hydro 4 f 10.8
  #     hydro 4 d 4.7
  #     hydro 2 s 6.8
  #  "Fourth tier" - improvements: -0.40 meV to -0.12 meV
  #     hydro 3 p 5
  #     hydro 3 s 3.3
  #     hydro 5 g 15.6
  #     hydro 4 f 17.6
  #     hydro 4 d 14
  # Further basis functions - -0.08 meV and below
  #     hydro 3 s 2.1
  #     hydro 4 d 11.6
  #     hydro 3 p 16
  #     hydro 2 s 17.2
  
  ###############################################################################
  #
  # Gaussian augmentation functions.
  # Obtained by diff cc-pV5Z aug-cc-pV5Z
  #
  ###############################################################################
  
      gaussian 0 1 0.0655000
      gaussian 1 1 0.0446000
  
  -----------------------------------------------------------------------
  Completed first pass over input file control.in .
  -----------------------------------------------------------------------
  
  
  -----------------------------------------------------------------------
  Parsing geometry.in (first pass over file, find array dimensions only).
  The contents of geometry.in will be repeated verbatim below
  unless switched off by setting 'verbatim_writeout .false.' .
  in the first line of geometry.in .
  -----------------------------------------------------------------------
  
              atom         0.00000000        0.00000000        0.00000000  C
              atom         1.17041260        0.00000000        0.00000000  O
              atom        -1.17041260        0.00000000        0.00000000  O
  
  -----------------------------------------------------------------------
  Completed first pass over input file geometry.in .
  -----------------------------------------------------------------------
  

  Basic array size parameters:
  | Number of species                 :        2
  | Number of atoms                   :        3
  | Max. basis fn. angular momentum   :        4
  | Max. atomic/ionic basis occupied n:        2
  | Max. number of basis fn. types    :        3
  | Max. radial fns per species/type  :        8
  | Max. logarithmic grid size        :     1301
  | Max. radial integration grid size :      221
  | Max. angular integration grid size:     1202
  | Max. angular grid division number :        8
  | Radial grid for Hartree potential :     1301
  | Number of spin channels           :        1

------------------------------------------------------------
          Reading file control.in.
------------------------------------------------------------
  XC: Using PBE gradient-corrected functionals.
  Spin treatment: No spin polarisation.
  Initial spin moment per atom:   0.0000
  Non-relativistic treatment of kinetic energy.
  Charge =   0.000000E+00: Neutral system requested explicitly.
  Occupation type: Gaussian broadening, width =   0.100000E-01 eV.
  Using pulay charge density mixing.
  Pulay mixing - number of memorized iterations:   10
  Charge density mixing - mixing parameter:     0.5000
  Convergence accuracy of self-consistent charge density:  0.1000E-02
  Convergence accuracy of sum of eigenvalues:  0.1000E-02
  Convergence accuracy of total energy:  0.1000E-02
  Maximum number of s.-c. iterations  :   100
  Calculation of optical excitation energies with TDDFT will be done.
  Kernel of Perdew-Wang parametrisation of Ceperley-Alder LDA will be used for TDDFT calculations.
  The number of excited states printed from TDDFT is   20
  Number of empty states per atom:     1000
 
  Reading configuration options for species C                   .
  | Found nuclear charge :   6.0000
  | Found atomic mass :    12.0107000000000      amu
  | Found l_max for Hartree potential  :   8
  | Found cutoff potl. onset [A], width [A], scale factor :    4.00000    2.00000    1.00000
  | Threshold for basis-dependent cutoff potential is   0.000000E+00
  | Found data for basic radial integration grid :    34 points, outermost radius =    7.000 A
  | Found multiplier for basic radial grid :   6
  | Found angular grid specification: user-specified.
  | Specified grid contains    10 separate shells.
  | Check grid settings after all constraints further below.
  | Found free-atom valence shell :  2 s   2.000
  | Found free-atom valence shell :  2 p   2.000
  | No ionic wave fns used. Skipping ion_occ.
  | No ionic wave fns used. Skipping ion_occ.
  | Found hydrogenic basis function :  2 p   1.700
  | Found hydrogenic basis function :  3 d   6.000
  | Found hydrogenic basis function :  2 s   4.900
  | Found hydrogenic basis function :  4 f   9.800
  | Found hydrogenic basis function :  3 p   5.200
  | Found hydrogenic basis function :  3 s   4.300
  | Found hydrogenic basis function :  5 g  14.400
  | Found hydrogenic basis function :  3 d   6.200
  | Found primitive cartesian Gaussian basis function :  0 0.394000E-01
  |   In terms of angular momentum, this radial function adds: 
  |     1 s-type basis function
  | Found primitive cartesian Gaussian basis function :  1 0.272000E-01
  |   In terms of angular momentum, this radial function adds: 
  |     3 p-type basis functions
  Species C                   : Missing cutoff potential type.
  Defaulting to exp(1/x)/(1-x)^2 type cutoff potential.
 * Species C : Specified number of angular integration points is    50,
 * but required value for l_hartree =   8 is   110. 
  Species C : No 'logarithmic' tag. Using default grid for free atom:
  | Default logarithmic grid data [bohr] : 0.1000E-03 0.1000E+03 0.1012E+01
  Species C : On-site basis accuracy parameter (for Gram-Schmidt orthonormalisation) not specified.
  Using default value basis_acc =  0.1000000E-03.
  Species C                   : Using default innermost maximum threshold i_radial=  2 for radial functions.
  Species C                   : Default cutoff onset for free atom density etc. is infinite
  since the product basis is used (hybrid functionals, Hartree-Fock, GW etc.).
  Species C                   : Basic radial grid will be enhanced according to radial_multiplier =   6, to contain   209 grid points.
 
  Reading configuration options for species O                   .
  | Found nuclear charge :   8.0000
  | Found atomic mass :    15.9994000000000      amu
  | Found l_max for Hartree potential  :   8
  | Found cutoff potl. onset [A], width [A], scale factor :    4.00000    2.00000    1.00000
  | Threshold for basis-dependent cutoff potential is   0.000000E+00
  | Found data for basic radial integration grid :    36 points, outermost radius =    7.000 A
  | Found multiplier for basic radial grid :   6
  | Found angular grid specification: user-specified.
  | Specified grid contains    10 separate shells.
  | Check grid settings after all constraints further below.
  | Found free-atom valence shell :  2 s   2.000
  | Found free-atom valence shell :  2 p   4.000
  | No ionic wave fns used. Skipping ion_occ.
  | No ionic wave fns used. Skipping ion_occ.
  | Found hydrogenic basis function :  2 p   1.800
  | Found hydrogenic basis function :  3 d   7.600
  | Found hydrogenic basis function :  3 s   6.400
  | Found hydrogenic basis function :  4 f  11.600
  | Found hydrogenic basis function :  3 p   6.200
  | Found hydrogenic basis function :  3 d   5.600
  | Found hydrogenic basis function :  5 g  17.600
  | Found hydrogenic basis function :  1 s   0.750
  | Found primitive cartesian Gaussian basis function :  0 0.655000E-01
  |   In terms of angular momentum, this radial function adds: 
  |     1 s-type basis function
  | Found primitive cartesian Gaussian basis function :  1 0.446000E-01
  |   In terms of angular momentum, this radial function adds: 
  |     3 p-type basis functions
  Species O                   : Missing cutoff potential type.
  Defaulting to exp(1/x)/(1-x)^2 type cutoff potential.
 * Species O : Specified number of angular integration points is    50,
 * but required value for l_hartree =   8 is   110. 
  Species O : No 'logarithmic' tag. Using default grid for free atom:
  | Default logarithmic grid data [bohr] : 0.1000E-03 0.1000E+03 0.1012E+01
  Species O : On-site basis accuracy parameter (for Gram-Schmidt orthonormalisation) not specified.
  Using default value basis_acc =  0.1000000E-03.
  Species O                   : Using default innermost maximum threshold i_radial=  2 for radial functions.
  Species O                   : Default cutoff onset for free atom density etc. is infinite
  since the product basis is used (hybrid functionals, Hartree-Fock, GW etc.).
  Species O                   : Basic radial grid will be enhanced according to radial_multiplier =   6, to contain   221 grid points.
 
  Finished reading input file 'control.in'. Consistency checks are next.
 
  MPI_IN_PLACE appears to work with this MPI implementation.
  | Keeping use_mpi_in_place .true. (see manual).
  Explicit treatment of the Coulomb operator is needed, but the RI method is not specified.
  Coulomb operator: Defaulting to 'RI-V' resolution of identity - RI_type = V 
  Species C: Using default value for prodbas_acc =   1.000000E-02.
  Species C: Using default value max_l_prodbas =     5.
  Explicit treatment of the Coulomb operator is needed, but the RI method is not specified.
  Coulomb operator: Defaulting to 'RI-V' resolution of identity - RI_type = V 
  Species O: Using default value for prodbas_acc =   1.000000E-02.
  Species O: Using default value max_l_prodbas =     5.
 * Species C: Specified min. number of angular integration points is   110
 * The angular momenta for this species require   194 for RI_type 'V'. Increasing angular_min to   194.
 * Species C: Grid shell     1 contains only   110 angular integration points.
 * Increasing to angular_min =   194 integration points.
 * This change is related to the three-center integrals used in RI_method 'V'.
 * Species C: Grid shell     2 contains only   110 angular integration points.
 * Increasing to angular_min =   194 integration points.
 * This change is related to the three-center integrals used in RI_method 'V'.
 * Species O: Specified min. number of angular integration points is   110
 * The angular momenta for this species require   194 for RI_type 'V'. Increasing angular_min to   194.
 * Species O: Grid shell     1 contains only   110 angular integration points.
 * Increasing to angular_min =   194 integration points.
 * This change is related to the three-center integrals used in RI_method 'V'.
 * Species O: Grid shell     2 contains only   110 angular integration points.
 * Increasing to angular_min =   194 integration points.
 * This change is related to the three-center integrals used in RI_method 'V'.
  Target number of points in a grid batch is not set. Defaulting to  100
  Method for grid partitioning is not set. Defaulting to parallel hash+maxmin partitioning.
  Batch size limit is not set. Defaulting to    200
  By default, will store active basis functions for each batch.
  If in need of memory, prune_basis_once .false. can be used to disable this option.
  communication_type for Hartree potential was not specified.
  Defaulting to calc_hartree .
  Pulay mixer: Number of initial linear mixing iterations not set.
  Defaulting to    0 iterations.
  Work space size for distributed Hartree potential not set.
  Defaulting to   0.200000E+03 MB.
  Algorithm-dependent basis array size parameters:
  | n_max_pulay                         :       10
  Presetting      1001 iterations before the initial mixing cycle
  is restarted anyway using the sc_init_iter criterion / keyword.
  Presetting a factor      1.000 between actual scf density residual
  and density convergence criterion sc_accuracy_rho below which sc_init_iter
  takes no effect.
  Calculation of forces was not defined in control.in. No forces will be calculated.
  Geometry relaxation not requested: no relaxation will be performed.
  No accuracy limit for integral partition fn. given. Defaulting to  0.1000E-14.
  No threshold value for u(r) in integrations given. Defaulting to  0.1000E-05.
  No accuracy for occupation numbers given. Defaulting to  0.1000E-12.
  No threshold value for occupation numbers given. Defaulting to  0.0000E+00.
  No accuracy for fermi level given. Defaulting to  0.1000E-19.
  Maximum # of iterations to find E_F not set. Defaulting to  200.
  Preferred method for the eigenvalue solver ('KS_method') not specified in 'control.in'.
  Calling BLACS routine to test compilation state
  Since ScaLAPACK support is enabled, defaulting to ELPA (via ELSI).
  Will not use alltoall communication since running on < 1024 CPUs.
  Threshold for basis singularities not set.
  Default threshold for basis singularities:  0.1000E-04
  partition_type (choice of integration weights) for integrals was not specified.
  | Using a version of the partition function of Stratmann and coworkers ('stratmann_sparse').
  | At each grid point, the set of atoms used to build the partition table is smoothly restricted to
  | only those atoms whose free-atom density would be non-zero at that grid point.
  Partitioning for Hartree potential was not defined. Using partition_type for integrals.
  | Adjusted default value of keyword multip_moments_threshold to:       0.10000000E-11
  | This value may affect high angular momentum components of the Hartree potential in periodic systems.
  Threshold for auxiliary basis singularities not set.
  Default threshold for auxiliary basis singularities:  0.1000E-04
  No q(lm)/r^(l+1) cutoff set for long-range Hartree potential.
  | Using default value of  0.100000E-09 .
  | Verify using the multipole_threshold keyword.
  Defaulting to new monopole extrapolation.
  Density update method: automatic selection selected.
  Charge integration errors on the 3D integration grid will be compensated
  by explicit normalization and distribution of residual charges.
  Use the "compensate_multipole_errors" flag to change this behaviour.
  Default to 1D ("use_logsbt") integrations for auxiliary 2-center integrals.
  Default onset of logarithmic r-grid for SBT is-38.000000000000
  Default onset of logarithmic k-grid for SBT is-25.000000000000
  Default range of logarithmic r- and k-grid for SBT is 45.000000000000
  Default number of logarithmic r- and k-grid for SBT is  4096
  Default of use_2d_corr is to use the efficient 2D distribution where possible
------------------------------------------------------------


------------------------------------------------------------
          Reading geometry description geometry.in.
------------------------------------------------------------
  Input structure read successfully.
  The structure contains        3 atoms,  and a total of         22.000 electrons.

  Input geometry:
  | No unit cell requested.
  | Atomic structure:
  |       Atom                x [A]            y [A]            z [A]
  |    1: Species C             0.00000000        0.00000000        0.00000000
  |    2: Species O             1.17041260        0.00000000        0.00000000
  |    3: Species O            -1.17041260        0.00000000        0.00000000
  | The smallest distance between any two atoms is         1.17041260 AA.
  | The first atom of this pair is atom number                      1 .
  | The second atom of this pair is atom number                     2 .

  Structure-dependent array size parameters: 
  | Maximum number of distinct radial functions  :       26
  | Maximum number of basis functions            :      129
  | Number of Kohn-Sham states (occupied + empty):     1511
------------------------------------------------------------

------------------------------------------------------------
          Preparing all fixed parts of the calculation.
------------------------------------------------------------
  Determining machine precision:
    2.225073858507201E-308
  Setting up grids for atomic and cluster calculations.

  Creating wave function, potential, and density for free atoms.

  Species: C

  List of occupied orbitals and eigenvalues:
    n    l              occ      energy [Ha]    energy [eV]
    1    0           2.0000       -10.042041      -273.2578
    2    0           2.0000        -0.504901       -13.7390
    2    1           2.0000        -0.194353        -5.2886


  Species: O

  List of occupied orbitals and eigenvalues:
    n    l              occ      energy [Ha]    energy [eV]
    1    0           2.0000       -18.898644      -514.2583
    2    0           2.0000        -0.878848       -23.9147
    2    1           4.0000        -0.332128        -9.0377

  Creating fixed part of basis set: Ionic, confined, hydrogenic.
 
  C                    hydrogenic:
 
  List of hydrogenic basis orbitals: 
    n    l      effective z      eigenvalue [eV]  inner max. [A]     outer max. [A]     outer radius [A]   
    2    1         1.700000        -9.8152           1.245706           1.245706           5.401630
    3    2         6.000000       -54.4228           0.792453           0.792453           5.081344
    2    0         4.900000       -81.6682           0.082559           0.562749           4.496620
    4    3         9.800000       -81.6682           0.863254           0.863254           4.958612
    3    1         5.200000       -40.8775           0.305389           1.215618           5.271162
    3    0         4.300000       -27.9508           0.091041           1.610311           5.401630
    5    4        14.400000      -112.8511           0.917666           0.917666           4.780049
    3    2         6.200000       -58.1114           0.763917           0.763917           5.019603
 
 
  C                    Gaussian:
 
  List of cartesian Gaussian basis orbitals: 
    L    l    outer radius
    0    0         10.32559 AA
    1    1         13.02538 AA
 
 
  O                    hydrogenic:
 
  List of hydrogenic basis orbitals: 
    n    l      effective z      eigenvalue [eV]  inner max. [A]     outer max. [A]     outer radius [A]   
    2    1         1.800000       -11.0118           1.178562           1.178562           5.432602
    3    2         7.600000       -87.3183           0.624125           0.624125           4.634338
    3    0         6.400000       -61.9210           0.061167           1.081902           5.110480
    4    3        11.600000      -114.4239           0.731631           0.731631           4.522403
    3    1         6.200000       -58.1114           0.255680           1.030270           5.110480
    3    2         5.600000       -47.4083           0.847233           0.847233           5.173339
    5    4        17.600000      -168.5800           0.749740           0.749740           4.051222
    1    0         0.750000        -7.6499           0.705284           0.705284           5.366593
 
 
  O                    Gaussian:
 
  List of cartesian Gaussian basis orbitals: 
    L    l    outer radius
    0    0          8.03348 AA
    1    1         10.25861 AA
 

  Adding cutoff potential to free-atom effective potential.
  Creating atomic-like basis functions for current effective potential.

  Species C                   :

  List of atomic basis orbitals and eigenvalues:
    n    l      energy [Ha]    energy [eV]    outer radius [A]
    1    0       -10.042041      -273.2578       1.934409
    2    0        -0.504900       -13.7390       5.271162
    2    1        -0.194289        -5.2869       5.401630


  Species O                   :

  List of atomic basis orbitals and eigenvalues:
    n    l      energy [Ha]    energy [eV]    outer radius [A]
    1    0       -18.898644      -514.2583       1.415765
    2    0        -0.878848       -23.9147       5.048385
    2    1        -0.332125        -9.0376       5.301386

  Assembling full basis from fixed parts.
  | Species C :   atomic orbital   1 s accepted.
  | Species C :   atomic orbital   2 s accepted.
  | Species C :    hydro orbital   2 s accepted.
  | Species C :    hydro orbital   3 s accepted.
  | Species C : gaussian orbital   0 s accepted.
  | Species C :   atomic orbital   2 p accepted.
  | Species C :    hydro orbital   2 p accepted.
  | Species C :    hydro orbital   3 p accepted.
  | Species C : gaussian orbital   1 p accepted.
  | Species C :    hydro orbital   3 d accepted.
  | Species C :    hydro orbital   3 d accepted.
  | Species C :    hydro orbital   4 f accepted.
  | Species C :    hydro orbital   5 g accepted.
  | Species O :   atomic orbital   1 s accepted.
  | Species O :   atomic orbital   2 s accepted.
  | Species O :    hydro orbital   3 s accepted.
  | Species O :    hydro orbital   1 s accepted.
  | Species O : gaussian orbital   0 s accepted.
  | Species O :   atomic orbital   2 p accepted.
  | Species O :    hydro orbital   2 p accepted.
  | Species O :    hydro orbital   3 p accepted.
  | Species O : gaussian orbital   1 p accepted.
  | Species O :    hydro orbital   3 d accepted.
  | Species O :    hydro orbital   3 d accepted.
  | Species O :    hydro orbital   4 f accepted.
  | Species O :    hydro orbital   5 g accepted.

  * You requested     1511 Kohn-Sham states in the calculation,
  * but there are only      129 available basis states.
  * Reducing total number of  Kohn-Sham states to      129.
 
 
  Basis size parameters after reduction:
  | Total number of radial functions:       26
  | Total number of basis functions :      129
 
  Per-task memory consumption for arrays in subroutine allocate_ext:
  |           6.499052MB.
  Testing on-site integration grid accuracy.
  |  Species  Function  <phi|h_atom|phi> (log., in eV)  <phi|h_atom|phi> (rad., in eV)
           1        1               -273.2578369863               -273.2578368890
           1        2                -13.7390362166                -13.7390361874
           1        3                 20.4526498384                 20.4526496562
           1        4                 52.7217422230                 52.7217454623
           1        5                 24.1218495818                 24.1218494354
           1        6                 -5.2873494927                 -5.2873494724
           1        7                  8.0030763833                  8.0030766048
           1        8                 28.3402350495                 28.3402355417
           1        9                  6.5971242245                  6.5971193543
           1       10                 27.4356459433                 27.4356459590
           1       11                 56.8685154303                 56.8685154202
           1       12                 59.3377267322                 59.3377267383
           1       13                 93.4389769322                 93.4389769074
           2       14               -514.2582716877               -514.2582715405
           2       15                -23.9146660848                -23.9146660355
           2       16                 17.5388323151                 17.5388318998
           2       17                 14.5194240916                 14.5194244107
           2       18                298.6509716315                298.6510534303
           2       19                 -9.0376100143                 -9.0376099996
           2       20                  7.9045967111                  7.9045965759
           2       21                 33.4187688545                 33.4187685645
           2       22                 13.7042585158                 13.7042650249
           2       23                 45.8219149787                 45.8219149988
           2       24                 52.1928737223                 52.1928737076
           2       25                 85.4051169735                 85.4051169769
           2       26                142.0964096396                142.0964095960

  Preparing densities etc. for the partition functions (integrals / Hartree potential).

  Preparations completed.
  max(cpu_time)          :      0.291 s.
  Wall clock time (cpu1) :      0.290 s.
------------------------------------------------------------

------------------------------------------------------------
          Begin self-consistency loop: Initialization.

          Date     :  20190817, Time     :  154036.881
------------------------------------------------------------

  Initializing index lists of integration centers etc. from given atomic structure:
  | Number of centers in hartree potential         :         3
  | Number of centers in hartree multipole         :         3
  | Number of centers in electron density summation:         3
  | Number of centers in basis integrals           :         3
  | Number of centers in integrals                 :         3
  | Number of centers in hamiltonian               :         3
  * Using 8 tasks for Scalapack Eigenvalue solver.
  Detailed listing of tasks and assigned k-points:
  (for non-periodic systems, the "k-point" denotes an internal label only)
   Task     0 k-point     1 on co1631
   Task     1 k-point     1 on co1631
   Task     2 k-point     1 on co1631
   Task     3 k-point     1 on co1631
   Task     4 k-point     1 on co1631
   Task     5 k-point     1 on co1631
   Task     6 k-point     1 on co1631
   Task     7 k-point     1 on co1631
  Tasks:     8 split into      4 X      2 BLACS grid
  Calculating block size based on n_basis =          129  max_nprow =            4  max_npcol =            2
  ScaLAPACK block size set to:           16
  Allocating        0.016 MB for ovlp
  Allocating        0.016 MB for ham
  Allocating        0.016 MB for eigenvec
  Required Scalapack workspace - INTEGER:            1  REAL:             1
  Partitioning the integration grid into batches with parallel hashing+maxmin method.
  | Number of batches:     6531
  | Maximal batch size:     198
  | Minimal batch size:      49
  | Average batch size:      65.776
  | Standard deviation of batch sizes:      22.104

  Integration load balanced across     8 MPI tasks.
  Work distribution over tasks is as follows:
  Task     0 has      53653 integration points.
  Task     1 has      53647 integration points.
  Task     2 has      53597 integration points.
  Task     3 has      53745 integration points.
  Task     4 has      53647 integration points.
  Task     5 has      53788 integration points.
  Task     6 has      53753 integration points.
  Task     7 has      53752 integration points.
  Initializing partition tables, free-atom densities, potentials, etc. across the integration grid (initialize_grid_storage).
  | Species        1: outer_partition_radius set to             17.044868804081489 AA .
  | Species        2: outer_partition_radius set to             11.592603489656513 AA .
  | The sparse table of interatomic distances needs          0.09 kbyte instead of         0.07 kbyte of memory.
  | Using the partition_type stratmann_smoother will reduce your memory usage.
  | Net number of integration points:   429582
  | of which are non-zero points    :   384800
  Renormalizing the initial density to the exact electron count on the 3D integration grid.
  | Initial density: Formal number of electrons (from input files) :      22.0000000000
  | Integrated number of electrons on 3D grid     :      21.9999999642
  | Charge integration error                      :      -0.0000000358
  | Normalization factor for density and gradient :       1.0000000016
  Renormalizing the free-atom superposition density to the exact electron count on the 3D integration grid.
  | Formal number of electrons (from input files) :      22.0000000000
  | Integrated number of electrons on 3D grid     :      21.9999999642
  | Charge integration error                      :      -0.0000000358
  | Normalization factor for density and gradient :       1.0000000016
  Obtaining max. number of non-zero basis functions in each batch (get_n_compute_maxes).
  | Maximal number of non-zero basis functions:      129 in task     0
  | Maximal number of non-zero basis functions:      129 in task     1
  | Maximal number of non-zero basis functions:      129 in task     2
  | Maximal number of non-zero basis functions:      129 in task     3
  | Maximal number of non-zero basis functions:      129 in task     4
  | Maximal number of non-zero basis functions:      129 in task     5
  | Maximal number of non-zero basis functions:      129 in task     6
  | Maximal number of non-zero basis functions:      129 in task     7
  Selecting the method for density update.
  Loop over occupied states selected for charge density update.
  Allocating        0.127 MB for KS_eigenvector
  Integrating Hamiltonian matrix: batch-based integration.
  Time summed over all CPUs for integration: real work        2.124 s, elapsed        2.153 s
  Integrating overlap matrix.
  Time summed over all CPUs for integration: real work        0.811 s, elapsed        0.845 s
  Deallocating overlap matrix.

  Updating Kohn-Sham eigenvalues and eigenvectors using ELSI and the ELPA eigensolver.
  Overlap matrix is not singular
  | Lowest and highest eigenvalues :  0.9256E-04,  0.2979E+01
  Finished singularity check of overlap matrix
  | Time :     0.007 s
  Starting ELPA eigensolver
  Finished Cholesky decomposition
  | Time :     0.002 s
  Finished transformation to standard eigenproblem
  | Time :     0.000 s
  Finished solving standard eigenproblem
  | Time :     0.004 s
  Finished back-transformation of eigenvectors
  | Time :     0.000 s

  Obtaining occupation numbers and chemical potential using ELSI.
  | Chemical potential (Fermi level):    -9.02659650 eV
  Writing Kohn-Sham eigenvalues.

  State    Occupation    Eigenvalue [Ha]    Eigenvalue [eV]
      1       2.00000         -18.990128         -516.74768
      2       2.00000         -18.990127         -516.74766
      3       2.00000         -10.134288         -275.76800
      4       2.00000          -1.164105          -31.67691
      5       2.00000          -1.137946          -30.96510
      6       2.00000          -0.607079          -16.51947
      7       2.00000          -0.575444          -15.65863
      8       2.00000          -0.538395          -14.65047
      9       2.00000          -0.538395          -14.65047
     10       2.00000          -0.430548          -11.71580
     11       2.00000          -0.430548          -11.71580
     12       0.00000          -0.080619           -2.19376
     13       0.00000          -0.080619           -2.19376
     14       0.00000          -0.058935           -1.60370
     15       0.00000           0.018517            0.50386
     16       0.00000           0.018984            0.51659
     17       0.00000           0.018984            0.51659
     18       0.00000           0.052311            1.42346
     19       0.00000           0.082217            2.23723
     20       0.00000           0.082217            2.23723
     21       0.00000           0.089256            2.42878
     22       0.00000           0.118269            3.21826
     23       0.00000           0.118269            3.21826
     24       0.00000           0.123303            3.35525
     25       0.00000           0.183179            4.98455
     26       0.00000           0.235947            6.42043
     27       0.00000           0.293566            7.98834
     28       0.00000           0.293566            7.98834
     29       0.00000           0.348414            9.48083
     30       0.00000           0.371344           10.10478
     31       0.00000           0.371344           10.10478
     32       0.00000           0.425225           11.57097
     33       0.00000           0.425225           11.57097
     34       0.00000           0.436416           11.87547
     35       0.00000           0.472731           12.86366
     36       0.00000           0.472731           12.86366
     37       0.00000           0.691814           18.82521
     38       0.00000           0.691814           18.82521
     39       0.00000           0.728011           19.81019
     40       0.00000           0.763191           20.76749
     41       0.00000           0.788573           21.45817
     42       0.00000           0.788573           21.45817
     43       0.00000           0.930209           25.31228
     44       0.00000           0.983813           26.77091
     45       0.00000           1.045499           28.44949
     46       0.00000           1.045499           28.44949
     47       0.00000           1.200683           32.67225
     48       0.00000           1.200683           32.67225
     49       0.00000           1.396942           38.01273
     50       0.00000           1.396942           38.01273
     51       0.00000           1.481444           40.31215
     52       0.00000           1.488320           40.49925
     53       0.00000           1.488320           40.49925
     54       0.00000           1.524983           41.49691
     55       0.00000           1.803646           49.07971
     56       0.00000           1.844070           50.17971
     57       0.00000           1.844070           50.17971
     58       0.00000           2.007749           54.63362
     59       0.00000           2.007749           54.63362
     60       0.00000           2.019332           54.94883
     61       0.00000           2.019332           54.94883
     62       0.00000           2.145892           58.39268
     63       0.00000           2.245808           61.11156
     64       0.00000           2.245808           61.11156
     65       0.00000           2.253316           61.31584
     66       0.00000           2.302096           62.64321
     67       0.00000           2.302096           62.64321
     68       0.00000           2.445895           66.55620
     69       0.00000           2.695098           73.33734
     70       0.00000           2.695098           73.33734
     71       0.00000           2.909780           79.17915
     72       0.00000           2.909780           79.17915
     73       0.00000           2.967925           80.76136
     74       0.00000           2.967925           80.76136
     75       0.00000           2.973035           80.90040
     76       0.00000           2.973035           80.90040
     77       0.00000           3.018060           82.12560
     78       0.00000           3.018060           82.12560
     79       0.00000           3.225636           87.77401
     80       0.00000           3.327082           90.53450
     81       0.00000           3.327082           90.53450
     82       0.00000           3.370621           91.71927
     83       0.00000           3.370621           91.71927
     84       0.00000           3.628851           98.74607
     85       0.00000           3.628851           98.74607
     86       0.00000           3.893109          105.93689
     87       0.00000           3.990978          108.60003
     88       0.00000           3.990978          108.60003
     89       0.00000           4.101448          111.60608
     90       0.00000           4.130498          112.39658
     91       0.00000           4.130498          112.39658
     92       0.00000           4.200532          114.30230
     93       0.00000           4.371085          118.94328
     94       0.00000           4.371085          118.94328
     95       0.00000           4.491603          122.22272
     96       0.00000           4.491603          122.22272
     97       0.00000           5.079859          138.23000
     98       0.00000           5.079859          138.23000
     99       0.00000           5.160045          140.41198
    100       0.00000           5.160046          140.41199
    101       0.00000           5.398683          146.90563
    102       0.00000           5.398683          146.90564
    103       0.00000           5.492528          149.45929
    104       0.00000           5.542222          150.81154
    105       0.00000           5.643531          153.56828
    106       0.00000           5.643531          153.56828
    107       0.00000           5.668111          154.23715
    108       0.00000           5.668111          154.23715
    109       0.00000           5.855358          159.33240
    110       0.00000           5.855358          159.33240
    111       0.00000           6.740387          183.41528
    112       0.00000           6.740387          183.41528
    113       0.00000           6.969419          189.64755
    114       0.00000           6.973118          189.74819
    115       0.00000           6.973118          189.74819
    116       0.00000           7.213118          196.27893
    117       0.00000           7.213118          196.27893
    118       0.00000           7.415843          201.79535
    119       0.00000           7.415843          201.79535
    120       0.00000           7.792955          212.05710
    121       0.00000           7.962970          216.68345
    122       0.00000           7.962970          216.68345
    123       0.00000           8.036047          218.67195
    124       0.00000           9.471122          257.72233
    125       0.00000           9.471122          257.72233
    126       0.00000           9.717752          264.43349
    127       0.00000          18.069557          491.69766
    128       0.00000          22.582213          614.49327
    129       0.00000          30.765624          837.17521

  Highest occupied state (VBM) at    -11.71579967 eV
  | Occupation number:      2.00000000

  Lowest unoccupied state (CBM) at    -2.19376248 eV
  | Occupation number:      0.00000000

  Overall HOMO-LUMO gap:      9.52203719 eV.
  Calculating total energy contributions from superposition of free atom densities.

  Total energy components:
  | Sum of eigenvalues            :        -107.07400786 Ha       -2913.63199777 eV
  | XC energy correction          :         -22.11517119 Ha        -601.78442656 eV
  | XC potential correction       :          28.42132498 Ha         773.38360210 eV
  | Free-atom electrostatic energy:         -87.78751653 Ha       -2388.81986651 eV
  | Hartree energy correction     :           0.00000000 Ha           0.00000000 eV
  | Entropy correction            :           0.00000000 Ha           0.00000000 eV
  | ---------------------------
  | Total energy                  :        -188.55537059 Ha       -5130.85268875 eV
  | Total energy, T -> 0          :        -188.55537059 Ha       -5130.85268875 eV  <-- do not rely on this value for anything but (periodic) metals
  | Electronic free energy        :        -188.55537059 Ha       -5130.85268875 eV

  Derived energy quantities:
  | Kinetic energy                :         187.48723639 Ha        5101.78727823 eV
  | Electrostatic energy          :        -353.92743579 Ha       -9630.85554042 eV
  | Energy correction for multipole
  | error in Hartree potential    :           0.00000000 Ha           0.00000000 eV
  | Sum of eigenvalues per atom                           :        -971.21066592 eV
  | Total energy (T->0) per atom                          :       -1710.28422958 eV  <-- do not rely on this value for anything but (periodic) metals
  | Electronic free energy per atom                       :       -1710.28422958 eV
  Initialize hartree_potential_storage
  Max. number of atoms included in rho_multipole:            3

  End scf initialization - timings             :  max(cpu_time)    wall_clock(cpu1)
  | Time for scf. initialization               :        0.728 s           0.734 s
  | Boundary condition initialization          :        0.000 s           0.001 s
  | Integration                                :        0.375 s           0.376 s
  | Solution of K.-S. eqns.                    :        0.011 s           0.015 s
  | Grid partitioning                          :        0.135 s           0.135 s
  | Preloading free-atom quantities on grid    :        0.103 s           0.103 s
  | Free-atom superposition energy             :        0.041 s           0.041 s
  | Total energy evaluation                    :        0.000 s           0.001 s

  Partial memory accounting:
  | Current value for overall tracked memory usage:
  |   Minimum:        0.239 MB (on task 3)
  |   Maximum:        0.241 MB (on task 0)
  |   Average:        0.239 MB
  | Peak value for overall tracked memory usage:
  |   Minimum:        1.724 MB (on task 7 after allocating grid_partition)
  |   Maximum:        2.079 MB (on task 0 after allocating grid_partition)
  |   Average:        1.892 MB
  | Largest tracked array allocation so far:
  |   Minimum:        1.117 MB (all_coords on task 7)
  |   Maximum:        1.353 MB (all_coords on task 0)
  |   Average:        1.229 MB
  Note:  These values currently only include a subset of arrays which are explicitly tracked.
  The "true" memory usage will be greater.
------------------------------------------------------------

------------------------------------------------------------
          Begin self-consistency iteration #    1

  Date     :  20190817, Time     :  154037.615
------------------------------------------------------------
  Evaluating new KS density.
  Integration grid: deviation in total charge (<rho> - N_e) =   0.000000E+00
  Pulay mixing of updated and previous charge densities.
  Renormalizing the density to the exact electron count on the 3D integration grid.
  | Formal number of electrons (from input files) :      22.0000000000
  | Integrated number of electrons on 3D grid     :      22.0000000000
  | Charge integration error                      :      -0.0000000000
  | Normalization factor for density and gradient :       1.0000000000

  Evaluating partitioned Hartree potential by multipole expansion.
  | Original multipole sum: apparent total charge =  -0.240738E-12
  | Sum of charges compensated after spline to logarithmic grids =  -0.181403E-06
  | Analytical far-field extrapolation by fixed multipoles:
  | Hartree multipole sum: apparent total charge =  -0.241304E-12
  Summing up the Hartree potential.
  Time summed over all CPUs for potential: real work        0.815 s, elapsed        0.823 s
  | RMS charge density error from multipole expansion :   0.512418E-03

  Integrating Hamiltonian matrix: batch-based integration.
  Time summed over all CPUs for integration: real work        2.147 s, elapsed        2.177 s

  Updating Kohn-Sham eigenvalues and eigenvectors using ELSI and the ELPA eigensolver.
  Starting ELPA eigensolver
  Finished transformation to standard eigenproblem
  | Time :     0.000 s
  Finished solving standard eigenproblem
  | Time :     0.003 s
  Finished back-transformation of eigenvectors
  | Time :     0.000 s

  Obtaining occupation numbers and chemical potential using ELSI.
  | Chemical potential (Fermi level):    -4.81410450 eV
  Writing Kohn-Sham eigenvalues.

  State    Occupation    Eigenvalue [Ha]    Eigenvalue [eV]
      1       2.00000         -18.750664         -510.23152
      2       2.00000         -18.750662         -510.23147
      3       2.00000         -10.149888         -276.19251
      4       2.00000          -1.078559          -29.34908
      5       2.00000          -1.037776          -28.23931
      6       2.00000          -0.503291          -13.69523
      7       2.00000          -0.475008          -12.92563
      8       2.00000          -0.475008          -12.92563
      9       2.00000          -0.459964          -12.51627
     10       2.00000          -0.320620           -8.72451
     11       2.00000          -0.320620           -8.72451
     12       0.00000          -0.039661           -1.07924
     13       0.00000          -0.027940           -0.76028
     14       0.00000          -0.027940           -0.76028
     15       0.00000           0.022259            0.60571
     16       0.00000           0.022259            0.60571
     17       0.00000           0.028278            0.76950
     18       0.00000           0.072076            1.96128
     19       0.00000           0.091108            2.47918
     20       0.00000           0.091108            2.47918
     21       0.00000           0.106170            2.88903
     22       0.00000           0.124161            3.37860
     23       0.00000           0.124161            3.37860
     24       0.00000           0.133442            3.63113
     25       0.00000           0.196666            5.35157
     26       0.00000           0.269302            7.32807
     27       0.00000           0.295611            8.04398
     28       0.00000           0.295611            8.04398
     29       0.00000           0.365749            9.95254
     30       0.00000           0.395804           10.77037
     31       0.00000           0.395804           10.77037
     32       0.00000           0.433308           11.79090
     33       0.00000           0.433308           11.79090
     34       0.00000           0.462125           12.57506
     35       0.00000           0.500680           13.62419
     36       0.00000           0.500680           13.62419
     37       0.00000           0.725359           19.73801
     38       0.00000           0.725359           19.73801
     39       0.00000           0.796925           21.68543
     40       0.00000           0.800784           21.79043
     41       0.00000           0.828156           22.53528
     42       0.00000           0.828156           22.53528
     43       0.00000           0.965421           26.27046
     44       0.00000           1.021817           27.80506
     45       0.00000           1.071059           29.14500
     46       0.00000           1.071059           29.14500
     47       0.00000           1.224253           33.31361
     48       0.00000           1.224253           33.31361
     49       0.00000           1.464098           39.84013
     50       0.00000           1.464098           39.84013
     51       0.00000           1.514651           41.21576
     52       0.00000           1.514651           41.21576
     53       0.00000           1.552714           42.25150
     54       0.00000           1.604708           43.66633
     55       0.00000           1.838612           50.03117
     56       0.00000           1.926966           52.43542
     57       0.00000           1.926966           52.43542
     58       0.00000           2.019112           54.94282
     59       0.00000           2.019112           54.94282
     60       0.00000           2.059526           56.04256
     61       0.00000           2.059526           56.04256
     62       0.00000           2.196886           59.78030
     63       0.00000           2.275254           61.91281
     64       0.00000           2.276194           61.93839
     65       0.00000           2.276194           61.93839
     66       0.00000           2.337304           63.60127
     67       0.00000           2.337304           63.60127
     68       0.00000           2.508070           68.24806
     69       0.00000           2.736626           74.46738
     70       0.00000           2.736626           74.46738
     71       0.00000           2.982203           81.14988
     72       0.00000           2.982203           81.14988
     73       0.00000           3.042113           82.78011
     74       0.00000           3.042113           82.78011
     75       0.00000           3.061047           83.29533
     76       0.00000           3.061047           83.29533
     77       0.00000           3.078177           83.76147
     78       0.00000           3.078177           83.76147
     79       0.00000           3.300650           89.81526
     80       0.00000           3.320503           90.35548
     81       0.00000           3.320503           90.35549
     82       0.00000           3.438664           93.57080
     83       0.00000           3.438664           93.57080
     84       0.00000           3.715793          101.11187
     85       0.00000           3.715793          101.11187
     86       0.00000           3.994095          108.68486
     87       0.00000           4.051454          110.24566
     88       0.00000           4.051454          110.24566
     89       0.00000           4.175295          113.61556
     90       0.00000           4.181773          113.79183
     91       0.00000           4.181773          113.79183
     92       0.00000           4.284195          116.57888
     93       0.00000           4.472336          121.69845
     94       0.00000           4.472336          121.69845
     95       0.00000           4.557033          124.00317
     96       0.00000           4.557033          124.00317
     97       0.00000           5.162871          140.48887
     98       0.00000           5.162871          140.48887
     99       0.00000           5.229444          142.30042
    100       0.00000           5.229445          142.30044
    101       0.00000           5.465600          148.72655
    102       0.00000           5.465601          148.72657
    103       0.00000           5.557900          151.23815
    104       0.00000           5.622211          152.98815
    105       0.00000           5.701634          155.14936
    106       0.00000           5.701634          155.14936
    107       0.00000           5.736977          156.11108
    108       0.00000           5.736977          156.11108
    109       0.00000           5.924845          161.22324
    110       0.00000           5.924845          161.22324
    111       0.00000           6.805305          185.18176
    112       0.00000           6.805305          185.18176
    113       0.00000           7.047178          191.76347
    114       0.00000           7.047178          191.76347
    115       0.00000           7.049444          191.82512
    116       0.00000           7.286096          198.26475
    117       0.00000           7.286096          198.26475
    118       0.00000           7.480750          203.56156
    119       0.00000           7.480750          203.56156
    120       0.00000           7.860192          213.88670
    121       0.00000           8.034103          218.61907
    122       0.00000           8.034103          218.61907
    123       0.00000           8.132993          221.30999
    124       0.00000           9.537716          259.53445
    125       0.00000           9.537716          259.53445
    126       0.00000           9.778640          266.09032
    127       0.00000          18.211862          495.56999
    128       0.00000          22.737805          618.72715
    129       0.00000          30.779333          837.54826

  Highest occupied state (VBM) at     -8.72451266 eV
  | Occupation number:      2.00000000

  Lowest unoccupied state (CBM) at    -1.07923634 eV
  | Occupation number:      0.00000000

  Overall HOMO-LUMO gap:      7.64527632 eV.

  Total energy components:
  | Sum of eigenvalues            :        -104.64411880 Ha       -2847.51135238 eV
  | XC energy correction          :         -22.40829383 Ha        -609.76069938 eV
  | XC potential correction       :          28.80596195 Ha         783.85010639 eV
  | Free-atom electrostatic energy:         -87.78751653 Ha       -2388.81986651 eV
  | Hartree energy correction     :          -2.47617432 Ha         -67.38013142 eV
  | Entropy correction            :           0.00000000 Ha           0.00000000 eV
  | ---------------------------
  | Total energy                  :        -188.51014153 Ha       -5129.62194329 eV
  | Total energy, T -> 0          :        -188.51014153 Ha       -5129.62194329 eV  <-- do not rely on this value for anything but (periodic) metals
  | Electronic free energy        :        -188.51014153 Ha       -5129.62194329 eV

  Derived energy quantities:
  | Kinetic energy                :         188.96305724 Ha        5141.94640677 eV
  | Electrostatic energy          :        -355.06490494 Ha       -9661.80765068 eV
  | Energy correction for multipole
  | error in Hartree potential    :          -0.00004719 Ha          -0.00128407 eV
  | Sum of eigenvalues per atom                           :        -949.17045079 eV
  | Total energy (T->0) per atom                          :       -1709.87398110 eV  <-- do not rely on this value for anything but (periodic) metals
  | Electronic free energy per atom                       :       -1709.87398110 eV

  Self-consistency convergence accuracy:
  | Change of charge density      :  0.3349E+00
  | Change of sum of eigenvalues  :  0.6612E+02 eV
  | Change of total energy        :  0.1231E+01 eV

  End self-consistency iteration #     1       :  max(cpu_time)    wall_clock(cpu1)
  | Time for this iteration                    :        0.611 s           0.612 s
  | Charge density update                      :        0.214 s           0.215 s
  | Density mixing                             :        0.006 s           0.006 s
  | Hartree multipole update                   :        0.008 s           0.008 s
  | Hartree multipole summation                :        0.105 s           0.105 s
  | Integration                                :        0.272 s           0.273 s
  | Solution of K.-S. eqns.                    :        0.004 s           0.004 s
  | Total energy evaluation                    :        0.000 s           0.000 s

  Partial memory accounting:
  | Current value for overall tracked memory usage:
  |   Minimum:        0.239 MB (on task 3)
  |   Maximum:        0.241 MB (on task 0)
  |   Average:        0.239 MB
  | Peak value for overall tracked memory usage:
  |   Minimum:        1.724 MB (on task 7 after allocating grid_partition)
  |   Maximum:        2.079 MB (on task 0 after allocating grid_partition)
  |   Average:        1.892 MB
  | Largest tracked array allocation so far:
  |   Minimum:        1.117 MB (all_coords on task 7)
  |   Maximum:        1.353 MB (all_coords on task 0)
  |   Average:        1.229 MB
  Note:  These values currently only include a subset of arrays which are explicitly tracked.
  The "true" memory usage will be greater.
------------------------------------------------------------

------------------------------------------------------------
          Begin self-consistency iteration #    2

  Date     :  20190817, Time     :  154038.228
------------------------------------------------------------
  Evaluating new KS density.
  Integration grid: deviation in total charge (<rho> - N_e) =   1.065814E-14
  Pulay mixing of updated and previous charge densities.
  Renormalizing the density to the exact electron count on the 3D integration grid.
  | Formal number of electrons (from input files) :      22.0000000000
  | Integrated number of electrons on 3D grid     :      22.0000000000
  | Charge integration error                      :       0.0000000000
  | Normalization factor for density and gradient :       1.0000000000

  Evaluating partitioned Hartree potential by multipole expansion.
  | Original multipole sum: apparent total charge =  -0.542134E-13
  | Sum of charges compensated after spline to logarithmic grids =  -0.190473E-06
  | Analytical far-field extrapolation by fixed multipoles:
  | Hartree multipole sum: apparent total charge =  -0.540781E-13
  Summing up the Hartree potential.
  Time summed over all CPUs for potential: real work        0.826 s, elapsed        0.843 s
  | RMS charge density error from multipole expansion :   0.609461E-03

  Integrating Hamiltonian matrix: batch-based integration.
  Time summed over all CPUs for integration: real work        2.146 s, elapsed        2.179 s

  Updating Kohn-Sham eigenvalues and eigenvectors using ELSI and the ELPA eigensolver.
  Starting ELPA eigensolver
  Finished transformation to standard eigenproblem
  | Time :     0.000 s
  Finished solving standard eigenproblem
  | Time :     0.003 s
  Finished back-transformation of eigenvectors
  | Time :     0.000 s

  Obtaining occupation numbers and chemical potential using ELSI.
  | Chemical potential (Fermi level):    -5.55622494 eV
  Highest occupied state (VBM) at     -9.25747961 eV
  | Occupation number:      2.00000000

  Lowest unoccupied state (CBM) at    -0.99634319 eV
  | Occupation number:      0.00000000

  Overall HOMO-LUMO gap:      8.26113642 eV.

  Checking to see if s.c.f. parameters should be adjusted.

  Total energy components:
  | Sum of eigenvalues            :        -104.89494088 Ha       -2854.33656827 eV
  | XC energy correction          :         -22.34575604 Ha        -608.05895948 eV
  | XC potential correction       :          28.72449759 Ha         781.63334839 eV
  | Free-atom electrostatic energy:         -87.78751653 Ha       -2388.81986651 eV
  | Hartree energy correction     :          -2.18922735 Ha         -59.57190710 eV
  | Entropy correction            :           0.00000000 Ha           0.00000000 eV
  | ---------------------------
  | Total energy                  :        -188.49294320 Ha       -5129.15395297 eV
  | Total energy, T -> 0          :        -188.49294320 Ha       -5129.15395297 eV  <-- do not rely on this value for anything but (periodic) metals
  | Electronic free energy        :        -188.49294320 Ha       -5129.15395297 eV

  Derived energy quantities:
  | Kinetic energy                :         188.31532564 Ha        5124.32073310 eV
  | Electrostatic energy          :        -354.46251280 Ha       -9645.41572660 eV
  | Energy correction for multipole
  | error in Hartree potential    :           0.00019801 Ha           0.00538816 eV
  | Sum of eigenvalues per atom                           :        -951.44552276 eV
  | Total energy (T->0) per atom                          :       -1709.71798432 eV  <-- do not rely on this value for anything but (periodic) metals
  | Electronic free energy per atom                       :       -1709.71798432 eV

  Self-consistency convergence accuracy:
  | Change of charge density      :  0.2175E+00
  | Change of sum of eigenvalues  : -0.6825E+01 eV
  | Change of total energy        :  0.4680E+00 eV

  End self-consistency iteration #     2       :  max(cpu_time)    wall_clock(cpu1)
  | Time for this iteration                    :        0.592 s           0.592 s
  | Charge density update                      :        0.193 s           0.192 s
  | Density mixing                             :        0.008 s           0.009 s
  | Hartree multipole update                   :        0.008 s           0.007 s
  | Hartree multipole summation                :        0.106 s           0.107 s
  | Integration                                :        0.273 s           0.272 s
  | Solution of K.-S. eqns.                    :        0.004 s           0.005 s
  | Total energy evaluation                    :        0.000 s           0.000 s

  Partial memory accounting:
  | Current value for overall tracked memory usage:
  |   Minimum:        0.239 MB (on task 3)
  |   Maximum:        0.242 MB (on task 0)
  |   Average:        0.240 MB
  | Peak value for overall tracked memory usage:
  |   Minimum:        1.724 MB (on task 7 after allocating grid_partition)
  |   Maximum:        2.079 MB (on task 0 after allocating grid_partition)
  |   Average:        1.892 MB
  | Largest tracked array allocation so far:
  |   Minimum:        1.117 MB (all_coords on task 7)
  |   Maximum:        1.353 MB (all_coords on task 0)
  |   Average:        1.229 MB
  Note:  These values currently only include a subset of arrays which are explicitly tracked.
  The "true" memory usage will be greater.
------------------------------------------------------------

------------------------------------------------------------
          Begin self-consistency iteration #    3

  Date     :  20190817, Time     :  154038.821
------------------------------------------------------------
  Evaluating new KS density.
  Integration grid: deviation in total charge (<rho> - N_e) =   2.131628E-14
  Pulay mixing of updated and previous charge densities.
  Renormalizing the density to the exact electron count on the 3D integration grid.
  | Formal number of electrons (from input files) :      22.0000000000
  | Integrated number of electrons on 3D grid     :      22.0000000000
  | Charge integration error                      :      -0.0000000000
  | Normalization factor for density and gradient :       1.0000000000

  Evaluating partitioned Hartree potential by multipole expansion.
  | Original multipole sum: apparent total charge =  -0.184803E-12
  | Sum of charges compensated after spline to logarithmic grids =  -0.818640E-07
  | Analytical far-field extrapolation by fixed multipoles:
  | Hartree multipole sum: apparent total charge =  -0.184385E-12
  Summing up the Hartree potential.
  Time summed over all CPUs for potential: real work        0.810 s, elapsed        0.820 s
  | RMS charge density error from multipole expansion :   0.873782E-03

  Integrating Hamiltonian matrix: batch-based integration.
  Time summed over all CPUs for integration: real work        2.146 s, elapsed        2.262 s

  Updating Kohn-Sham eigenvalues and eigenvectors using ELSI and the ELPA eigensolver.
  Starting ELPA eigensolver
  Finished transformation to standard eigenproblem
  | Time :     0.000 s
  Finished solving standard eigenproblem
  | Time :     0.003 s
  Finished back-transformation of eigenvectors
  | Time :     0.000 s

  Obtaining occupation numbers and chemical potential using ELSI.
  | Chemical potential (Fermi level):    -5.55488057 eV
  Highest occupied state (VBM) at     -9.03393846 eV
  | Occupation number:      2.00000000

  Lowest unoccupied state (CBM) at    -0.93954694 eV
  | Occupation number:      0.00000000

  Overall HOMO-LUMO gap:      8.09439152 eV.

  Total energy components:
  | Sum of eigenvalues            :        -104.76914346 Ha       -2850.91344635 eV
  | XC energy correction          :         -22.35586965 Ha        -608.33416486 eV
  | XC potential correction       :          28.73818517 Ha         782.00580657 eV
  | Free-atom electrostatic energy:         -87.78751653 Ha       -2388.81986651 eV
  | Hartree energy correction     :          -2.31774419 Ha         -63.06902838 eV
  | Entropy correction            :           0.00000000 Ha           0.00000000 eV
  | ---------------------------
  | Total energy                  :        -188.49208865 Ha       -5129.13069954 eV
  | Total energy, T -> 0          :        -188.49208865 Ha       -5129.13069954 eV  <-- do not rely on this value for anything but (periodic) metals
  | Electronic free energy        :        -188.49208865 Ha       -5129.13069954 eV

  Derived energy quantities:
  | Kinetic energy                :         187.97570455 Ha        5115.07917320 eV
  | Electrostatic energy          :        -354.11192355 Ha       -9635.87570788 eV
  | Energy correction for multipole
  | error in Hartree potential    :           0.00045188 Ha           0.01229630 eV
  | Sum of eigenvalues per atom                           :        -950.30448212 eV
  | Total energy (T->0) per atom                          :       -1709.71023318 eV  <-- do not rely on this value for anything but (periodic) metals
  | Electronic free energy per atom                       :       -1709.71023318 eV

  Self-consistency convergence accuracy:
  | Change of charge density      :  0.6325E-01
  | Change of sum of eigenvalues  :  0.3423E+01 eV
  | Change of total energy        :  0.2325E-01 eV

  End self-consistency iteration #     3       :  max(cpu_time)    wall_clock(cpu1)
  | Time for this iteration                    :        0.607 s           0.607 s
  | Charge density update                      :        0.196 s           0.196 s
  | Density mixing                             :        0.011 s           0.011 s
  | Hartree multipole update                   :        0.008 s           0.008 s
  | Hartree multipole summation                :        0.104 s           0.104 s
  | Integration                                :        0.283 s           0.283 s
  | Solution of K.-S. eqns.                    :        0.004 s           0.005 s
  | Total energy evaluation                    :        0.000 s           0.000 s

  Partial memory accounting:
  | Current value for overall tracked memory usage:
  |   Minimum:        0.239 MB (on task 3)
  |   Maximum:        0.242 MB (on task 0)
  |   Average:        0.240 MB
  | Peak value for overall tracked memory usage:
  |   Minimum:        1.724 MB (on task 7 after allocating grid_partition)
  |   Maximum:        2.079 MB (on task 0 after allocating grid_partition)
  |   Average:        1.892 MB
  | Largest tracked array allocation so far:
  |   Minimum:        1.117 MB (all_coords on task 7)
  |   Maximum:        1.353 MB (all_coords on task 0)
  |   Average:        1.229 MB
  Note:  These values currently only include a subset of arrays which are explicitly tracked.
  The "true" memory usage will be greater.
------------------------------------------------------------

------------------------------------------------------------
          Begin self-consistency iteration #    4

  Date     :  20190817, Time     :  154039.428
------------------------------------------------------------
  Evaluating new KS density.
  Integration grid: deviation in total charge (<rho> - N_e) =  -5.684342E-14
  Pulay mixing of updated and previous charge densities.
  Renormalizing the density to the exact electron count on the 3D integration grid.
  | Formal number of electrons (from input files) :      22.0000000000
  | Integrated number of electrons on 3D grid     :      22.0000000000
  | Charge integration error                      :      -0.0000000000
  | Normalization factor for density and gradient :       1.0000000000

  Evaluating partitioned Hartree potential by multipole expansion.
  | Original multipole sum: apparent total charge =  -0.168986E-12
  | Sum of charges compensated after spline to logarithmic grids =  -0.127957E-07
  | Analytical far-field extrapolation by fixed multipoles:
  | Hartree multipole sum: apparent total charge =  -0.168913E-12
  Summing up the Hartree potential.
  Time summed over all CPUs for potential: real work        0.814 s, elapsed        0.822 s
  | RMS charge density error from multipole expansion :   0.923533E-03

  Integrating Hamiltonian matrix: batch-based integration.
  Time summed over all CPUs for integration: real work        2.157 s, elapsed        2.195 s

  Updating Kohn-Sham eigenvalues and eigenvectors using ELSI and the ELPA eigensolver.
  Starting ELPA eigensolver
  Finished transformation to standard eigenproblem
  | Time :     0.000 s
  Finished solving standard eigenproblem
  | Time :     0.003 s
  Finished back-transformation of eigenvectors
  | Time :     0.001 s

  Obtaining occupation numbers and chemical potential using ELSI.
  | Chemical potential (Fermi level):    -5.68861938 eV
  Highest occupied state (VBM) at     -9.08638064 eV
  | Occupation number:      2.00000000

  Lowest unoccupied state (CBM) at    -0.93028367 eV
  | Occupation number:      0.00000000

  Overall HOMO-LUMO gap:      8.15609698 eV.

  Total energy components:
  | Sum of eigenvalues            :        -104.81484040 Ha       -2852.15692338 eV
  | XC energy correction          :         -22.34782329 Ha        -608.11521216 eV
  | XC potential correction       :          28.72770498 Ha         781.72062601 eV
  | Free-atom electrostatic energy:         -87.78751653 Ha       -2388.81986651 eV
  | Hartree energy correction     :          -2.26950721 Ha         -61.75643332 eV
  | Entropy correction            :           0.00000000 Ha           0.00000000 eV
  | ---------------------------
  | Total energy                  :        -188.49198244 Ha       -5129.12780937 eV
  | Total energy, T -> 0          :        -188.49198244 Ha       -5129.12780937 eV  <-- do not rely on this value for anything but (periodic) metals
  | Electronic free energy        :        -188.49198244 Ha       -5129.12780937 eV

  Derived energy quantities:
  | Kinetic energy                :         187.85815855 Ha        5111.88058366 eV
  | Electrostatic energy          :        -354.00231770 Ha       -9632.89318087 eV
  | Energy correction for multipole
  | error in Hartree potential    :           0.00052890 Ha           0.01439212 eV
  | Sum of eigenvalues per atom                           :        -950.71897446 eV
  | Total energy (T->0) per atom                          :       -1709.70926979 eV  <-- do not rely on this value for anything but (periodic) metals
  | Electronic free energy per atom                       :       -1709.70926979 eV

  Self-consistency convergence accuracy:
  | Change of charge density      :  0.1877E-01
  | Change of sum of eigenvalues  : -0.1243E+01 eV
  | Change of total energy        :  0.2890E-02 eV

  End self-consistency iteration #     4       :  max(cpu_time)    wall_clock(cpu1)
  | Time for this iteration                    :        0.602 s           0.602 s
  | Charge density update                      :        0.197 s           0.197 s
  | Density mixing                             :        0.013 s           0.013 s
  | Hartree multipole update                   :        0.008 s           0.008 s
  | Hartree multipole summation                :        0.104 s           0.104 s
  | Integration                                :        0.275 s           0.275 s
  | Solution of K.-S. eqns.                    :        0.005 s           0.004 s
  | Total energy evaluation                    :        0.000 s           0.000 s

  Partial memory accounting:
  | Current value for overall tracked memory usage:
  |   Minimum:        0.239 MB (on task 3)
  |   Maximum:        0.242 MB (on task 0)
  |   Average:        0.240 MB
  | Peak value for overall tracked memory usage:
  |   Minimum:        1.724 MB (on task 7 after allocating grid_partition)
  |   Maximum:        2.079 MB (on task 0 after allocating grid_partition)
  |   Average:        1.892 MB
  | Largest tracked array allocation so far:
  |   Minimum:        1.117 MB (all_coords on task 7)
  |   Maximum:        1.353 MB (all_coords on task 0)
  |   Average:        1.229 MB
  Note:  These values currently only include a subset of arrays which are explicitly tracked.
  The "true" memory usage will be greater.
------------------------------------------------------------

------------------------------------------------------------
          Begin self-consistency iteration #    5

  Date     :  20190817, Time     :  154040.031
------------------------------------------------------------
  Evaluating new KS density.
[...]
  |    O      2    10.258611 A     10.258611 A       -6.125824E-15 a.u.
  |    O      1    10.384792 A     10.384792 A        2.602006E-16 a.u.
  |    O      5     4.987044 A  1.510659E+02 A           43.070743 a.u.
  |    O      4     5.567066 A  4.908730E+02 A           54.655052 a.u.
  |    O      3     5.704859 A  2.512280E+03 A           40.425719 a.u.
  |    O      2    10.258611 A  3.611090E+04 A           25.287258 a.u.
  |    O      1    10.384792 A  4.014077E+06 A            4.578881 a.u.
  |    O      0     5.775028 A  4.967757E+12 A            0.747050 a.u.

  | Shrink_full_auxil_basis : there are       89  radial auxiliary wave functions
                            accepted and     277 rejected.
  | Shrink_full_auxil_basis : there are totally                 637 partial auxiliary wave functions.
 
  | Maximal number of product basis functions per thread :    80    80
 
  | Minimal total memory requirement for three-center overlap :       0.046 Gbs
  | Number of local auxiliary basis functions on task:      0    80
  | Number of local auxiliary basis functions on task:      1    80
  | Number of local auxiliary basis functions on task:      2    80
  | Number of local auxiliary basis functions on task:      3    80
  | Number of local auxiliary basis functions on task:      4    80
  | Number of local auxiliary basis functions on task:      5    80
  | Number of local auxiliary basis functions on task:      6    80
  | Number of local auxiliary basis functions on task:      7    77
  | 2D aux task distribution:      2 X      4
  | 2D block size (nb_aux_2d):     64
  | Task at    0 x    0 gets    320 x    192 entries of 2D aux
  | Task at    0 x    1 gets    320 x    189 entries of 2D aux
  | Task at    0 x    2 gets    320 x    128 entries of 2D aux
  | Task at    0 x    3 gets    320 x    128 entries of 2D aux
  | Task at    1 x    0 gets    317 x    192 entries of 2D aux
  | Task at    1 x    1 gets    317 x    189 entries of 2D aux
  | Task at    1 x    2 gets    317 x    128 entries of 2D aux
  | Task at    1 x    3 gets    317 x    128 entries of 2D aux
 
  Basis pair condensation :      8385  -->       8385
 
  | Product basis set up.
  
  |
  | Starting routine for neutral optical excitation energies.
  |
  | We have  11 occupied and  118 virtual states, yielding     1298 paired states.
  | You requested   20 to be printed.
  |
  |
  | Integrating the dipole moment assoicated with products of KS states ...
  | i_atom:            1
  | i_atom:            2
  | i_atom:            3
  |
  | The dipole moments already took      0.0 MB x      8 procs =       0.000 GB.
  |
  | The ovlp_3KS and fxc_3KS matrices take another     21 MB x      8 procs =       0.163 GB.
  |
  | The f_xc Matrix takes another      3 MB x      8 procs =       0.024 GB.
  |
  | Integrating  < u | f_xc | v >  in auxiliary basis...
 
 ----------------------------------------------------
  Integrating the 3-basis-function Coulomb matrix ...
  | i_atom:            1
  | i_atom:            2
  | i_atom:            3
  Integrating the Coulomb interaction matrix for auxiliary basis functions (by atoms)

  SBT integration errors (all should be 'small'):
  large logFT aliasing -> increase N/lnrange
  large SBT aliasing -> decrease lnk0 & increase lnk0+lnrange
  large SBT ringing -> decrease lnr0 & increase lnr0+lnrange
  |            El't  L: logFT-al.   small-k   large-k   small-r   large-r
  Atomic logSBT for 2-center Coulomb matrix    :  max(cpu_time)    wall_clock(cpu1)
  | Multiplication with kernel                 :        0.004 s           0.004 s
  | Main matrix multiplication                 :        0.035 s           0.030 s
  | Analytic angular integration               :        0.006 s           0.003 s
  | Kernel construction                        :        0.003 s           0.002 s
  | Overall 2-center overlap time              :        0.059 s           0.054 s

  Diagonalizing the Coulomb matrix and checking for singularities with ScaLapack .
 
  Difference of Coulomb matrix to its transposed:  2.7756E-16
  Eigenvalues of the Coulomb matrix range from    2.9999E+00 to    7.1367E-09.
  Using      617   eigenvalues out of rank      637   Coulomb matrix (auxiliary basis).
  Still using eigenvalue     1.0594E-05 while cutting     8.8895E-06 in Coulomb matrix.
 
  Diagonalizing the f_xc coefficient matrix and checking for singularities with ScaLapack .
 
  Difference of f_xc coefficient matrix to its transposed:  2.7756E-16
  Eigenvalues of the f_xc coefficient matrix range from    2.9999E+00 to    7.1367E-09.
  Using      617   eigenvalues out of rank      637   f_xc coefficient matrix (auxiliary basis).
  Still using eigenvalue     1.0594E-05 while cutting     8.8895E-06 in f_xc coefficient matrix.
 
  Multiplying ovlp_3fn x V^-0.5 (2d-scalapack)
  Multiplying fxc_3fn x V^-1 (2d-scalapack)

  | Contracting intermediate matrix x matrix product:
  |     < u | f_xc | v > x < v | jb >
  | in auxiliary basis.
  |
  | 
  | Starting TDDFT excited state calculation for Singlets.
  | 
  | Deviding the     1298 x     1298 Matrix into      2 colomns and      4 rows on     8 processors.
  | Memory load of      0.013 GB devided among all Processors.
  | Processor     0 gets      328 rows and      650 columns  (   1.627 MB).
  | Processor     1 gets      328 rows and      650 columns  (   1.627 MB).
  | Processor     2 gets      322 rows and      650 columns  (   1.597 MB).
  | Processor     3 gets      320 rows and      650 columns  (   1.587 MB).
  | Processor     4 gets      328 rows and      648 columns  (   1.622 MB).
  | Processor     5 gets      328 rows and      648 columns  (   1.622 MB).
  | Processor     6 gets      322 rows and      648 columns  (   1.592 MB).
  | Processor     7 gets      320 rows and      648 columns  (   1.582 MB).
  |
  | Number of total rotations for matrix building:     8
  |
  |
  | Building Omega matrix  < ia | V + f_xc | jb >  now.
  |
  | Only final results greater than    1.0E-12 will be stored.
  |
  | starting rotation:     1
  | starting rotation:     2
  | starting rotation:     3
  | starting rotation:     4
  | starting rotation:     5
  | starting rotation:     6
  | starting rotation:     7
  | starting rotation:     8
  |
  | Calling ELPA 2stage solver now
  |
  | Writing Singlet excitation energies (TDDFT) 
  |    1. Singlet:      8.2200 eV     [  0.3021 Ha]  -  Oscillator Strength:       0.0000
  |            Transition Moments    X:    0.0000   Y:   -0.0000   Z:    0.0000
  |
  |    2. Singlet:      8.2200 eV     [  0.3021 Ha]  -  Oscillator Strength:       0.0000
  |            Transition Moments    X:    0.0000   Y:    0.0000   Z:    0.0000
  |
  |    3. Singlet:      8.5990 eV     [  0.3160 Ha]  -  Oscillator Strength:       0.0000
  |            Transition Moments    X:    0.0000   Y:   -0.0000   Z:    0.0000
  |
  |    4. Singlet:      8.9801 eV     [  0.3300 Ha]  -  Oscillator Strength:       0.0000
  |            Transition Moments    X:    0.0000   Y:   -0.0000   Z:    0.0000
  |
  |    5. Singlet:      8.9801 eV     [  0.3300 Ha]  -  Oscillator Strength:       0.0000
  |            Transition Moments    X:   -0.0000   Y:    0.0000   Z:   -0.0000
  |
  |    6. Singlet:      9.8014 eV     [  0.3602 Ha]  -  Oscillator Strength:       0.0000
  |            Transition Moments    X:   -0.0000   Y:    0.0000   Z:    0.0000
  |
  |    7. Singlet:      9.8014 eV     [  0.3602 Ha]  -  Oscillator Strength:       0.0000
  |            Transition Moments    X:    0.0000   Y:   -0.0000   Z:   -0.0000
  |
  |    8. Singlet:      9.8043 eV     [  0.3603 Ha]  -  Oscillator Strength:       0.0503
  |            Transition Moments    X:   -0.2745   Y:   -0.0000   Z:    0.0000
  |
  |    9. Singlet:      9.8341 eV     [  0.3614 Ha]  -  Oscillator Strength:       0.0000
  |            Transition Moments    X:    0.0000   Y:   -0.0000   Z:    0.0000
  |
  |   10. Singlet:      9.8857 eV     [  0.3633 Ha]  -  Oscillator Strength:       0.0213
  |            Transition Moments    X:    0.0000   Y:   -0.1787   Z:   -0.0099
  |
  |   11. Singlet:      9.8857 eV     [  0.3633 Ha]  -  Oscillator Strength:       0.0213
  |            Transition Moments    X:   -0.0000   Y:    0.0099   Z:   -0.1787
  |
  |   12. Singlet:     11.1251 eV     [  0.4088 Ha]  -  Oscillator Strength:       0.0000
  |            Transition Moments    X:    0.0000   Y:   -0.0000   Z:   -0.0000
  |
  |   13. Singlet:     11.1251 eV     [  0.4088 Ha]  -  Oscillator Strength:       0.0000
  |            Transition Moments    X:    0.0000   Y:   -0.0000   Z:   -0.0000
  |
  |   14. Singlet:     11.5669 eV     [  0.4251 Ha]  -  Oscillator Strength:       0.0000
  |            Transition Moments    X:    0.0000   Y:   -0.0000   Z:    0.0000
  |
  |   15. Singlet:     11.5669 eV     [  0.4251 Ha]  -  Oscillator Strength:       0.0000
  |            Transition Moments    X:    0.0000   Y:    0.0000   Z:   -0.0000
  |
  |   16. Singlet:     11.6206 eV     [  0.4270 Ha]  -  Oscillator Strength:       0.0000
  |            Transition Moments    X:    0.0000   Y:   -0.0000   Z:    0.0000
  |
  |   17. Singlet:     11.6654 eV     [  0.4287 Ha]  -  Oscillator Strength:       0.0393
  |            Transition Moments    X:    0.2428   Y:   -0.0000   Z:    0.0000
  |
  |   18. Singlet:     11.7057 eV     [  0.4302 Ha]  -  Oscillator Strength:       0.0000
  |            Transition Moments    X:   -0.0000   Y:    0.0000   Z:    0.0000
  |
  |   19. Singlet:     11.9399 eV     [  0.4388 Ha]  -  Oscillator Strength:       0.0981
  |            Transition Moments    X:   -0.0000   Y:   -0.0211   Z:    0.3829
  |
  |   20. Singlet:     11.9399 eV     [  0.4388 Ha]  -  Oscillator Strength:       0.0981
  |            Transition Moments    X:    0.0000   Y:   -0.3829   Z:   -0.0211
  |
  | 
  | End of TDDFT Singlet excitation energy calculation.
  |
  | End of neutral optical excitation energy calculation routine.
  |
  |------------------------------------------------------
  | Final ELSI Output
  |------------------------------------------------------
  |
  | Physical Properties
  |   Number of electrons       :        0.22000000E+02
  |   Number of spins           :                     1
  |   Number of k-points        :                     1
  |   Number of states          :                   129
  |
  | Matrix Properties
  |   Matrix format             :           BLACS_DENSE
  |   Number of basis functions :                   129
  |   Matrix sparsity           :        0.71798570E+00
  |
  | Computational Details
  |   Parallel mode             :            MULTI_PROC
  |   Number of MPI tasks       :                     8
  |   Solver requested          :                  ELPA
  |   Number of ELSI calls      :                    10
  |
  |------------------------------------------------------
  | ELSI Project (c)  elsi-interchange.org
  |------------------------------------------------------

------------------------------------------------------------------------------
  Final output of selected total energy values:

  The following output summarizes some interesting total energy values
  at the end of a run (AFTER all relaxation, molecular dynamics, etc.).

  | Total energy of the DFT / Hartree-Fock s.c.f. calculation      :          -5129.127798015 eV
  | Final zero-broadening corrected energy (caution - metals only) :          -5129.127798015 eV
  | For reference only, the value of 1 Hartree used in FHI-aims is :             27.211384500 eV

  Before relying on these values, please be sure to understand exactly which
  total energy value is referred to by a given number. Different objects may
  all carry the same name 'total energy'. Definitions:

  Total energy of the DFT / Hartree-Fock s.c.f. calculation:
  | Note that this energy does not include ANY quantities calculated after the
  | s.c.f. cycle, in particular not ANY RPA, MP2, etc. many-body perturbation terms.

  Final zero-broadening corrected energy:
  | For metallic systems only, a broadening of the occupation numbers at the Fermi
  | level can be extrapolated back to zero broadening by an electron-gas inspired
  | formula. For all systems that are not real metals, this value can be
  | meaningless and should be avoided.

------------------------------------------------------------------------------
  Methods described in the following list of references were used in this FHI-aims run.
  If you publish the results, please make sure to cite these reference if they apply.
  FHI-aims is an academic code, and for our developers (often, Ph.D. students
  and postdocs), scientific credit in the community is essential.
  Thank you for helping us!

  For any use of FHI-aims, please cite:

    Volker Blum, Ralf Gehrke, Felix Hanke, Paula Havu, Ville Havu,
    Xinguo Ren, Karsten Reuter, and Matthias Scheffler
    'Ab initio molecular simulations with numeric atom-centered orbitals'
    Computer Physics Communications 180, 2175-2196 (2009)
    http://dx.doi.org/10.1016/j.cpc.2009.06.022


  For Hartree-Fock, hybrid functionals, or many-body perturbation theory used in your run, please cite:

    Xinguo Ren, Patrick Rinke, Volker Blum, Juergen Wieferink, Alex Tkatchenko,
    Andrea Sanfilippo, Karsten Reuter, and Matthias Scheffler,
    'Resolution-of-identity approach to Hartree-Fock, hybrid density functionals,
    RPA, MP2, and GW with numeric atom-centered orbital basis functions'
    New Journal of Physics 14, 053020 (2012).
    http://dx.doi.org/10.1088/1367-2630/14/5/053020


  The ELSI infrastructure was used in your run to solve the Kohn-Sham electronic structure.
  Please check out http://elsi-interchange.org to learn more.
  If scalability is important for your project, please acknowledge ELSI by citing:

    V. W-z. Yu, F. Corsetti, A. Garcia, W. P. Huhn, M. Jacquelin, W. Jia,
    B. Lange, L. Lin, J. Lu, W. Mi, A. Seifitokaldani, A. Vazquez-Mayagoitia,
    C. Yang, H. Yang, and V. Blum
    'ELSI: A unified software interface for Kohn-Sham electronic structure solvers'
    Computer Physics Communications 222, 267-285 (2018).
    http://dx.doi.org/10.1016/j.cpc.2017.09.007


  For the real-space grid partitioning and parallelization used in this calculation, please cite:

    Ville Havu, Volker Blum, Paula Havu, and Matthias Scheffler,
    'Efficient O(N) integration for all-electron electronic structure calculation'
    'using numerically tabulated basis functions'
    Journal of Computational Physics 228, 8367-8379 (2009).
    http://dx.doi.org/10.1016/j.jcp.2009.08.008

  Of course, there are many other important community references, e.g., those cited in the
  above references. Our list is limited to references that describe implementations in the
  FHI-aims code. The reason is purely practical (length of this list) - please credit others as well.

 * Warning - angular integration grids had to be adjusted for use with RI_method 'V'.
 * Background: You are using an electronic structure method that requires RI_method 'V'
 * for the resolution of identity of the Coulomb operator. (See Ren et al.,
 * New J. Phys 2012 for details.) This method requires three-center integrations
 * to be carried out on FHI-aims' normal angular and radial integration grids.
 * (See FHI-aims CPC Blum et al. 2009, p. 2183 for grid details and references.)
 * One of the angular grids specified in your control.in file was not large
 * enough for the maximal angular momenta of orbital and product basis functions
 * for its species.
 * This can lead to atomic total energy errors which cancel in energy differences.
 * Effective Sep 22, 2014, we have changed the default behavior of the code to
 * simply 'upgrade' the angular grids internally to a safe setting in this case.
 * Please be sure to NOT mix total energies from before and after the change.

------------------------------------------------------------
          Leaving FHI-aims.
          Date     :  20190817, Time     :  154113.189

          Computational steps:
          | Number of self-consistency cycles          :            9
          | Number of SCF (re)initializations          :            1

          Detailed time accounting                     :  max(cpu_time)    wall_clock(cpu1)
          | Total time                                 :       36.613 s          36.672 s
          | Preparation time                           :        0.291 s           0.290 s
          | Boundary condition initalization           :        0.000 s           0.001 s
          | Grid partitioning                          :        0.135 s           0.135 s
          | Preloading free-atom quantities on grid    :        0.103 s           0.103 s
          | Free-atom superposition energy             :        0.041 s           0.041 s
          | Total time for integrations                :        2.849 s           2.850 s
          | Product basis setup: Total time            :        0.000 s           0.000 s
          | Product basis: | 3-center integrations     :(       0.000 s)  (       0.000 s)
          | Product basis: | 2-center integrations     :(       0.000 s)  (       0.000 s)
          | Product basis: | 2-center linear algebra   :(       0.000 s)  (       0.000 s)
          | Product basis: | 3-center x 2-center       :(       0.000 s)  (       0.000 s)
          | Total time for solution of K.-S. equations :        0.050 s           0.053 s
          | Total time for density update              :        1.774 s           1.775 s
          | Total time for mixing                      :        0.122 s           0.123 s
          | Total time for Hartree multipole update    :        0.069 s           0.069 s
          | Total time for Hartree multipole sum       :        0.940 s           0.941 s
          | Total time for total energy evaluation     :        0.002 s           0.001 s
          | Total time for neutral excitations         :       30.072 s          30.093 s
          |    * dipole moment integration             :        1.549 s           1.550 s
          |    * orbital calculations                  :       27.659 s          27.678 s
          |       + <mu|f_xc|nu>                       :        6.194 s           6.197 s
          |       + compute D_ia^mu                    :       21.289 s          21.304 s
          |       + KS basis transformation            :        0.138 s           0.138 s
          |       + <mu|f_xc|ia>                       :        0.038 s           0.038 s
          |    * casida formalism                      :        0.609 s           0.613 s
          |       + TDDFT Matrix building              :        0.357 s           0.357 s
          |          - <mu|f_xc|ia> communication      :        0.083 s           0.078 s
          |          - casida matrix calculation       :        0.200 s           0.202 s
          |          - casida elements communication   :        0.072 s           0.073 s
          |       + solving the TDDFT Matrix           :        0.179 s           0.180 s

          Partial memory accounting:
          | Residual value for overall tracked memory usage across tasks:     0.000000 MB (should be 0.000000 MB)
          | Peak values for overall tracked memory usage:
          |   Minimum:        1.724 MB (on task 7 after allocating grid_partition)
          |   Maximum:        2.079 MB (on task 0 after allocating grid_partition)
          |   Average:        1.892 MB
          | Largest tracked array allocation:
          |   Minimum:        1.117 MB (all_coords on task 7)
          |   Maximum:        1.353 MB (all_coords on task 0)
          |   Average:        1.229 MB
          Note:  These values currently only include a subset of arrays which are explicitly tracked.
          The "true" memory usage will be greater.

          Have a nice day.
------------------------------------------------------------
