  MPI-parallelism will be employed.
------------------------------------------------------------
          Invoking FHI-aims ...
          Version 180101-
          Git rev. (modified): fa29f3a Merge branch master of fhiaims.rzberlin.mp[...]
          Compiled on 2018/01/19 at 14:47:46 on host theobook132.

          When using FHI-aims, please cite the following reference:

          Volker Blum, Ralf Gehrke, Felix Hanke, Paula Havu,
          Ville Havu, Xinguo Ren, Karsten Reuter, and Matthias Scheffler,
          'Ab Initio Molecular Simulations with Numeric Atom-Centered Orbitals',
          Computer Physics Communications 180, 2175-2196 (2009)

          For any questions about FHI-aims, please visit the aimsclub website
          with its forums and wiki. Contributions to both the forums and the
          wiki are warmly encouraged - they are for you, and everyone is welcome there.

------------------------------------------------------------



  Date     :  20180215, Time     :  214419.774
  Time zero on CPU 1             :   0.520000000000000E-01  s.
  Internal wall clock time zero  :           287963059.774  s.

  FHI-aims created a unique identifier for this run for later identification
  aims_uuid : 0ECF5059-47BE-4431-AA10-1010D95A455F

  Using        8 parallel tasks.
  Task        0 on host theobook132 reporting.
  Task        1 on host theobook132 reporting.
  Task        2 on host theobook132 reporting.
  Task        3 on host theobook132 reporting.
  Task        4 on host theobook132 reporting.
  Task        5 on host theobook132 reporting.
  Task        6 on host theobook132 reporting.
  Task        7 on host theobook132 reporting.

  Performing system and environment tests:
  *** Environment variable OMP_NUM_THREADS is not set
  *** For performance reasons you might want to set it to 1
  | Stacksize not measured: no C compiler
  | Checking for scalapack...
  | No scalapack compiled in.

  Obtaining array dimensions for all initial allocations:
  
  -----------------------------------------------------------------------
  Parsing control.in (first pass over file, find array dimensions only).
  The contents of control.in will be repeated verbatim below
  unless switched off by setting 'verbatim_writeout .false.' .
  in the first line of control.in .
  -----------------------------------------------------------------------
  
  ################################################################################
  #
  #		Control.in generated by mkcontrol
  #
  ################################################################################
  xc			pbe
  vdw_correction_hirshfeld
  relativistic		none
  sc_accuracy_rho		1E-5
  sc_accuracy_eev		1E-3
  sc_accuracy_etot	1E-6
  sc_iter_limit		1000	
  
  compute_forces .true.
  final_forces_cleaned .true.
  
  ################################################################################
  #
  #  FHI-aims code project
  #  VB, Fritz-Haber Institut, 2009
  #
  #  Suggested "light" defaults for H atom (to be pasted into control.in file)
  #  Be sure to double-check any results obtained with these settings for post-processing,
  #  e.g., with the "tight" defaults and larger basis sets.
  #
  ################################################################################
    species        H
  #     global species definitions
      nucleus             1
      mass                1.00794
  #
      l_hartree           4
  #
      cut_pot             3.5  1.5  1.0
      basis_dep_cutoff    1e-4
  #
      radial_base         24 5.0
      radial_multiplier   1
      angular_grids       specified
        division   0.2421   50
        division   0.3822  110
        division   0.4799  194
        division   0.5341  302
  #      division   0.5626  434
  #      division   0.5922  590
  #      division   0.6542  770
  #      division   0.6868 1202
  #      outer_grid  770
        outer_grid  302
  ################################################################################
  #
  #  Definition of "minimal" basis
  #
  ################################################################################
  #     valence basis states
      valence      1  s   1.
  #     ion occupancy
      ion_occ      1  s   0.5
  ################################################################################
  #
  #  Suggested additional basis functions. For production calculations,
  #  uncomment them one after another (the most important basis functions are
  #  listed first).
  #
  #  Basis constructed for dimers: 0.5 A, 0.7 A, 1.0 A, 1.5 A, 2.5 A
  #
  ################################################################################
  #  "First tier" - improvements: -1014.90 meV to -62.69 meV
       hydro 2 s 2.1
       hydro 2 p 3.5
  #  "Second tier" - improvements: -12.89 meV to -1.83 meV
  #     hydro 1 s 0.85
  #     hydro 2 p 3.7
  #     hydro 2 s 1.2
  #     hydro 3 d 7
  #  "Third tier" - improvements: -0.25 meV to -0.12 meV
  #     hydro 4 f 11.2
  #     hydro 3 p 4.8
  #     hydro 4 d 9
  #     hydro 3 s 3.2
  
  ################################################################################
  #
  #  FHI-aims code project
  #  VB, Fritz-Haber Institut, 2009
  #
  #  Suggested "light" defaults for C atom (to be pasted into control.in file)
  #  Be sure to double-check any results obtained with these settings forpost-processing,
  #  e.g., with the "tight" defaults and larger basis sets.
  #
  ################################################################################
    species        C
  #     global species definitions
      nucleus             6
      mass                12.0107
  #
      l_hartree           4
  #
      cut_pot             3.5  1.5  1.0
      basis_dep_cutoff    1e-4
  #
      radial_base         34 5.0
      radial_multiplier   1
      angular_grids specified
        division   0.3326   50
        division   0.5710  110
        division   0.7727  194
        division   0.8772  302
  #      division   0.9334  434
  #      division   0.9625  590
  #      division   0.9924  770
  #      division   1.0230  974
  #      division   1.4589 1202
  #     outer_grid  974
       outer_grid 302
  ################################################################################
  #
  #  Definition of "minimal" basis
  #
  ################################################################################
  #     valence basis states
      valence      2  s   2.
      valence      2  p   2.
  #     ion occupancy
      ion_occ      2  s   1.
      ion_occ      2  p   1.
  ################################################################################
  #
  #  Suggested additional basis functions. For production calculations,
  #  uncomment them one after another (the most important basis functions are
  #  listed first).
  #
  #  Constructed for dimers: 1.0 A, 1.25 A, 1.5 A, 2.0 A, 3.0 A
  #
  ################################################################################
  #  "First tier" - improvements: -1214.57 meV to -155.61 meV
       hydro 2 p 1.7
       hydro 3 d 6
       hydro 2 s 4.9
  #  "Second tier" - improvements: -67.75 meV to -5.23 meV
  #     hydro 4 f 9.8
  #     hydro 3 p 5.2
  #     hydro 3 s 4.3
  #     hydro 5 g 14.4
  #     hydro 3 d 6.2
  #  "Third tier" - improvements: -2.43 meV to -0.60 meV
  #     hydro 2 p 5.6
  #     hydro 2 s 1.4
  #     hydro 3 d 4.9
  #     hydro 4 f 11.2
  #  "Fourth tier" - improvements: -0.39 meV to -0.18 meV
  #     hydro 2 p 2.1
  #     hydro 5 g 16.4
  #     hydro 4 d 13.2
  #     hydro 3 s 13.6
  #     hydro 4 f 17.6
  #  Further basis functions - improvements: -0.08 meV and below
  #     hydro 3 s 2
  #     hydro 3 p 6
  #     hydro 4 d 20
  
  -----------------------------------------------------------------------
  Completed first pass over input file control.in .
  -----------------------------------------------------------------------
  
  
  -----------------------------------------------------------------------
  Parsing geometry.in (first pass over file, find array dimensions only).
  The contents of geometry.in will be repeated verbatim below
  unless switched off by setting 'verbatim_writeout .false.' .
  in the first line of geometry.in .
  -----------------------------------------------------------------------
  
  #=======================================#
  # iterations/iteration0037/aims-chain-node-0.56236/geometry.in
  #=======================================#
  atom -1.4375038260052417 -0.8868538919574914 -0.3988922487794372 C
  atom -0.6425263158100724 -0.2054324061418394 0.6770187150334332 C
  atom 0.6425262612220897 0.2054324980883977 0.6770187247847632 C
  atom 1.4375038426290134 0.8868538556397890 -0.3988922723087623 C
  atom -0.8769012963967843 -1.0442809280273455 -1.3291464162044431 H
  atom -2.4337892581652580 -0.4744498941875603 -0.6227019967268758 H
  atom -1.6231554709864466 -1.8913135238966092 0.0242050784644048 H
  atom -1.1462422515831319 -0.1935156741987649 1.6495169209095291 H
  atom 1.1462421508083775 0.1935158413887568 1.6495169546900041 H
  atom 0.8769012450994145 1.0442810537831801 -1.3291463717389502 H
  atom 1.6231557638787768 1.8913134271977292 0.0242050723590702 H
  atom 2.4337891553092588 0.4744496423117494 -0.6227021604827521 H
  
  -----------------------------------------------------------------------
  Completed first pass over input file geometry.in .
  -----------------------------------------------------------------------
  

  Basic array size parameters:
  | Number of species                 :        2
  | Number of atoms                   :       12
  | Max. basis fn. angular momentum   :        2
  | Max. atomic/ionic basis occupied n:        2
  | Max. number of basis fn. types    :        2
  | Max. radial fns per species/type  :        3
  | Max. logarithmic grid size        :     1277
  | Max. radial integration grid size :       34
  | Max. angular integration grid size:      302
  | Max. angular grid division number :        8
  | Radial grid for Hartree potential :     1277
  | Number of spin channels           :        1

------------------------------------------------------------
          Reading file control.in.
------------------------------------------------------------
  XC: Using PBE gradient-corrected functionals.
  Non-relativistic treatment of kinetic energy.
  Convergence accuracy of self-consistent charge density:  0.1000E-04
  Convergence accuracy of sum of eigenvalues:  0.1000E-02
  Convergence accuracy of total energy:  0.1000E-05
  Maximum number of s.-c. iterations  :  1000
  Forces will be computed.
  Cleaning forces before final output.
 
  Reading configuration options for species H                   .
  | Found nuclear charge :   1.0000
  | Found atomic mass :    1.00794000000000      amu
  | Found l_max for Hartree potential  :   4
  | Found cutoff potl. onset [A], width [A], scale factor :    3.50000    1.50000    1.00000
  | Threshold for basis-dependent cutoff potential is   0.100000E-03
  | Found data for basic radial integration grid :    24 points, outermost radius =    5.000 A
  | Found multiplier for basic radial grid :   1
  | Found angular grid specification: user-specified.
  | Specified grid contains     5 separate shells.
  | Check grid settings after all constraints further below.
  | Found free-atom valence shell :  1 s   1.000
  | No ionic wave fns used. Skipping ion_occ.
  | Found hydrogenic basis function :  2 s   2.100
  | Found hydrogenic basis function :  2 p   3.500
  Species H                   : Missing cutoff potential type.
  Defaulting to exp(1/x)/(1-x)^2 type cutoff potential.
  Species H : No 'logarithmic' tag. Using default grid for free atom:
  | Default logarithmic grid data [bohr] : 0.1000E-03 0.1000E+03 0.1012E+01
  Species H : On-site basis accuracy parameter (for Gram-Schmidt orthonormalisation) not specified.
  Using default value basis_acc =  0.1000000E-03.
  Species H                   : Using default innermost maximum threshold i_radial=  2 for radial functions.
  Species H                   : Default cutoff onset for free atom density etc. : 0.35000000E+01 AA.
  Species H                   : Basic radial grid will be enhanced according to radial_multiplier =   1, to contain    24 grid points.
 
  Reading configuration options for species C                   .
  | Found nuclear charge :   6.0000
  | Found atomic mass :    12.0107000000000      amu
  | Found l_max for Hartree potential  :   4
  | Found cutoff potl. onset [A], width [A], scale factor :    3.50000    1.50000    1.00000
  | Threshold for basis-dependent cutoff potential is   0.100000E-03
  | Found data for basic radial integration grid :    34 points, outermost radius =    5.000 A
  | Found multiplier for basic radial grid :   1
  | Found angular grid specification: user-specified.
  | Specified grid contains     5 separate shells.
  | Check grid settings after all constraints further below.
  | Found free-atom valence shell :  2 s   2.000
  | Found free-atom valence shell :  2 p   2.000
  | No ionic wave fns used. Skipping ion_occ.
  | No ionic wave fns used. Skipping ion_occ.
  | Found hydrogenic basis function :  2 p   1.700
  | Found hydrogenic basis function :  3 d   6.000
  | Found hydrogenic basis function :  2 s   4.900
  Species C                   : Missing cutoff potential type.
  Defaulting to exp(1/x)/(1-x)^2 type cutoff potential.
  Species C : No 'logarithmic' tag. Using default grid for free atom:
  | Default logarithmic grid data [bohr] : 0.1000E-03 0.1000E+03 0.1012E+01
  Species C : On-site basis accuracy parameter (for Gram-Schmidt orthonormalisation) not specified.
  Using default value basis_acc =  0.1000000E-03.
  Species C                   : Using default innermost maximum threshold i_radial=  2 for radial functions.
  Species C                   : Default cutoff onset for free atom density etc. : 0.35000000E+01 AA.
  Species C                   : Basic radial grid will be enhanced according to radial_multiplier =   1, to contain    34 grid points.
 
  Finished reading input file 'control.in'. Consistency checks are next.
 
  MPI_IN_PLACE appears to work with this MPI implementation.
  | Keeping use_mpi_in_place .true. (see manual).
  Target number of points in a grid batch is not set. Defaulting to  100
  Method for grid partitioning is not set. Defaulting to parallel hash+maxmin partitioning.
  Batch size limit is not set. Defaulting to    200
  By default, will store active basis functions for each batch.
  If in need of memory, prune_basis_once .false. can be used to disable this option.
  communication_type for Hartree potential was not specified.
  Defaulting to calc_hartree .
  Defaulting to Pulay charge density mixer.
  Pulay mixer: Number of relevant iterations not set.
  Defaulting to    8 iterations.
  Pulay mixer: Number of initial linear mixing iterations not set.
  Defaulting to    0 iterations.
  Work space size for distributed Hartree potential not set.
  Defaulting to   0.200000E+03 MB.
  Mixing parameter for charge density mixing has not been set.
  Using default: charge_mix_param =     0.0500.
  The mixing parameter will be adjusted in iteration number     2 of the first full s.c.f. cycle only.
  Algorithm-dependent basis array size parameters:
  | n_max_pulay                         :        8
  Presetting        40 iterations before the initial mixing cycle
  is restarted anyway using the sc_init_iter criterion / keyword.
  Presetting a factor      1.000 between actual scf density residual
  and density convergence criterion sc_accuracy_rho below which sc_init_iter
  takes no effect.
  Geometry relaxation not requested: no relaxation will be performed.
  Force calculation: scf convergence accuracy of forces not set.
  Defaulting to 'sc_accuracy_forces not_checked'.
  Handling of forces: Unphysical translation and rotation will be removed from forces.
  No accuracy limit for integral partition fn. given. Defaulting to  0.1000E-14.
  No threshold value for u(r) in integrations given. Defaulting to  0.1000E-05.
  No occupation type (smearing scheme) given. Defaulting to Gaussian broadening, width =  0.1000E-01 eV.
  The width will be adjusted in iteration number     2 of the first full s.c.f. cycle only.
  S.C.F. convergence parameters will be adjusted in iteration number     2 of the first full s.c.f. cycle only.
  No accuracy for occupation numbers given. Defaulting to  0.1000E-12.
  No threshold value for occupation numbers given. Defaulting to  0.0000E+00.
  No accuracy for fermi level given. Defaulting to  0.1000E-19.
  Maximum # of iterations to find E_F not set. Defaulting to  200.
  Preferred method for the eigenvalue solver ('KS_method') not specified in 'control.in'.
  Calling BLACS routine to test compilation state
  The best choice would be 'elsi', but your version of FHI-aims is compiled without ScaLAPACK support.
  Defaulting to 'lapack_fast' instead (serial solution, time will not improve with more CPUs).
  Will not use alltoall communication since running on < 1024 CPUs.
  Threshold for basis singularities not set.
  Default threshold for basis singularities:  0.1000E-04
  partition_type (choice of integration weights) for integrals was not specified.
  | Using a version of the partition function of Stratmann and coworkers ('stratmann_smoother').
  | At each grid point, the set of atoms used to build the partition table is smoothly restricted to
  | only those atoms whose free-atom density would be non-zero at that grid point.
  Partitioning for Hartree potential was not defined. Using partition_type for integrals.
  | Adjusted default value of keyword multip_moments_threshold to:       0.10000000E-11
  | This value may affect high angular momentum components of the Hartree potential in periodic systems.
  Spin handling was not defined in control.in. Defaulting to unpolarized case.
  No q(lm)/r^(l+1) cutoff set for long-range Hartree potential.
  | Using default value of  0.100000E-09 .
  | Verify using the multipole_threshold keyword.
  Defaulting to new monopole extrapolation.
  Density update method: automatic selection selected.
------------------------------------------------------------


------------------------------------------------------------
          Reading geometry description geometry.in.
------------------------------------------------------------
  Input structure read successfully.
  The structure contains       12 atoms,  and a total of         32.000 electrons.

  Input geometry:
  | No unit cell requested.
  | Atomic structure:
  |       Atom                x [A]            y [A]            z [A]
  |    1: Species C            -1.43750383       -0.88685389       -0.39889225
  |    2: Species C            -0.64252632       -0.20543241        0.67701872
  |    3: Species C             0.64252626        0.20543250        0.67701872
  |    4: Species C             1.43750384        0.88685386       -0.39889227
  |    5: Species H            -0.87690130       -1.04428093       -1.32914642
  |    6: Species H            -2.43378926       -0.47444989       -0.62270200
  |    7: Species H            -1.62315547       -1.89131352        0.02420508
  |    8: Species H            -1.14624225       -0.19351567        1.64951692
  |    9: Species H             1.14624215        0.19351584        1.64951695
  |   10: Species H             0.87690125        1.04428105       -1.32914637
  |   11: Species H             1.62315576        1.89131343        0.02420507
  |   12: Species H             2.43378916        0.47444964       -0.62270216
  |

  | The smallest distance between any two atoms is         1.09527372 AA.
  |
  | The first atom of this pair is atom number                      3 .
  | The second atom of this pair is atom number                     9 .

  Number of empty states per atom not set in control.in - providing a guess from actual geometry.
  | Total number of empty states used during s.c.f. cycle:       24
  If you use a very high smearing, use empty_states (per atom!) in control.in to increase this value.

  Structure-dependent array size parameters: 
  | Maximum number of distinct radial functions  :        9
  | Maximum number of basis functions            :       96
  | Number of Kohn-Sham states (occupied + empty):       40
------------------------------------------------------------

------------------------------------------------------------
          Preparing all fixed parts of the calculation.
------------------------------------------------------------
  Determining machine precision:
    2.225073858507201E-308
  Setting up grids for atomic and cluster calculations.

  Creating wave function, potential, and density for free atoms.

  Species: H

  List of occupied orbitals and eigenvalues:
    n    l              occ      energy [Ha]    energy [eV]
    1    0           1.0000        -0.237589        -6.4651


  Species: C

  List of occupied orbitals and eigenvalues:
    n    l              occ      energy [Ha]    energy [eV]
    1    0           2.0000       -10.038835      -273.1706
    2    0           2.0000        -0.502696       -13.6791
    2    1           2.0000        -0.191971        -5.2238

  Creating fixed part of basis set: Ionic, confined, hydrogenic.
 
  H                    hydrogenic:
 
  List of hydrogenic basis orbitals: 
    n    l      effective z      eigenvalue [eV]  inner max. [A]     outer max. [A]     outer radius [A]   
    2    0         2.100000       -14.9728           0.193243           1.317208           4.583499
    2    1         3.500000       -41.6669           0.602369           0.602369           3.723403
 
 
  C                    hydrogenic:
 
  List of hydrogenic basis orbitals: 
    n    l      effective z      eigenvalue [eV]  inner max. [A]     outer max. [A]     outer radius [A]   
    2    1         1.700000        -9.7616           1.230570           1.230570           4.607917
    3    2         6.000000       -54.4224           0.792453           0.792453           3.883070
    2    0         4.900000       -81.6679           0.082559           0.562749           3.078220
 

  Adding cutoff potential to free-atom effective potential.
  Creating atomic-like basis functions for current effective potential.

  Species H                   :

  List of atomic basis orbitals and eigenvalues:
    n    l      energy [Ha]    energy [eV]    outer radius [A]
    1    0        -0.237589        -6.4651       4.527807


  Species C                   :

  List of atomic basis orbitals and eigenvalues:
    n    l      energy [Ha]    energy [eV]    outer radius [A]
    1    0       -10.038835      -273.1706       1.934409
    2    0        -0.502696       -13.6791       4.496620
    2    1        -0.191971        -5.2238       4.551928

  Assembling full basis from fixed parts.
  | Species H :   atomic orbital   1 s accepted.
  | Species H :    hydro orbital   2 s accepted.
  | Species H :    hydro orbital   2 p accepted.
  | Species C :   atomic orbital   1 s accepted.
  | Species C :    hydro orbital   2 s accepted.
  | Species C :   atomic orbital   2 s accepted.
  | Species C :   atomic orbital   2 p accepted.
  | Species C :    hydro orbital   2 p accepted.
  | Species C :    hydro orbital   3 d accepted.
 
  Basis size parameters after reduction:
  | Total number of radial functions:        9
  | Total number of basis functions :       96
 
  Per-task memory consumption for arrays in subroutine allocate_ext:
  |           2.209696MB.
  Testing on-site integration grid accuracy.
  |  Species  Function  <phi|h_atom|phi> (log., in eV)  <phi|h_atom|phi> (rad., in eV)
           1        1                 -6.4663192853                 -6.4651273558
           1        2                 13.7111246313                 13.7170609718
           1        3                 25.2673269279                 25.2674696378
           2        4               -273.1705927641               -273.1705631568
           2        5                -10.7109323383                -10.7107120029
           2        6                 17.4381822266                 17.4352413244
           2        7                 -5.2255326521                 -5.2270484734
           2        8                  8.6835629259                  8.6603288385
           2        9                 27.4952418996                 27.4953360207

  Preparing densities etc. for the partition functions (integrals / Hartree potential).

  Preparations completed.
  max(cpu_time)          :      0.128 s.
  Wall clock time (cpu1) :      0.128 s.
------------------------------------------------------------

------------------------------------------------------------
          Begin self-consistency loop: Initialization.

          Date     :  20180215, Time     :  214419.921
------------------------------------------------------------

  Initializing index lists of integration centers etc. from given atomic structure:
  | Number of centers in hartree potential         :        12
  | Number of centers in hartree multipole         :        12
  | Number of centers in electron density summation:        12
  | Number of centers in basis integrals           :        12
  | Number of centers in integrals                 :        12
  | Number of centers in hamiltonian               :        12
  Partitioning the integration grid into batches with parallel hashing+maxmin method.
  | Number of batches:      811
  | Maximal batch size:     141
  | Minimal batch size:      51
  | Average batch size:      75.147
  | Standard deviation of batch sizes:      22.990

  Integration load balanced across     8 MPI tasks.
  Work distribution over tasks is as follows:
  Task     0 has       7660 integration points.
  Task     1 has       7575 integration points.
  Task     2 has       7591 integration points.
  Task     3 has       7646 integration points.
  Task     4 has       7578 integration points.
  Task     5 has       7645 integration points.
  Task     6 has       7627 integration points.
  Task     7 has       7622 integration points.
  Initializing partition tables, free-atom densities, potentials, etc. across the integration grid (initialize_grid_storage).
  | initialize_grid_storage: Actual outermost partition radius vs. multipole_radius_free
  | (-- VB: in principle, multipole_radius_free should be larger, hence this output)
  | Species        1: Confinement radius =              4.999999999999999 AA, multipole_radius_free =              5.054417573612229 AA.
  | Species        1: outer_partition_radius set to              5.054417573612229 AA .
  | Species        2: Confinement radius =              4.999999999999999 AA, multipole_radius_free =              5.019602836301480 AA.
  | Species        2: outer_partition_radius set to              5.019602836301480 AA .
  | Original list of interatomic distances with          12 x         12 entries is created.
  | Net number of integration points:    60944
  | of which are non-zero points    :    52360
  Renormalizing the initial density to the exact electron count on the 3D integration grid.
  | Initial density: Formal number of electrons (from input files) :      32.0000000000
  | Integrated number of electrons on 3D grid     :      31.9999013196
  | Charge integration error                      :      -0.0000986804
  | Normalization factor for density and gradient :       1.0000030838
  Obtaining max. number of non-zero basis functions in each batch (get_n_compute_maxes).
  | Maximal number of non-zero basis functions:       96 in task     0
  | Maximal number of non-zero basis functions:       96 in task     1
  | Maximal number of non-zero basis functions:       96 in task     2
  | Maximal number of non-zero basis functions:       96 in task     3
  | Maximal number of non-zero basis functions:       96 in task     4
  | Maximal number of non-zero basis functions:       96 in task     5
  | Maximal number of non-zero basis functions:       96 in task     6
  | Maximal number of non-zero basis functions:       96 in task     7
  Selecting the method for density update.
  Loop over occupied states selected for charge density update.
  Allocating        0.031 MB for KS_eigenvector
  Integrating Hamiltonian matrix: batch-based integration.
  Time summed over all CPUs for integration: real work        1.317 s, elapsed        1.331 s
  Integrating overlap matrix.
  Time summed over all CPUs for integration: real work        0.498 s, elapsed        0.509 s

  Updating Kohn-Sham eigenvalues, eigenvectors, occupation numbers, and Fermi level.
  Solving generalized eigenproblem
  Updating Kohn-Sham eigenvalues and eigenfunctions.
  Transforming overlap matrix and checking for singularities.
  Overlap matrix is nonsingular:
  | Lowest eigenvalue:  0.345415E-02
  Solving real generalised eigenvalue problem by standard LAPACK (fast)

  Obtaining occupation numbers and chemical potential using ELSI.
  | Chemical potential (Fermi level):    -8.56153741eV
  Writing Kohn-Sham eigenvalues.

  State    Occupation    Eigenvalue [Ha]    Eigenvalue [eV]
      1       2.00000         -10.166228         -276.63713
      2       2.00000         -10.166228         -276.63713
      3       2.00000         -10.150182         -276.20050
      4       2.00000         -10.149576         -276.18402
      5       2.00000          -0.924005          -25.14344
      6       2.00000          -0.853895          -23.23566
      7       2.00000          -0.793647          -21.59623
      8       2.00000          -0.656949          -17.87650
      9       2.00000          -0.607102          -16.52008
     10       2.00000          -0.571928          -15.56296
     11       2.00000          -0.551650          -15.01117
     12       2.00000          -0.531891          -14.47349
     13       2.00000          -0.526365          -14.32313
     14       2.00000          -0.497078          -13.52619
     15       2.00000          -0.483356          -13.15277
     16       2.00000          -0.369554          -10.05609
     17       0.00000          -0.193150           -5.25589
     18       0.00000          -0.044533           -1.21179
     19       0.00000          -0.016611           -0.45201
     20       0.00000          -0.006193           -0.16853
     21       0.00000          -0.000300           -0.00815
     22       0.00000           0.013093            0.35629
     23       0.00000           0.017176            0.46738
     24       0.00000           0.032604            0.88720
     25       0.00000           0.035756            0.97298
     26       0.00000           0.047739            1.29903
     27       0.00000           0.120011            3.26567
     28       0.00000           0.173348            4.71704
     29       0.00000           0.181161            4.92964
     30       0.00000           0.215054            5.85193
     31       0.00000           0.234095            6.37004
     32       0.00000           0.247542            6.73596
     33       0.00000           0.282681            7.69214
     34       0.00000           0.296526            8.06888
     35       0.00000           0.316378            8.60909
     36       0.00000           0.327873            8.92188
     37       0.00000           0.415199           11.29814
     38       0.00000           0.417815           11.36932
     39       0.00000           0.514145           13.99059
     40       0.00000           0.520250           14.15673

  Highest occupied state (VBM) at    -10.05608749 eV
  | Occupation number:      2.00000000

  Lowest unoccupied state (CBM) at    -5.25589071 eV
  | Occupation number:      0.00000000

  Overall HOMO-LUMO gap:      4.80019677 eV.
  Calculating total energy contributions from superposition of free atom densities.

  Total energy components:
  | Sum of eigenvalues            :         -95.99926826 Ha       -2612.27300029 eV
  | XC energy correction          :         -23.65407816 Ha        -643.66021577 eV
  | XC potential correction       :          30.38526040 Ha         826.82500396 eV
  | Free-atom electrostatic energy:         -68.03725734 Ha       -1851.38796979 eV
  | Hartree energy correction     :           0.00000000 Ha           0.00000000 eV
  | vdW energy correction         :           0.00000000 Ha           0.00000000 eV
  | Entropy correction            :           0.00000000 Ha           0.00000000 eV
  | ---------------------------
  | Total energy                  :        -157.30534335 Ha       -4280.49618189 eV
  | Total energy, T -> 0          :        -157.30534335 Ha       -4280.49618189 eV  <-- do not rely on this value for anything but (periodic) metals
  | Electronic free energy        :        -157.30534335 Ha       -4280.49618189 eV

  Derived energy quantities:
  | Kinetic energy                :         154.20240444 Ha        4196.06091794 eV
  | Electrostatic energy          :        -287.85366963 Ha       -7832.89688407 eV
  | Energy correction for multipole
  | error in Hartree potential    :           0.00000000 Ha           0.00000000 eV
  | Sum of eigenvalues per atom                           :        -217.68941669 eV
  | Total energy (T->0) per atom                          :        -356.70801516 eV  <-- do not rely on this value for anything but (periodic) metals
  | Electronic free energy per atom                       :        -356.70801516 eV
  Initialize hartree_potential_storage
  Max. number of atoms included in rho_multipole:           12

  End scf initialization - timings             :  max(cpu_time)    wall_clock(cpu1)
  | Time for scf. initialization               :        0.432 s           0.430 s
  | Boundary condition initialization          :        0.000 s           0.000 s
  | Integration                                :        0.240 s           0.240 s
  | Solution of K.-S. eqns.                    :        0.012 s           0.011 s
  | Grid partitioning                          :        0.076 s           0.074 s
  | Preloading free-atom quantities on grid    :        0.004 s           0.003 s
  | Free-atom superposition energy             :        0.024 s           0.022 s
  | Total energy evaluation                    :        0.000 s           0.001 s

  Partial memory accounting:
  | Current value for overall tracked memory usage on task 0  :           0.179 MB
  | Peak value for overall tracked memory usage on task 0     :           0.506 MB after allocating wave
  | Largest tracked array allocation on task 0 so far         :           0.108 MB  when allocating H_times_psi
  Note:  These values currently only include a subset of arrays which are explicitly tracked.
  The "true" memory usage will be greater.
------------------------------------------------------------

------------------------------------------------------------
          Begin self-consistency iteration #    1

  Date     :  20180215, Time     :  214420.352
------------------------------------------------------------
  Evaluating new KS density.
  Integration grid: deviation in total charge (<rho> - N_e) =   7.105427E-15
  Pulay mixing of updated and previous charge densities.

  Evaluating partitioned Hartree potential by multipole expansion.
  | Analytical far-field extrapolation by fixed multipoles:
  | Hartree multipole sum: apparent total charge =  -0.129790E-03
  Summing up the Hartree potential.
  Time summed over all CPUs for potential: real work        1.284 s, elapsed        1.302 s
  | RMS charge density error from multipole expansion :   0.128897E-02

  Integrating Hamiltonian matrix: batch-based integration.
  Time summed over all CPUs for integration: real work        1.307 s, elapsed        1.326 s

  Updating Kohn-Sham eigenvalues, eigenvectors, occupation numbers, and Fermi level.
  Solving generalized eigenproblem
  Updating Kohn-Sham eigenvalues and eigenfunctions.
  Solving real generalised eigenvalue problem by standard LAPACK (fast)

  Obtaining occupation numbers and chemical potential using ELSI.
  | Chemical potential (Fermi level):    -8.16805013eV
  Writing Kohn-Sham eigenvalues.

  State    Occupation    Eigenvalue [Ha]    Eigenvalue [eV]
      1       2.00000         -10.131672         -275.69682
      2       2.00000         -10.131672         -275.69682
      3       2.00000         -10.120990         -275.40616
      4       2.00000         -10.120384         -275.38967
      5       2.00000          -0.903982          -24.59861
      6       2.00000          -0.835037          -22.72250
      7       2.00000          -0.774431          -21.07333
      8       2.00000          -0.639986          -17.41490
      9       2.00000          -0.590126          -16.05814
     10       2.00000          -0.552019          -15.02120
     11       2.00000          -0.534982          -14.55759
     12       2.00000          -0.515585          -14.02977
     13       2.00000          -0.509483          -13.86374
     14       2.00000          -0.480469          -13.07422
     15       2.00000          -0.466312          -12.68899
     16       2.00000          -0.352646           -9.59599
     17       0.00000          -0.176608           -4.80574
     18       0.00000          -0.035874           -0.97618
     19       0.00000          -0.007842           -0.21339
     20       0.00000           0.002545            0.06926
     21       0.00000           0.013781            0.37499
     22       0.00000           0.022621            0.61555
     23       0.00000           0.029496            0.80263
     24       0.00000           0.042814            1.16503
     25       0.00000           0.046169            1.25632
     26       0.00000           0.059900            1.62996
     27       0.00000           0.132879            3.61583
     28       0.00000           0.183817            5.00192
     29       0.00000           0.192797            5.24628
     30       0.00000           0.225939            6.14811
     31       0.00000           0.246531            6.70844
     32       0.00000           0.257248            7.00008
     33       0.00000           0.298265            8.11621
     34       0.00000           0.306814            8.34882
     35       0.00000           0.327153            8.90228
     36       0.00000           0.339372            9.23477
     37       0.00000           0.426967           11.61836
     38       0.00000           0.429580           11.68946
     39       0.00000           0.527633           14.35764
     40       0.00000           0.533008           14.50388

  Highest occupied state (VBM) at     -9.59599314 eV
  | Occupation number:      2.00000000

  Lowest unoccupied state (CBM) at    -4.80574173 eV
  | Occupation number:      0.00000000

  Overall HOMO-LUMO gap:      4.79025142 eV.

  Total energy components:
  | Sum of eigenvalues            :         -95.31954871 Ha       -2593.77689036 eV
  | XC energy correction          :         -23.71432829 Ha        -645.29970529 eV
  | XC potential correction       :          30.46334931 Ha         828.94991131 eV
  | Free-atom electrostatic energy:         -68.03725734 Ha       -1851.38796979 eV
  | Hartree energy correction     :          -0.64887966 Ha         -17.65691394 eV
  | vdW energy correction         :           0.00000000 Ha           0.00000000 eV
  | Entropy correction            :           0.00000000 Ha           0.00000000 eV
  | ---------------------------
  | Total energy                  :        -157.25666469 Ha       -4279.17156807 eV
  | Total energy, T -> 0          :        -157.25666469 Ha       -4279.17156807 eV  <-- do not rely on this value for anything but (periodic) metals
  | Electronic free energy        :        -157.25666469 Ha       -4279.17156807 eV

  Derived energy quantities:
  | Kinetic energy                :         154.52761209 Ha        4204.91026837 eV
  | Electrostatic energy          :        -288.06994849 Ha       -7838.78213115 eV
  | Energy correction for multipole
  | error in Hartree potential    :           0.00220379 Ha           0.05996820 eV
  | Sum of eigenvalues per atom                           :        -216.14807420 eV
  | Total energy (T->0) per atom                          :        -356.59763067 eV  <-- do not rely on this value for anything but (periodic) metals
  | Electronic free energy per atom                       :        -356.59763067 eV

  Self-consistency convergence accuracy:
  | Change of charge density      :  0.4859E+00
  | Change of sum of eigenvalues  :  0.1850E+02 eV
  | Change of total energy        :  0.1325E+01 eV

  End self-consistency iteration #     1       :  max(cpu_time)    wall_clock(cpu1)
  | Time for this iteration                    :        0.528 s           0.527 s
  | Charge density update                      :        0.172 s           0.169 s
  | Density mixing                             :        0.004 s           0.001 s
  | Hartree multipole update                   :        0.012 s           0.011 s
  | Hartree multipole summation                :        0.168 s           0.169 s
  | Integration                                :        0.172 s           0.173 s
  | Solution of K.-S. eqns.                    :        0.004 s           0.002 s
  | Total energy evaluation                    :        0.000 s           0.001 s

  Partial memory accounting:
  | Current value for overall tracked memory usage on task 0  :           0.179 MB
  | Peak value for overall tracked memory usage on task 0     :           0.612 MB after allocating gradient_basis_wave
  | Largest tracked array allocation on task 0 so far         :           0.325 MB  when allocating gradient_basis_wave
  Note:  These values currently only include a subset of arrays which are explicitly tracked.
  The "true" memory usage will be greater.
------------------------------------------------------------

------------------------------------------------------------
          Begin self-consistency iteration #    2

  Date     :  20180215, Time     :  214420.880
------------------------------------------------------------
  Evaluating new KS density.
  Integration grid: deviation in total charge (<rho> - N_e) =   2.131628E-14
  Pulay mixing of updated and previous charge densities.

  Evaluating partitioned Hartree potential by multipole expansion.
  | Analytical far-field extrapolation by fixed multipoles:
  | Hartree multipole sum: apparent total charge =  -0.401537E-03
  Summing up the Hartree potential.
  Time summed over all CPUs for potential: real work        1.274 s, elapsed        1.283 s
  | RMS charge density error from multipole expansion :   0.126343E-01

  Integrating Hamiltonian matrix: batch-based integration.
  Time summed over all CPUs for integration: real work        1.307 s, elapsed        1.328 s

  Updating Kohn-Sham eigenvalues, eigenvectors, occupation numbers, and Fermi level.
  Solving generalized eigenproblem
  Updating Kohn-Sham eigenvalues and eigenfunctions.
  Solving real generalised eigenvalue problem by standard LAPACK (fast)

  Obtaining occupation numbers and chemical potential using ELSI.
  | Chemical potential (Fermi level):    -4.69684866eV
  Highest occupied state (VBM) at     -5.82019759 eV
  | Occupation number:      2.00000000

  Lowest unoccupied state (CBM) at    -1.14936164 eV
  | Occupation number:      0.00000000

  Overall HOMO-LUMO gap:      4.67083594 eV.

  Checking to see if s.c.f. parameters should be adjusted.
  The system likely has a gap. Increased the default Pulay mixing parameter (charge_mix_param). Value:   0.200000 .
  Kept the default occupation width. Value:   0.010000 eV.

  Total energy components:
  | Sum of eigenvalues            :         -89.66453273 Ha       -2439.89607625 eV
  | XC energy correction          :         -24.26678218 Ha        -660.33274047 eV
  | XC potential correction       :          31.17904251 Ha         848.42491398 eV
  | Free-atom electrostatic energy:         -68.03725734 Ha       -1851.38796979 eV
  | Hartree energy correction     :          -6.26749409 Ha        -170.54719155 eV
  | vdW energy correction         :           0.00000000 Ha           0.00000000 eV
  | Entropy correction            :           0.00000000 Ha           0.00000000 eV
  | ---------------------------
  | Total energy                  :        -157.05702384 Ha       -4273.73906409 eV
  | Total energy, T -> 0          :        -157.05702384 Ha       -4273.73906409 eV  <-- do not rely on this value for anything but (periodic) metals
  | Electronic free energy        :        -157.05702384 Ha       -4273.73906409 eV

  Derived energy quantities:
  | Kinetic energy                :         156.91906028 Ha        4269.98488470 eV
  | Electrostatic energy          :        -289.70930194 Ha       -7883.39120832 eV
  | Energy correction for multipole
  | error in Hartree potential    :           0.02078895 Ha           0.56569617 eV
  | Sum of eigenvalues per atom                           :        -203.32467302 eV
  | Total energy (T->0) per atom                          :        -356.14492201 eV  <-- do not rely on this value for anything but (periodic) metals
  | Electronic free energy per atom                       :        -356.14492201 eV

  Self-consistency convergence accuracy:
  | Change of charge density      :  0.4470E+00
  | Change of sum of eigenvalues  :  0.1539E+03 eV
  | Change of total energy        :  0.5433E+01 eV

  End self-consistency iteration #     2       :  max(cpu_time)    wall_clock(cpu1)
  | Time for this iteration                    :        0.524 s           0.521 s
  | Charge density update                      :        0.168 s           0.165 s
  | Density mixing                             :        0.004 s           0.003 s
  | Hartree multipole update                   :        0.012 s           0.010 s
  | Hartree multipole summation                :        0.168 s           0.167 s
  | Integration                                :        0.176 s           0.173 s
  | Solution of K.-S. eqns.                    :        0.004 s           0.002 s
  | Total energy evaluation                    :        0.000 s           0.001 s

  Partial memory accounting:
  | Current value for overall tracked memory usage on task 0  :           0.180 MB
  | Peak value for overall tracked memory usage on task 0     :           0.612 MB after allocating gradient_basis_wave
  | Largest tracked array allocation on task 0 so far         :           0.325 MB  when allocating gradient_basis_wave
  Note:  These values currently only include a subset of arrays which are explicitly tracked.
  The "true" memory usage will be greater.
------------------------------------------------------------

------------------------------------------------------------
          Begin self-consistency iteration #    3

  Date     :  20180215, Time     :  214421.402
------------------------------------------------------------
  Evaluating new KS density.
  Integration grid: deviation in total charge (<rho> - N_e) =   0.000000E+00
  Pulay mixing of updated and previous charge densities.

  Evaluating partitioned Hartree potential by multipole expansion.
  | Analytical far-field extrapolation by fixed multipoles:
  | Hartree multipole sum: apparent total charge =  -0.399675E-03
  Summing up the Hartree potential.
  Time summed over all CPUs for potential: real work        1.270 s, elapsed        1.282 s
  | RMS charge density error from multipole expansion :   0.157565E-01

  Integrating Hamiltonian matrix: batch-based integration.
  Time summed over all CPUs for integration: real work        1.303 s, elapsed        1.316 s

  Updating Kohn-Sham eigenvalues, eigenvectors, occupation numbers, and Fermi level.
  Solving generalized eigenproblem
  Updating Kohn-Sham eigenvalues and eigenfunctions.
  Solving real generalised eigenvalue problem by standard LAPACK (fast)

  Obtaining occupation numbers and chemical potential using ELSI.
  | Chemical potential (Fermi level):    -5.17453643eV
  Highest occupied state (VBM) at     -6.43979063 eV
  | Occupation number:      2.00000000

  Lowest unoccupied state (CBM) at    -1.76746341 eV
  | Occupation number:      0.00000000

  Overall HOMO-LUMO gap:      4.67232722 eV.

  Total energy components:
  | Sum of eigenvalues            :         -90.60154047 Ha       -2465.39335414 eV
  | XC energy correction          :         -24.22448505 Ha        -659.18177705 eV
  | XC potential correction       :          31.12066566 Ha         846.83639915 eV
  | Free-atom electrostatic energy:         -68.03725734 Ha       -1851.38796979 eV
  | Hartree energy correction     :          -5.30869496 Ha        -144.45693979 eV
  | vdW energy correction         :           0.00000000 Ha           0.00000000 eV
  | Entropy correction            :           0.00000000 Ha           0.00000000 eV
  | ---------------------------
  | Total energy                  :        -157.05131217 Ha       -4273.58364162 eV
  | Total energy, T -> 0          :        -157.05131217 Ha       -4273.58364162 eV  <-- do not rely on this value for anything but (periodic) metals
  | Electronic free energy        :        -157.05131217 Ha       -4273.58364162 eV

  Derived energy quantities:
  | Kinetic energy                :         156.26752418 Ha        4252.25568519 eV
  | Electrostatic energy          :        -289.09435129 Ha       -7866.65754976 eV
  | Energy correction for multipole
  | error in Hartree potential    :           0.02489248 Ha           0.67735897 eV
  | Sum of eigenvalues per atom                           :        -205.44944618 eV
  | Total energy (T->0) per atom                          :        -356.13197013 eV  <-- do not rely on this value for anything but (periodic) metals
  | Electronic free energy per atom                       :        -356.13197013 eV

  Self-consistency convergence accuracy:
  | Change of charge density      :  0.2098E+00
  | Change of sum of eigenvalues  : -0.2550E+02 eV
  | Change of total energy        :  0.1554E+00 eV

  End self-consistency iteration #     3       :  max(cpu_time)    wall_clock(cpu1)
  | Time for this iteration                    :        0.528 s           0.528 s
  | Charge density update                      :        0.168 s           0.167 s
  | Density mixing                             :        0.008 s           0.005 s
  | Hartree multipole update                   :        0.016 s           0.014 s
  | Hartree multipole summation                :        0.168 s           0.167 s
  | Integration                                :        0.172 s           0.171 s
  | Solution of K.-S. eqns.                    :        0.004 s           0.002 s
  | Total energy evaluation                    :        0.000 s           0.000 s

  Partial memory accounting:
  | Current value for overall tracked memory usage on task 0  :           0.180 MB
  | Peak value for overall tracked memory usage on task 0     :           0.613 MB after allocating gradient_basis_wave
  | Largest tracked array allocation on task 0 so far         :           0.325 MB  when allocating gradient_basis_wave
  Note:  These values currently only include a subset of arrays which are explicitly tracked.
  The "true" memory usage will be greater.
------------------------------------------------------------

------------------------------------------------------------
          Begin self-consistency iteration #    4

  Date     :  20180215, Time     :  214421.930
------------------------------------------------------------
  Evaluating new KS density.
  Integration grid: deviation in total charge (<rho> - N_e) =   7.105427E-15
  Pulay mixing of updated and previous charge densities.

  Evaluating partitioned Hartree potential by multipole expansion.
  | Analytical far-field extrapolation by fixed multipoles:
  | Hartree multipole sum: apparent total charge =  -0.481976E-03
  Summing up the Hartree potential.
  Time summed over all CPUs for potential: real work        1.279 s, elapsed        1.304 s
  | RMS charge density error from multipole expansion :   0.212979E-01

  Integrating Hamiltonian matrix: batch-based integration.
  Time summed over all CPUs for integration: real work        1.305 s, elapsed        1.324 s

  Updating Kohn-Sham eigenvalues, eigenvectors, occupation numbers, and Fermi level.
  Solving generalized eigenproblem
  Updating Kohn-Sham eigenvalues and eigenfunctions.
  Solving real generalised eigenvalue problem by standard LAPACK (fast)

  Obtaining occupation numbers and chemical potential using ELSI.
  | Chemical potential (Fermi level):    -4.44941082eV
  Highest occupied state (VBM) at     -5.78427860 eV
  | Occupation number:      2.00000000

  Lowest unoccupied state (CBM) at    -1.15267461 eV
  | Occupation number:      0.00000000

  Overall HOMO-LUMO gap:      4.63160399 eV.

  Total energy components:
  | Sum of eigenvalues            :         -89.69248112 Ha       -2440.65659058 eV
  | XC energy correction          :         -24.36203813 Ha        -662.92478674 eV
  | XC potential correction       :          31.29661105 Ha         851.62411682 eV
  | Free-atom electrostatic energy:         -68.03725734 Ha       -1851.38796979 eV
  | Hartree energy correction     :          -6.24562556 Ha        -169.95211860 eV
  | vdW energy correction         :           0.00000000 Ha           0.00000000 eV
  | Entropy correction            :           0.00000000 Ha           0.00000000 eV
  | ---------------------------
  | Total energy                  :        -157.04079110 Ha       -4273.29734889 eV
  | Total energy, T -> 0          :        -157.04079110 Ha       -4273.29734889 eV  <-- do not rely on this value for anything but (periodic) metals
  | Electronic free energy        :        -157.04079110 Ha       -4273.29734889 eV

  Derived energy quantities:
  | Kinetic energy                :         156.33891983 Ha        4254.19845978 eV
  | Electrostatic energy          :        -289.01767280 Ha       -7864.57102193 eV
  | Energy correction for multipole
  | error in Hartree potential    :           0.03199589 Ha           0.87065241 eV
  | Sum of eigenvalues per atom                           :        -203.38804921 eV
  | Total energy (T->0) per atom                          :        -356.10811241 eV  <-- do not rely on this value for anything but (periodic) metals
  | Electronic free energy per atom                       :        -356.10811241 eV

  Self-consistency convergence accuracy:
  | Change of charge density      :  0.1263E+00
  | Change of sum of eigenvalues  :  0.2474E+02 eV
  | Change of total energy        :  0.2863E+00 eV

  End self-consistency iteration #     4       :  max(cpu_time)    wall_clock(cpu1)
  | Time for this iteration                    :        0.528 s           0.525 s
  | Charge density update                      :        0.164 s           0.163 s
  | Density mixing                             :        0.008 s           0.006 s
  | Hartree multipole update                   :        0.012 s           0.011 s
  | Hartree multipole summation                :        0.172 s           0.169 s
  | Integration                                :        0.176 s           0.173 s
  | Solution of K.-S. eqns.                    :        0.004 s           0.002 s
  | Total energy evaluation                    :        0.000 s           0.001 s

  Partial memory accounting:
  | Current value for overall tracked memory usage on task 0  :           0.180 MB
  | Peak value for overall tracked memory usage on task 0     :           0.613 MB after allocating gradient_basis_wave
  | Largest tracked array allocation on task 0 so far         :           0.325 MB  when allocating gradient_basis_wave
  Note:  These values currently only include a subset of arrays which are explicitly tracked.
  The "true" memory usage will be greater.
------------------------------------------------------------

------------------------------------------------------------
          Begin self-consistency iteration #    5

  Date     :  20180215, Time     :  214422.457
------------------------------------------------------------
  Evaluating new KS density.
  Integration grid: deviation in total charge (<rho> - N_e) =  -2.486900E-14
  Pulay mixing of updated and previous charge densities.

  Evaluating partitioned Hartree potential by multipole expansion.
  | Analytical far-field extrapolation by fixed multipoles:
  | Hartree multipole sum: apparent total charge =  -0.511439E-03
  Summing up the Hartree potential.
  Time summed over all CPUs for potential: real work        1.272 s, elapsed        1.281 s
  | RMS charge density error from multipole expansion :   0.220128E-01

  Integrating Hamiltonian matrix: batch-based integration.
  Time summed over all CPUs for integration: real work        1.309 s, elapsed        1.323 s

  Updating Kohn-Sham eigenvalues, eigenvectors, occupation numbers, and Fermi level.
  Solving generalized eigenproblem
  Updating Kohn-Sham eigenvalues and eigenfunctions.
  Solving real generalised eigenvalue problem by standard LAPACK (fast)

  Obtaining occupation numbers and chemical potential using ELSI.
  | Chemical potential (Fermi level):    -4.22623205eV
  Highest occupied state (VBM) at     -5.52697320 eV
  | Occupation number:      2.00000000

  Lowest unoccupied state (CBM) at    -0.89703123 eV
  | Occupation number:      0.00000000

  Overall HOMO-LUMO gap:      4.62994197 eV.

  Total energy components:
  | Sum of eigenvalues            :         -89.42261770 Ha       -2433.31323328 eV
  | XC energy correction          :         -24.38542315 Ha        -663.56112552 eV
  | XC potential correction       :          31.32696881 Ha         852.45019362 eV
  | Free-atom electrostatic energy:         -68.03725734 Ha       -1851.38796979 eV
  | Hartree energy correction     :          -6.52115942 Ha        -177.44977627 eV
  | vdW energy correction         :           0.00000000 Ha           0.00000000 eV
  | Entropy correction            :           0.00000000 Ha           0.00000000 eV
  | ---------------------------
  | Total energy                  :        -157.03948879 Ha       -4273.26191124 eV
  | Total energy, T -> 0          :        -157.03948879 Ha       -4273.26191124 eV  <-- do not rely on this value for anything but (periodic) metals
  | Electronic free energy        :        -157.03948879 Ha       -4273.26191124 eV

  Derived energy quantities:
  | Kinetic energy                :         156.31221530 Ha        4253.47179254 eV
  | Electrostatic energy          :        -288.96628094 Ha       -7863.17257826 eV
  | Energy correction for multipole
  | error in Hartree potential    :           0.03154364 Ha           0.85834611 eV
  | Sum of eigenvalues per atom                           :        -202.77610277 eV
  | Total energy (T->0) per atom                          :        -356.10515927 eV  <-- do not rely on this value for anything but (periodic) metals
  | Electronic free energy per atom                       :        -356.10515927 eV

  Self-consistency convergence accuracy:
  | Change of charge density      :  0.3340E-01
  | Change of sum of eigenvalues  :  0.7343E+01 eV
  | Change of total energy        :  0.3544E-01 eV

  End self-consistency iteration #     5       :  max(cpu_time)    wall_clock(cpu1)
  | Time for this iteration                    :        0.528 s           0.527 s
  | Charge density update                      :        0.168 s           0.167 s
  | Density mixing                             :        0.008 s           0.008 s
  | Hartree multipole update                   :        0.012 s           0.010 s
  | Hartree multipole summation                :        0.168 s           0.167 s
  | Integration                                :        0.172 s           0.172 s
  | Solution of K.-S. eqns.                    :        0.004 s           0.002 s
  | Total energy evaluation                    :        0.004 s           0.001 s

  Partial memory accounting:
  | Current value for overall tracked memory usage on task 0  :           0.180 MB
  | Peak value for overall tracked memory usage on task 0     :           0.613 MB after allocating gradient_basis_wave
  | Largest tracked array allocation on task 0 so far         :           0.325 MB  when allocating gradient_basis_wave
  Note:  These values currently only include a subset of arrays which are explicitly tracked.
  The "true" memory usage will be greater.
------------------------------------------------------------

------------------------------------------------------------
          Begin self-consistency iteration #    6

  Date     :  20180215, Time     :  214422.985
------------------------------------------------------------
  Evaluating new KS density.
  Integration grid: deviation in total charge (<rho> - N_e) =   1.421085E-14
  Pulay mixing of updated and previous charge densities.

  Evaluating partitioned Hartree potential by multipole expansion.
  | Analytical far-field extrapolation by fixed multipoles:
  | Hartree multipole sum: apparent total charge =  -0.529417E-03
  Summing up the Hartree potential.
  Time summed over all CPUs for potential: real work        1.278 s, elapsed        1.299 s
  | RMS charge density error from multipole expansion :   0.222953E-01

  Integrating Hamiltonian matrix: batch-based integration.
  Time summed over all CPUs for integration: real work        1.303 s, elapsed        1.326 s

  Updating Kohn-Sham eigenvalues, eigenvectors, occupation numbers, and Fermi level.
  Solving generalized eigenproblem
  Updating Kohn-Sham eigenvalues and eigenfunctions.
  Solving real generalised eigenvalue problem by standard LAPACK (fast)

  Obtaining occupation numbers and chemical potential using ELSI.
  | Chemical potential (Fermi level):    -4.15667452eV
  Highest occupied state (VBM) at     -5.45088300 eV
  | Occupation number:      2.00000000

  Lowest unoccupied state (CBM) at    -0.82185490 eV
  | Occupation number:      0.00000000

  Overall HOMO-LUMO gap:      4.62902810 eV.

  Total energy components:
  | Sum of eigenvalues            :         -89.33319207 Ha       -2430.87983813 eV
  | XC energy correction          :         -24.39507786 Ha        -663.82384355 eV
  | XC potential correction       :          31.33949836 Ha         852.79113984 eV
  | Free-atom electrostatic energy:         -68.03725734 Ha       -1851.38796979 eV
  | Hartree energy correction     :          -6.61324598 Ha        -179.95557923 eV
  | vdW energy correction         :           0.00000000 Ha           0.00000000 eV
  | Entropy correction            :           0.00000000 Ha           0.00000000 eV
  | ---------------------------
  | Total energy                  :        -157.03927490 Ha       -4273.25609086 eV
  | Total energy, T -> 0          :        -157.03927490 Ha       -4273.25609086 eV  <-- do not rely on this value for anything but (periodic) metals
  | Electronic free energy        :        -157.03927490 Ha       -4273.25609086 eV

  Derived energy quantities:
  | Kinetic energy                :         156.26875942 Ha        4252.28929780 eV
  | Electrostatic energy          :        -288.91295645 Ha       -7861.72154511 eV
  | Energy correction for multipole
  | error in Hartree potential    :           0.03078395 Ha           0.83767378 eV
  | Sum of eigenvalues per atom                           :        -202.57331984 eV
  | Total energy (T->0) per atom                          :        -356.10467424 eV  <-- do not rely on this value for anything but (periodic) metals
  | Electronic free energy per atom                       :        -356.10467424 eV

  Self-consistency convergence accuracy:
  | Change of charge density      :  0.1527E-01
  | Change of sum of eigenvalues  :  0.2433E+01 eV
  | Change of total energy        :  0.5820E-02 eV

  End self-consistency iteration #     6       :  max(cpu_time)    wall_clock(cpu1)
  | Time for this iteration                    :        0.532 s           0.530 s
  | Charge density update                      :        0.168 s           0.165 s
  | Density mixing                             :        0.012 s           0.009 s
  | Hartree multipole update                   :        0.012 s           0.011 s
  | Hartree multipole summation                :        0.168 s           0.169 s
  | Integration                                :        0.176 s           0.172 s
  | Solution of K.-S. eqns.                    :        0.004 s           0.002 s
  | Total energy evaluation                    :        0.000 s           0.000 s

  Partial memory accounting:
  | Current value for overall tracked memory usage on task 0  :           0.180 MB
  | Peak value for overall tracked memory usage on task 0     :           0.613 MB after allocating gradient_basis_wave
  | Largest tracked array allocation on task 0 so far         :           0.325 MB  when allocating gradient_basis_wave
  Note:  These values currently only include a subset of arrays which are explicitly tracked.
  The "true" memory usage will be greater.
------------------------------------------------------------

------------------------------------------------------------
          Begin self-consistency iteration #    7

  Date     :  20180215, Time     :  214423.516
------------------------------------------------------------
  Evaluating new KS density.
  Integration grid: deviation in total charge (<rho> - N_e) =   2.131628E-14
  Pulay mixing of updated and previous charge densities.

  Evaluating partitioned Hartree potential by multipole expansion.
  | Analytical far-field extrapolation by fixed multipoles:
  | Hartree multipole sum: apparent total charge =  -0.532787E-03
  Summing up the Hartree potential.
  Time summed over all CPUs for potential: real work        1.279 s, elapsed        1.291 s
  | RMS charge density error from multipole expansion :   0.222799E-01

  Integrating Hamiltonian matrix: batch-based integration.
  Time summed over all CPUs for integration: real work        1.300 s, elapsed        1.316 s

  Updating Kohn-Sham eigenvalues, eigenvectors, occupation numbers, and Fermi level.
  Solving generalized eigenproblem
  Updating Kohn-Sham eigenvalues and eigenfunctions.
  Solving real generalised eigenvalue problem by standard LAPACK (fast)

  Obtaining occupation numbers and chemical potential using ELSI.
  | Chemical potential (Fermi level):    -4.13688205eV
  Highest occupied state (VBM) at     -5.42609531 eV
  | Occupation number:      2.00000000

  Lowest unoccupied state (CBM) at    -0.79729897 eV
  | Occupation number:      0.00000000

  Overall HOMO-LUMO gap:      4.62879634 eV.

  Total energy components:
  | Sum of eigenvalues            :         -89.30702808 Ha       -2430.16787956 eV
  | XC energy correction          :         -24.39671172 Ha        -663.86830313 eV
  | XC potential correction       :          31.34167583 Ha         852.85039187 eV
  | Free-atom electrostatic energy:         -68.03725734 Ha       -1851.38796979 eV
  | Hartree energy correction     :          -6.63991337 Ha        -180.68123566 eV
  | vdW energy correction         :           0.00000000 Ha           0.00000000 eV
  | Entropy correction            :           0.00000000 Ha           0.00000000 eV
  | ---------------------------
  | Total energy                  :        -157.03923467 Ha       -4273.25499628 eV
  | Total energy, T -> 0          :        -157.03923467 Ha       -4273.25499628 eV  <-- do not rely on this value for anything but (periodic) metals
  | Electronic free energy        :        -157.03923467 Ha       -4273.25499628 eV

  Derived energy quantities:
  | Kinetic energy                :         156.26789030 Ha        4252.26564786 eV
  | Electrostatic energy          :        -288.91041325 Ha       -7861.65234101 eV
  | Energy correction for multipole
  | error in Hartree potential    :           0.03054201 Ha           0.83109033 eV
  | Sum of eigenvalues per atom                           :        -202.51398996 eV
  | Total energy (T->0) per atom                          :        -356.10458302 eV  <-- do not rely on this value for anything but (periodic) metals
  | Electronic free energy per atom                       :        -356.10458302 eV

  Self-consistency convergence accuracy:
  | Change of charge density      :  0.6835E-02
  | Change of sum of eigenvalues  :  0.7120E+00 eV
  | Change of total energy        :  0.1095E-02 eV

  End self-consistency iteration #     7       :  max(cpu_time)    wall_clock(cpu1)
  | Time for this iteration                    :        0.532 s           0.531 s
  | Charge density update                      :        0.168 s           0.167 s
  | Density mixing                             :        0.012 s           0.011 s
  | Hartree multipole update                   :        0.012 s           0.010 s
  | Hartree multipole summation                :        0.168 s           0.168 s
  | Integration                                :        0.172 s           0.171 s
  | Solution of K.-S. eqns.                    :        0.004 s           0.003 s
  | Total energy evaluation                    :        0.000 s           0.001 s

  Partial memory accounting:
  | Current value for overall tracked memory usage on task 0  :           0.180 MB
  | Peak value for overall tracked memory usage on task 0     :           0.613 MB after allocating gradient_basis_wave
  | Largest tracked array allocation on task 0 so far         :           0.325 MB  when allocating gradient_basis_wave
  Note:  These values currently only include a subset of arrays which are explicitly tracked.
  The "true" memory usage will be greater.
------------------------------------------------------------

------------------------------------------------------------
          Begin self-consistency iteration #    8

  Date     :  20180215, Time     :  214424.048
------------------------------------------------------------
  Evaluating new KS density.
  Integration grid: deviation in total charge (<rho> - N_e) =  -1.776357E-14
  Pulay mixing of updated and previous charge densities.

  Evaluating partitioned Hartree potential by multipole expansion.
  | Analytical far-field extrapolation by fixed multipoles:
  | Hartree multipole sum: apparent total charge =  -0.541979E-03
  Summing up the Hartree potential.
  Time summed over all CPUs for potential: real work        1.272 s, elapsed        1.283 s
  | RMS charge density error from multipole expansion :   0.223304E-01

  Integrating Hamiltonian matrix: batch-based integration.
  Time summed over all CPUs for integration: real work        1.323 s, elapsed        1.348 s

  Updating Kohn-Sham eigenvalues, eigenvectors, occupation numbers, and Fermi level.
  Solving generalized eigenproblem
  Updating Kohn-Sham eigenvalues and eigenfunctions.
  Solving real generalised eigenvalue problem by standard LAPACK (fast)

  Obtaining occupation numbers and chemical potential using ELSI.
  | Chemical potential (Fermi level):    -4.08097862eV
  Highest occupied state (VBM) at     -5.36052217 eV
  | Occupation number:      2.00000000

  Lowest unoccupied state (CBM) at    -0.73422318 eV
  | Occupation number:      0.00000000

  Overall HOMO-LUMO gap:      4.62629899 eV.

  Total energy components:
  | Sum of eigenvalues            :         -89.23803563 Ha       -2428.29049958 eV
  | XC energy correction          :         -24.40310528 Ha        -664.04228074 eV
  | XC potential correction       :          31.35004869 Ha         853.07822896 eV
  | Free-atom electrostatic energy:         -68.03725734 Ha       -1851.38796979 eV
  | Hartree energy correction     :          -6.71083602 Ha        -182.61113915 eV
  | vdW energy correction         :           0.00000000 Ha           0.00000000 eV
  | Entropy correction            :           0.00000000 Ha           0.00000000 eV
  | ---------------------------
  | Total energy                  :        -157.03918558 Ha       -4273.25366029 eV
  | Total energy, T -> 0          :        -157.03918558 Ha       -4273.25366029 eV  <-- do not rely on this value for anything but (periodic) metals
  | Electronic free energy        :        -157.03918558 Ha       -4273.25366029 eV

  Derived energy quantities:
  | Kinetic energy                :         156.26814428 Ha        4252.27255898 eV
  | Electrostatic energy          :        -288.90422457 Ha       -7861.48393853 eV
  | Energy correction for multipole
  | error in Hartree potential    :           0.03011017 Ha           0.81933936 eV
  | Sum of eigenvalues per atom                           :        -202.35754163 eV
  | Total energy (T->0) per atom                          :        -356.10447169 eV  <-- do not rely on this value for anything but (periodic) metals
  | Electronic free energy per atom                       :        -356.10447169 eV

  Self-consistency convergence accuracy:
  | Change of charge density      :  0.5366E-02
  | Change of sum of eigenvalues  :  0.1877E+01 eV
  | Change of total energy        :  0.1336E-02 eV

  End self-consistency iteration #     8       :  max(cpu_time)    wall_clock(cpu1)
  | Time for this iteration                    :        0.536 s           0.538 s
  | Charge density update                      :        0.168 s           0.165 s
  | Density mixing                             :        0.012 s           0.012 s
  | Hartree multipole update                   :        0.012 s           0.011 s
  | Hartree multipole summation                :        0.168 s           0.167 s
  | Integration                                :        0.176 s           0.175 s
  | Solution of K.-S. eqns.                    :        0.004 s           0.002 s
  | Total energy evaluation                    :        0.000 s           0.001 s

  Partial memory accounting:
  | Current value for overall tracked memory usage on task 0  :           0.180 MB
  | Peak value for overall tracked memory usage on task 0     :           0.613 MB after allocating gradient_basis_wave
  | Largest tracked array allocation on task 0 so far         :           0.325 MB  when allocating gradient_basis_wave
  Note:  These values currently only include a subset of arrays which are explicitly tracked.
  The "true" memory usage will be greater.
------------------------------------------------------------

------------------------------------------------------------
          Begin self-consistency iteration #    9

  Date     :  20180215, Time     :  214424.587
------------------------------------------------------------
  Evaluating new KS density.
  Integration grid: deviation in total charge (<rho> - N_e) =   7.105427E-15
  Pulay mixing of updated and previous charge densities.

  Evaluating partitioned Hartree potential by multipole expansion.
  | Analytical far-field extrapolation by fixed multipoles:
  | Hartree multipole sum: apparent total charge =  -0.544130E-03
  Summing up the Hartree potential.
  Time summed over all CPUs for potential: real work        1.277 s, elapsed        1.285 s
  | RMS charge density error from multipole expansion :   0.223425E-01

  Integrating Hamiltonian matrix: batch-based integration.
  Time summed over all CPUs for integration: real work        1.315 s, elapsed        1.328 s

  Updating Kohn-Sham eigenvalues, eigenvectors, occupation numbers, and Fermi level.
  Solving generalized eigenproblem
  Updating Kohn-Sham eigenvalues and eigenfunctions.
  Solving real generalised eigenvalue problem by standard LAPACK (fast)

  Obtaining occupation numbers and chemical potential using ELSI.
  | Chemical potential (Fermi level):    -4.06747889eV
  Highest occupied state (VBM) at     -5.34575256 eV
  | Occupation number:      2.00000000

  Lowest unoccupied state (CBM) at    -0.72010401 eV
  | Occupation number:      0.00000000

  Overall HOMO-LUMO gap:      4.62564855 eV.

  Total energy components:
  | Sum of eigenvalues            :         -89.22073278 Ha       -2427.81966491 eV
  | XC energy correction          :         -24.40493481 Ha        -664.09206470 eV
  | XC potential correction       :          31.35243430 Ha         853.14314484 eV
  | Free-atom electrostatic energy:         -68.03725734 Ha       -1851.38796979 eV
  | Hartree energy correction     :          -6.72869339 Ha        -183.09706294 eV
  | vdW energy correction         :           0.00000000 Ha           0.00000000 eV
  | Entropy correction            :           0.00000000 Ha           0.00000000 eV
  | ---------------------------
  | Total energy                  :        -157.03918400 Ha       -4273.25361750 eV
  | Total energy, T -> 0          :        -157.03918400 Ha       -4273.25361750 eV  <-- do not rely on this value for anything but (periodic) metals
  | Electronic free energy        :        -157.03918400 Ha       -4273.25361750 eV

  Derived energy quantities:
  | Kinetic energy                :         156.27091860 Ha        4252.34805217 eV
  | Electrostatic energy          :        -288.90516780 Ha       -7861.50960496 eV
  | Energy correction for multipole
  | error in Hartree potential    :           0.03003398 Ha           0.81726609 eV
  | Sum of eigenvalues per atom                           :        -202.31830541 eV
  | Total energy (T->0) per atom                          :        -356.10446812 eV  <-- do not rely on this value for anything but (periodic) metals
  | Electronic free energy per atom                       :        -356.10446812 eV

  Self-consistency convergence accuracy:
  | Change of charge density      :  0.1133E-02
  | Change of sum of eigenvalues  :  0.4708E+00 eV
  | Change of total energy        :  0.4280E-04 eV

  End self-consistency iteration #     9       :  max(cpu_time)    wall_clock(cpu1)
  | Time for this iteration                    :        0.536 s           0.532 s
  | Charge density update                      :        0.168 s           0.166 s
  | Density mixing                             :        0.016 s           0.013 s
  | Hartree multipole update                   :        0.012 s           0.011 s
  | Hartree multipole summation                :        0.168 s           0.167 s
  | Integration                                :        0.176 s           0.173 s
  | Solution of K.-S. eqns.                    :        0.004 s           0.002 s
  | Total energy evaluation                    :        0.000 s           0.000 s

  Partial memory accounting:
  | Current value for overall tracked memory usage on task 0  :           0.180 MB
  | Peak value for overall tracked memory usage on task 0     :           0.613 MB after allocating gradient_basis_wave
  | Largest tracked array allocation on task 0 so far         :           0.325 MB  when allocating gradient_basis_wave
  Note:  These values currently only include a subset of arrays which are explicitly tracked.
  The "true" memory usage will be greater.
------------------------------------------------------------

------------------------------------------------------------
          Begin self-consistency iteration #   10

  Date     :  20180215, Time     :  214425.119
------------------------------------------------------------
  Evaluating new KS density.
  Integration grid: deviation in total charge (<rho> - N_e) =   0.000000E+00
  Pulay mixing of updated and previous charge densities.

  Evaluating partitioned Hartree potential by multipole expansion.
  | Analytical far-field extrapolation by fixed multipoles:
  | Hartree multipole sum: apparent total charge =  -0.544085E-03
  Summing up the Hartree potential.
  Time summed over all CPUs for potential: real work        1.275 s, elapsed        1.294 s
  | RMS charge density error from multipole expansion :   0.223436E-01

  Integrating Hamiltonian matrix: batch-based integration.
  Time summed over all CPUs for integration: real work        1.317 s, elapsed        1.342 s

[...]
  |   Hirshfeld dipole moment :      0.08919834
  |   Hirshfeld second moments:      0.10485890      -0.00646046      -0.00339188
  |                                 -0.00646046       0.08946259       0.00518111
  |                                 -0.00339188       0.00518111       0.10528694
  ----------------------------------------------------------------------
  | Atom     8: H
  |   Hirshfeld charge        :      0.03436396
  |   Free atom volume        :      9.95071624
  |   Hirshfeld volume        :      6.42874521
  |   Hirshfeld dipole vector :     -0.04600124       0.00313191       0.07740238
  |   Hirshfeld dipole moment :      0.09009468
  |   Hirshfeld second moments:      0.09896383      -0.00110616       0.00855288
  |                                 -0.00110616       0.09538647       0.00101876
  |                                  0.00855288       0.00101876       0.09152307
  ----------------------------------------------------------------------
  | Atom     9: H
  |   Hirshfeld charge        :      0.03436396
  |   Free atom volume        :      9.95071624
  |   Hirshfeld volume        :      6.42874521
  |   Hirshfeld dipole vector :      0.04600124      -0.00313190       0.07740238
  |   Hirshfeld dipole moment :      0.09009468
  |   Hirshfeld second moments:      0.09896383      -0.00110616      -0.00855288
  |                                 -0.00110616       0.09538647      -0.00101876
  |                                 -0.00855288      -0.00101876       0.09152307
  ----------------------------------------------------------------------
  | Atom    10: H
  |   Hirshfeld charge        :      0.04201128
  |   Free atom volume        :      9.95071624
  |   Hirshfeld volume        :      6.28303565
  |   Hirshfeld dipole vector :     -0.04187168       0.01643409      -0.07605475
  |   Hirshfeld dipole moment :      0.08836086
  |   Hirshfeld second moments:      0.09862302      -0.00197017      -0.00680209
  |                                 -0.00197017       0.10699143       0.00237594
  |                                 -0.00680209       0.00237594       0.09056696
  ----------------------------------------------------------------------
  | Atom    11: H
  |   Hirshfeld charge        :      0.04529946
  |   Free atom volume        :      9.95071624
  |   Hirshfeld volume        :      6.21392926
  |   Hirshfeld dipole vector :      0.01764150       0.08098401       0.03296531
  |   Hirshfeld dipole moment :      0.08919834
  |   Hirshfeld second moments:      0.10485890      -0.00646046       0.00339188
  |                                 -0.00646046       0.08946259      -0.00518111
  |                                  0.00339188      -0.00518111       0.10528694
  ----------------------------------------------------------------------
  | Atom    12: H
  |   Hirshfeld charge        :      0.04157863
  |   Free atom volume        :      9.95071624
  |   Hirshfeld volume        :      6.09380193
  |   Hirshfeld dipole vector :      0.08077790      -0.02944259      -0.01789216
  |   Hirshfeld dipole moment :      0.08781836
  |   Hirshfeld second moments:      0.09103832       0.00687084       0.00634483
  |                                  0.00687084       0.10514251      -0.00191393
  |                                  0.00634483      -0.00191393       0.10987115
  ----------------------------------------------------------------------


  Total energy components:
  | Sum of eigenvalues            :         -89.22026821 Ha       -2427.80702341 eV
  | XC energy correction          :         -24.40509118 Ha        -664.09631988 eV
  | XC potential correction       :          31.35263361 Ha         853.14856819 eV
  | Free-atom electrostatic energy:         -68.03725734 Ha       -1851.38796979 eV
  | Hartree energy correction     :          -6.72920152 Ha        -183.11089007 eV
  | vdW energy correction         :          -0.00243844 Ha          -0.06635338 eV
  | Entropy correction            :           0.00000000 Ha           0.00000000 eV
  | ---------------------------
  | Total energy                  :        -157.04162309 Ha       -4273.31998834 eV
  | Total energy, T -> 0          :        -157.04162309 Ha       -4273.31998834 eV  <-- do not rely on this value for anything but (periodic) metals
  | Electronic free energy        :        -157.04162309 Ha       -4273.31998834 eV

  Derived energy quantities:
  | Kinetic energy                :         156.27157130 Ha        4252.36581318 eV
  | Electrostatic energy          :        -288.90566477 Ha       -7861.52312826 eV
  | Energy correction for multipole
  | error in Hartree potential    :           0.03004137 Ha           0.81746731 eV
  | Sum of eigenvalues per atom                           :        -202.31725195 eV
  | Total energy (T->0) per atom                          :        -356.10999903 eV  <-- do not rely on this value for anything but (periodic) metals
  | Electronic free energy per atom                       :        -356.10999903 eV

  atomic forces [eV/Ang]:
  -----------------------
  atom #    1
   Hellmann-Feynman              :  0.151281E+00 -0.502852E-01  0.151160E+00
   Ionic forces                  :  0.000000E+00  0.000000E+00  0.000000E+00
   Multipole                     : -0.379993E+00 -0.303030E+00 -0.411692E+00
   Pulay + GGA                   :  0.254874E+00  0.389775E+00  0.239343E+00
   Van der Waals                 :  0.154237E-02  0.460820E-03  0.234047E-03
   ----------------------------------------------------------------
   Total forces(   1)            :  0.277044E-01  0.369203E-01 -0.209555E-01
  atom #    2
   Hellmann-Feynman              :  0.157190E+01  0.308875E+00  0.398635E+00
   Ionic forces                  :  0.000000E+00  0.000000E+00  0.000000E+00
   Multipole                     :  0.611356E-01 -0.206186E-01  0.331651E+00
   Pulay + GGA                   : -0.157694E+01 -0.454168E+00 -0.637102E+00
   Van der Waals                 : -0.813177E-03 -0.222631E-02  0.586053E-02
   ----------------------------------------------------------------
   Total forces(   2)            :  0.552867E-01 -0.168138E+00  0.990449E-01
  atom #    3
   Hellmann-Feynman              : -0.157190E+01 -0.308875E+00  0.398635E+00
   Ionic forces                  :  0.000000E+00  0.000000E+00  0.000000E+00
   Multipole                     : -0.611356E-01  0.206187E-01  0.331651E+00
   Pulay + GGA                   :  0.157694E+01  0.454168E+00 -0.637102E+00
   Van der Waals                 :  0.813180E-03  0.222631E-02  0.586053E-02
   ----------------------------------------------------------------
   Total forces(   3)            : -0.552867E-01  0.168138E+00  0.990449E-01
  atom #    4
   Hellmann-Feynman              : -0.151281E+00  0.502852E-01  0.151160E+00
   Ionic forces                  :  0.000000E+00  0.000000E+00  0.000000E+00
   Multipole                     :  0.379993E+00  0.303030E+00 -0.411692E+00
   Pulay + GGA                   : -0.254874E+00 -0.389775E+00  0.239343E+00
   Van der Waals                 : -0.154237E-02 -0.460820E-03  0.234047E-03
   ----------------------------------------------------------------
   Total forces(   4)            : -0.277044E-01 -0.369203E-01 -0.209555E-01
  atom #    5
   Hellmann-Feynman              :  0.340298E-01  0.238030E+00 -0.499808E-01
   Ionic forces                  :  0.000000E+00  0.000000E+00  0.000000E+00
   Multipole                     :  0.166692E-01 -0.598734E-01 -0.120429E+00
   Pulay + GGA                   : -0.497165E-01  0.983181E-02  0.100900E+00
   Van der Waals                 : -0.193354E-02 -0.170771E-02 -0.224390E-02
   ----------------------------------------------------------------
   Total forces(   5)            : -0.951042E-03  0.186281E+00 -0.717531E-01
  atom #    6
   Hellmann-Feynman              :  0.893827E-01  0.218121E+00  0.553669E-01
   Ionic forces                  :  0.000000E+00  0.000000E+00  0.000000E+00
   Multipole                     : -0.113867E+00  0.913825E-02 -0.599347E-01
   Pulay + GGA                   :  0.985895E-01 -0.314854E-01  0.218650E-01
   Van der Waals                 :  0.362430E-02  0.172043E-02 -0.208543E-02
   ----------------------------------------------------------------
   Total forces(   6)            :  0.777299E-01  0.197494E+00  0.152117E-01
  atom #    7
   Hellmann-Feynman              : -0.108642E+00 -0.105038E-01 -0.173222E+00
   Ionic forces                  :  0.000000E+00  0.000000E+00  0.000000E+00
   Multipole                     : -0.230575E-01 -0.929367E-01 -0.598521E-03
   Pulay + GGA                   :  0.355405E-01  0.885332E-01 -0.308932E-01
   Van der Waals                 :  0.156268E-02 -0.146203E-02 -0.262256E-02
   ----------------------------------------------------------------
   Total forces(   7)            : -0.945967E-01 -0.163694E-01 -0.207336E+00
  atom #    8
   Hellmann-Feynman              :  0.143602E+00 -0.601405E+00  0.125023E+00
   Ionic forces                  :  0.000000E+00  0.000000E+00  0.000000E+00
   Multipole                     : -0.362993E-01  0.220180E-01  0.153040E+00
   Pulay + GGA                   :  0.600281E-01  0.211627E-01 -0.942553E-01
   Van der Waals                 :  0.396576E-02  0.442804E-02  0.857306E-03
   ----------------------------------------------------------------
   Total forces(   8)            :  0.171296E+00 -0.553797E+00  0.184665E+00
  atom #    9
   Hellmann-Feynman              : -0.143602E+00  0.601405E+00  0.125023E+00
   Ionic forces                  :  0.000000E+00  0.000000E+00  0.000000E+00
   Multipole                     :  0.362993E-01 -0.220180E-01  0.153040E+00
   Pulay + GGA                   : -0.600281E-01 -0.211627E-01 -0.942553E-01
   Van der Waals                 : -0.396576E-02 -0.442804E-02  0.857303E-03
   ----------------------------------------------------------------
   Total forces(   9)            : -0.171296E+00  0.553797E+00  0.184665E+00
  atom #   10
   Hellmann-Feynman              : -0.340298E-01 -0.238030E+00 -0.499809E-01
   Ionic forces                  :  0.000000E+00  0.000000E+00  0.000000E+00
   Multipole                     : -0.166692E-01  0.598734E-01 -0.120429E+00
   Pulay + GGA                   :  0.497165E-01 -0.983182E-02  0.100900E+00
   Van der Waals                 :  0.193354E-02  0.170771E-02 -0.224389E-02
   ----------------------------------------------------------------
   Total forces(  10)            :  0.951046E-03 -0.186281E+00 -0.717532E-01
  atom #   11
   Hellmann-Feynman              :  0.108642E+00  0.105038E-01 -0.173222E+00
   Ionic forces                  :  0.000000E+00  0.000000E+00  0.000000E+00
   Multipole                     :  0.230575E-01  0.929367E-01 -0.598524E-03
   Pulay + GGA                   : -0.355405E-01 -0.885332E-01 -0.308932E-01
   Van der Waals                 : -0.156268E-02  0.146202E-02 -0.262256E-02
   ----------------------------------------------------------------
   Total forces(  11)            :  0.945966E-01  0.163694E-01 -0.207336E+00
  atom #   12
   Hellmann-Feynman              : -0.893827E-01 -0.218121E+00  0.553669E-01
   Ionic forces                  :  0.000000E+00  0.000000E+00  0.000000E+00
   Multipole                     :  0.113867E+00 -0.913828E-02 -0.599347E-01
   Pulay + GGA                   : -0.985895E-01  0.314855E-01  0.218650E-01
   Van der Waals                 : -0.362431E-02 -0.172043E-02 -0.208543E-02
   ----------------------------------------------------------------
   Total forces(  12)            : -0.777300E-01 -0.197494E+00  0.152118E-01

  Timings for VdW correction (Tkatchenko-Scheffler 2009 or later):
  | CPU time:        0.044 s, Wall clock time:        0.046 s.
  Removing unitary transformations (pure translations, rotations) from forces on atoms.
  Atomic forces before filtering:
  | Net force on center of mass :  -0.301012E-09 -0.832577E-08 -0.224542E-02 eV/A
  | Net torque on center of mass:  -0.566641E-09 -0.842030E-10 -0.328710E-02 eV
  Atomic forces after filtering:
  | Net force on center of mass :  -0.223008E-16 -0.133805E-15 -0.446015E-16 eV/A
  | Net torque on center of mass:  -0.802472E-15 -0.318629E-15  0.247822E-15 eV

  Energy and forces in a compact form:
  | Total energy uncorrected      :         -0.427331998834248E+04 eV
  | Total energy corrected        :         -0.427331998834248E+04 eV  <-- do not rely on this value for anything but (periodic) metals
  | Electronic free energy        :         -0.427331998834248E+04 eV
  Total atomic forces (unitary forces cleaned) [eV/Ang]:
  |   1          0.277816088191457E-01          0.367951745897443E-01         -0.207683874624149E-01
  |   2          0.553046123505901E-01         -0.168193531648206E+00          0.992320200686698E-01
  |   3         -0.553045840356928E-01          0.168193519618044E+00          0.992320083770083E-01
  |   4         -0.277815995868333E-01         -0.367951729813714E-01         -0.207683677485091E-01
  |   5         -0.860129950889686E-03          0.186204475478318E+00         -0.715660305884046E-01
  |   6          0.777712381960875E-01          0.197281911391400E+00          0.153988636218749E-01
  |   7         -0.944320035696528E-01         -0.165106786289788E-01         -0.207148997192736E+00
  |   8          0.171313324863680E+00         -0.553896293668976E+00          0.184852522171448E+00
  |   9         -0.171313310800782E+00          0.553896318681550E+00          0.184852476230829E+00
  |  10          0.860133896386675E-03         -0.186204482053736E+00         -0.715660532776244E-01
  |  11          0.944319671816175E-01          0.165106628050520E-01         -0.207148988004917E+00
  |  12         -0.777712573636566E-01         -0.197281903582840E+00          0.153989338047765E-01

  ------------------------------------ 
  Start decomposition of the XC Energy 
  ------------------------------------ 
  X and C from original XC functional choice 
  Hartree-Fock Energy :          0.000000000 Ha              0.000000000 eV
  X Energy            :        -23.389392243 Ha           -636.457745542 eV
  C Energy            :         -1.015698938 Ha            -27.638574336 eV
  Total XC Energy     :        -24.405091181 Ha           -664.096319879 eV
  ------------------------------------ 
  LDA X and C from self-consistent density 
  X Energy LDA        :        -21.142162994 Ha           -575.307526385 eV
  C Energy LDA        :         -1.974027887 Ha            -53.716031858 eV
  ------------------------------------ 
  End decomposition of the XC Energy 
  ------------------------------------ 

------------------------------------------------------------

------------------------------------------------------------------------------
  Final output of selected total energy values:

  The following output summarizes some interesting total energy values
  at the end of a run (AFTER all relaxation, molecular dynamics, etc.).

  | Total energy of the DFT / Hartree-Fock s.c.f. calculation      :          -4273.319988342 eV
  | Final zero-broadening corrected energy (caution - metals only) :          -4273.319988342 eV
  | For reference only, the value of 1 Hartree used in FHI-aims is :             27.211384500 eV

  Before relying on these values, please be sure to understand exactly which
  total energy value is referred to by a given number. Different objects may
  all carry the same name 'total energy'. Definitions:

  Total energy of the DFT / Hartree-Fock s.c.f. calculation:
  | Note that this energy does not include ANY quantities calculated after the
  | s.c.f. cycle, in particular not ANY RPA, MP2, etc. many-body perturbation terms.

  Final zero-broadening corrected energy:
  | For metallic systems only, a broadening of the occupation numbers at the Fermi
  | level can be extrapolated back to zero broadening by an electron-gas inspired
  | formula. For all systems that are not real metals, this value can be
  | meaningless and should be avoided.

------------------------------------------------------------------------------
  Methods described in the following list of references were used in this FHI-aims run.
  If you publish the results, please make sure to cite these reference if they apply.
  FHI-aims is an academic code, and for our developers (often, Ph.D. students
  and postdocs), scientific credit in the community is essential.
  Thank you for helping us!

  For any use of FHI-aims, please cite:

    Volker Blum, Ralf Gehrke, Felix Hanke, Paula Havu, Ville Havu,
    Xinguo Ren, Karsten Reuter, and Matthias Scheffler
    'Ab initio molecular simulations with numeric atom-centered orbitals'
    Computer Physics Communications 180, 2175-2196 (2009)
    http://dx.doi.org/10.1016/j.cpc.2009.06.022


  For the real-space grid partitioning and parallelization used in this calculation, please cite:

    Ville Havu, Volker Blum, Paula Havu, and Matthias Scheffler,
    'Efficient O(N) integration for all-electron electronic structure calculation'
    'using numerically tabulated basis functions'
    Journal of Computational Physics 228, 8367-8379 (2009).
    http://dx.doi.org/10.1016/j.jcp.2009.08.008

  Of course, there are many other important community references, e.g., those cited in the
  above references. Our list is limited to references that describe implementations in the
  FHI-aims code. The reason is purely practical (length of this list) - please credit others as well.

------------------------------------------------------------
          Leaving FHI-aims.
          Date     :  20180215, Time     :  214429.490

          Computational steps:
          | Number of self-consistency cycles          :           15
          | Number of SCF (re)initializations          :            1

          Detailed time accounting                     :  max(cpu_time)    wall_clock(cpu1)
          | Total time                                 :        9.640 s           9.716 s
          | Preparation time                           :        0.128 s           0.128 s
          | Boundary condition initalization           :        0.000 s           0.000 s
          | Grid partitioning                          :        0.076 s           0.074 s
          | Preloading free-atom quantities on grid    :        0.004 s           0.003 s
          | Free-atom superposition energy             :        0.024 s           0.022 s
          | Total time for integrations                :        3.012 s           2.995 s
          | Total time for solution of K.-S. equations :        0.072 s           0.042 s
          | Total time for density & force components  :        2.960 s           2.930 s
          | Total time for mixing                      :        0.172 s           0.152 s
          | Total time for Hartree multipole update    :        0.188 s           0.163 s
          | Total time for Hartree multipole sum       :        3.016 s           3.003 s
          | Total time for total energy evaluation     :        0.012 s           0.014 s
          | Total time for vdW correction              :        0.044 s           0.046 s

          Partial memory accounting:
          | Residual value for overall tracked memory usage across tasks :           0.000 MB (should be 0.000 MB)
          | Peak values for overall tracked memory usage (after allocating hessian_basis_wave):
          |   Minimum:        1.371 MB (on task 1)
          |   Maximum:        1.371 MB (on task 1)
          |   Average:        1.371 MB
          | Largest tracked array allocation (hessian_basis_wave):
          |   Minimum:        0.650 MB (on task 1)
          |   Maximum:        0.650 MB (on task 1)
          |   Average:        0.650 MB
          Note:  These values currently only include a subset of arrays which are explicitly tracked.
          The "true" memory usage will be greater.

          Have a nice day.
------------------------------------------------------------
