  MPI-parallelism will be employed.
------------------------------------------------------------
          Invoking FHI-aims ...
          Version 180101-
          Git rev. (modified): fa29f3a Merge branch master of fhiaims.rzberlin.mp[...]
          Compiled on 2018/01/19 at 14:47:46 on host theobook132.

          When using FHI-aims, please cite the following reference:

          Volker Blum, Ralf Gehrke, Felix Hanke, Paula Havu,
          Ville Havu, Xinguo Ren, Karsten Reuter, and Matthias Scheffler,
          'Ab Initio Molecular Simulations with Numeric Atom-Centered Orbitals',
          Computer Physics Communications 180, 2175-2196 (2009)

          For any questions about FHI-aims, please visit the aimsclub website
          with its forums and wiki. Contributions to both the forums and the
          wiki are warmly encouraged - they are for you, and everyone is welcome there.

------------------------------------------------------------



  Date     :  20180214, Time     :  160354.248
  Time zero on CPU 1             :   0.520000000000000E-01  s.
  Internal wall clock time zero  :           287856234.248  s.

  FHI-aims created a unique identifier for this run for later identification
  aims_uuid : 82A3FED6-2C6C-466E-AD2F-9C3AB8B516DD

  Using        8 parallel tasks.
  Task        0 on host theobook132 reporting.
  Task        1 on host theobook132 reporting.
  Task        2 on host theobook132 reporting.
  Task        3 on host theobook132 reporting.
  Task        4 on host theobook132 reporting.
  Task        5 on host theobook132 reporting.
  Task        6 on host theobook132 reporting.
  Task        7 on host theobook132 reporting.

  Performing system and environment tests:
  *** Environment variable OMP_NUM_THREADS is not set
  *** For performance reasons you might want to set it to 1
  | Stacksize not measured: no C compiler
  | Checking for scalapack...
  | No scalapack compiled in.

  Obtaining array dimensions for all initial allocations:
  
  -----------------------------------------------------------------------
  Parsing control.in (first pass over file, find array dimensions only).
  The contents of control.in will be repeated verbatim below
  unless switched off by setting 'verbatim_writeout .false.' .
  in the first line of control.in .
  -----------------------------------------------------------------------
  
  ################################################################################
  #
  #		Control.in generated by mkcontrol
  #
  ################################################################################
  xc			pbe
  vdw_correction_hirshfeld
  charge			-1.0
  relativistic		atomic_zora scalar
  sc_accuracy_rho		1E-5
  sc_accuracy_eev		1E-3
  sc_accuracy_etot	1E-6
  sc_iter_limit		1000	
  
  compute_forces .true.
  final_forces_cleaned .true.
  
  
  ################################################################################
  #
  #  FHI-aims code project
  # Volker Blum, Fritz Haber Institute Berlin, 2009
  #
  #  Suggested "tight" defaults for H atom (to be pasted into control.in file)
  #
  ################################################################################
    species        H
  #     global species definitions
      nucleus             1
      mass                1.00794
  #
      l_hartree           6
  #
      cut_pot             4.0  2.0  1.0
      basis_dep_cutoff    1e-4
  #
      radial_base         24 7.0
      radial_multiplier   2
      angular_grids       specified
        division   0.1930   50
        division   0.3175  110
        division   0.4293  194
        division   0.5066  302
        division   0.5626  434
  #      division   0.5922  590
  #      division   0.6227  974
  #      division   0.6868 1202
  #      outer_grid  770
        outer_grid  434
  ################################################################################
  #
  #  Definition of "minimal" basis
  #
  ################################################################################
  #     valence basis states
      valence      1  s   1.
  #     ion occupancy
      ion_occ      1  s   0.5
  ################################################################################
  #
  #  Suggested additional basis functions. For production calculations,
  #  uncomment them one after another (the most important basis functions are
  #  listed first).
  #
  #  Basis constructed for dimers: 0.5 A, 0.7 A, 1.0 A, 1.5 A, 2.5 A
  #
  ################################################################################
  #  "First tier" - improvements: -1014.90 meV to -62.69 meV
       hydro 2 s 2.1
       hydro 2 p 3.5
  #  "Second tier" - improvements: -12.89 meV to -1.83 meV
       hydro 1 s 0.85
       hydro 2 p 3.7
       hydro 2 s 1.2
       hydro 3 d 7
  #  "Third tier" - improvements: -0.25 meV to -0.12 meV
  #     hydro 4 f 11.2
  #     hydro 3 p 4.8
  #     hydro 4 d 9
  #     hydro 3 s 3.2
  
  
  
  ################################################################################
  #
  #  FHI-aims code project
  # Volker Blum, Fritz Haber Institute Berlin, 2009
  #
  #  Suggested "tight" defaults for C atom (to be pasted into control.in file)
  #
  ################################################################################
    species        C
  #     global species definitions
      nucleus             6
      mass                12.0107
  #
      l_hartree           6
  #
      cut_pot             4.0  2.0  1.0
      basis_dep_cutoff    1e-4
  #
      radial_base         34 7.0
      radial_multiplier   2
      angular_grids specified
        division   0.2187   50
        division   0.4416  110
        division   0.6335  194
        division   0.7727  302
        division   0.8772  434
  #      division   0.9334  590
  #      division   0.9924  770
  #      division   1.0230  974
  #      division   1.5020 1202
  #     outer_grid  974
        outer_grid  434
  ################################################################################
  #
  #  Definition of "minimal" basis
  #
  ################################################################################
  #     valence basis states
      valence      2  s   2.
      valence      2  p   2.
  #     ion occupancy
      ion_occ      2  s   1.
      ion_occ      2  p   1.
  ################################################################################
  #
  #  Suggested additional basis functions. For production calculations,
  #  uncomment them one after another (the most important basis functions are
  #  listed first).
  #
  #  Constructed for dimers: 1.0 A, 1.25 A, 1.5 A, 2.0 A, 3.0 A
  #
  ################################################################################
  #  "First tier" - improvements: -1214.57 meV to -155.61 meV
       hydro 2 p 1.7
       hydro 3 d 6
       hydro 2 s 4.9
  #  "Second tier" - improvements: -67.75 meV to -5.23 meV
       hydro 4 f 9.8
       hydro 3 p 5.2
       hydro 3 s 4.3
       hydro 5 g 14.4
       hydro 3 d 6.2
  #  "Third tier" - improvements: -2.43 meV to -0.60 meV
  #     hydro 2 p 5.6
  #     hydro 2 s 1.4
  #     hydro 3 d 4.9
  #     hydro 4 f 11.2
  #  "Fourth tier" - improvements: -0.39 meV to -0.18 meV
  #     hydro 2 p 2.1
  #     hydro 5 g 16.4
  #     hydro 4 d 13.2
  #     hydro 3 s 13.6
  #     hydro 4 f 17.6
  #  Further basis functions - improvements: -0.08 meV and below
  #     hydro 3 s 2
  #     hydro 3 p 6
  #     hydro 4 d 20
  
  ################################################################################
  #
  #  FHI-aims code project
  #  VB, Fritz-Haber Institut, 2009
  #
  #  Suggested "light" defaults for Cl atom (to be pasted into control.in file)
  #  Be sure to double-check any results obtained with these settings for
  #post-processing,
  #  e.g., with the "tight" defaults and larger basis sets.
  #
  ################################################################################
    species        Cl
  #     global species definitions
      nucleus             17
      mass                35.453
  #
      l_hartree           4
  #
      cut_pot             3.5          1.5  1.0
      basis_dep_cutoff    1e-4
  #
      radial_base         45 5.0
      radial_multiplier   1
      angular_grids       specified
        division   0.4412  110
        division   0.5489  194
        division   0.6734  302
  #      division   0.7794  434
  #      division   0.9402  590
  #      division   1.0779  770
  #      division   1.1792  974
  #      outer_grid  974
        outer_grid  302
  ################################################################################
  #
  #  Definition of "minimal" basis
  #
  ################################################################################
  #     valence basis states
      valence      3  s   2.
      valence      3  p   5.
  #     ion occupancy
      ion_occ      3  s   1.
      ion_occ      3  p   4.
  ################################################################################
  #
  #  Suggested additional basis functions. For production calculations,
  #  uncomment them one after another (the most important basis functions are
  #  listed first).
  #
  #  Constructed for dimers: 1.65 A, 2.0 A, 2.5 A, 3.25 A, 4.0 A
  #
  ################################################################################
  #  "First tier" - improvements: -429.57 meV to -15.03 meV
       ionic 3 d auto
       hydro 2 p 1.9
  #     hydro 4 f 7.4
       ionic 3 s auto
  #     hydro 5 g 10.4
  #  "Second tier" - improvements: -7.84 meV to -0.48 meV
  #     hydro 3 d 3.3
  #     hydro 5 f 9.8
  #     hydro 1 s 0.75
  #     hydro 5 g 11.2
  #     hydro 4 p 10.4
  #  "Third tier" - improvements: -1.00 meV to -0.12 meV
  #     hydro 4 d 12.8
  #     hydro 4 f 4.6
  #     hydro 4 d 10.8
  #     hydro 2 s 1.8
  #     hydro 3 p 3
  #  Further functions that fell out - improvements: -0.10 meV and below
  #     hydro 5 f 14.4
  #     hydro 4 s 12.8
  #     hydro 3 d 11.6
  #     hydro 4 s 4.1
  
  -----------------------------------------------------------------------
  Completed first pass over input file control.in .
  -----------------------------------------------------------------------
  
  
  -----------------------------------------------------------------------
  Parsing geometry.in (first pass over file, find array dimensions only).
  The contents of geometry.in will be repeated verbatim below
  unless switched off by setting 'verbatim_writeout .false.' .
  in the first line of geometry.in .
  -----------------------------------------------------------------------
  
  #=======================================#
  # iterations/iteration0016/aims-chain-node-0.14286/geometry.in
  #=======================================#
  atom 0.0000000000000000 0.0000000000000000 0.0000000000000000 Cl
  constrain_relaxation .true.
  atom 2.9526013065770722 0.0000000000000000 0.0000000000009036 C
  constrain_relaxation y
  atom 4.8273997081964417 0.0000000000000000 -0.0000000000020177 Cl
  constrain_relaxation y
  atom 2.6202847470445105 1.0378029729826512 0.0000000000004672 H
  atom 2.6201169902628809 -0.5188420274444101 0.8987456496411872 H
  atom 2.6201169902657271 -0.5188420274442662 -0.8987456496400020 H
  
  -----------------------------------------------------------------------
  Completed first pass over input file geometry.in .
  -----------------------------------------------------------------------
  

  Basic array size parameters:
  | Number of species                 :        3
  | Number of atoms                   :        6
  | Max. basis fn. angular momentum   :        4
  | Max. atomic/ionic basis occupied n:        3
  | Max. number of basis fn. types    :        3
  | Max. radial fns per species/type  :        8
  | Max. logarithmic grid size        :     1362
  | Max. radial integration grid size :       69
  | Max. angular integration grid size:      434
  | Max. angular grid division number :        8
  | Radial grid for Hartree potential :     1362
  | Number of spin channels           :        1

------------------------------------------------------------
          Reading file control.in.
------------------------------------------------------------
  XC: Using PBE gradient-corrected functionals.
  Charged system requested: Charge =  -0.100000E+01.
  Scalar relativistic treatment of kinetic energy: on-site free-atom approximation to ZORA.
  Convergence accuracy of self-consistent charge density:  0.1000E-04
  Convergence accuracy of sum of eigenvalues:  0.1000E-02
  Convergence accuracy of total energy:  0.1000E-05
  Maximum number of s.-c. iterations  :  1000
  Forces will be computed.
  Cleaning forces before final output.
 
  Reading configuration options for species H                   .
  | Found nuclear charge :   1.0000
  | Found atomic mass :    1.00794000000000      amu
  | Found l_max for Hartree potential  :   6
  | Found cutoff potl. onset [A], width [A], scale factor :    4.00000    2.00000    1.00000
  | Threshold for basis-dependent cutoff potential is   0.100000E-03
  | Found data for basic radial integration grid :    24 points, outermost radius =    7.000 A
  | Found multiplier for basic radial grid :   2
  | Found angular grid specification: user-specified.
  | Specified grid contains     6 separate shells.
  | Check grid settings after all constraints further below.
  | Found free-atom valence shell :  1 s   1.000
  | Found free-ion valence shell :  1 s   0.500
  | Found hydrogenic basis function :  2 s   2.100
  | Found hydrogenic basis function :  2 p   3.500
  | Found hydrogenic basis function :  1 s   0.850
  | Found hydrogenic basis function :  2 p   3.700
  | Found hydrogenic basis function :  2 s   1.200
  | Found hydrogenic basis function :  3 d   7.000
  Species H                   : Missing cutoff potential type.
  Defaulting to exp(1/x)/(1-x)^2 type cutoff potential.
  Species H : No 'logarithmic' tag. Using default grid for free atom:
  | Default logarithmic grid data [bohr] : 0.1000E-03 0.1000E+03 0.1012E+01
  Species H : On-site basis accuracy parameter (for Gram-Schmidt orthonormalisation) not specified.
  Using default value basis_acc =  0.1000000E-03.
  Species H                   : Using default innermost maximum threshold i_radial=  2 for radial functions.
  Species H                   : Default cutoff onset for free atom density etc. : 0.40000000E+01 AA.
  Species H                   : Basic radial grid will be enhanced according to radial_multiplier =   2, to contain    49 grid points.
 
  Reading configuration options for species C                   .
  | Found nuclear charge :   6.0000
  | Found atomic mass :    12.0107000000000      amu
  | Found l_max for Hartree potential  :   6
  | Found cutoff potl. onset [A], width [A], scale factor :    4.00000    2.00000    1.00000
  | Threshold for basis-dependent cutoff potential is   0.100000E-03
  | Found data for basic radial integration grid :    34 points, outermost radius =    7.000 A
  | Found multiplier for basic radial grid :   2
  | Found angular grid specification: user-specified.
  | Specified grid contains     6 separate shells.
  | Check grid settings after all constraints further below.
  | Found free-atom valence shell :  2 s   2.000
  | Found free-atom valence shell :  2 p   2.000
  | Found free-ion valence shell :  2 s   1.000
  | Found free-ion valence shell :  2 p   1.000
  | Found hydrogenic basis function :  2 p   1.700
  | Found hydrogenic basis function :  3 d   6.000
  | Found hydrogenic basis function :  2 s   4.900
  | Found hydrogenic basis function :  4 f   9.800
  | Found hydrogenic basis function :  3 p   5.200
  | Found hydrogenic basis function :  3 s   4.300
  | Found hydrogenic basis function :  5 g  14.400
  | Found hydrogenic basis function :  3 d   6.200
  Species C                   : Missing cutoff potential type.
  Defaulting to exp(1/x)/(1-x)^2 type cutoff potential.
  Species C : No 'logarithmic' tag. Using default grid for free atom:
  | Default logarithmic grid data [bohr] : 0.1000E-03 0.1000E+03 0.1012E+01
  Species C : On-site basis accuracy parameter (for Gram-Schmidt orthonormalisation) not specified.
  Using default value basis_acc =  0.1000000E-03.
  Species C                   : Using default innermost maximum threshold i_radial=  2 for radial functions.
  Species C                   : Default cutoff onset for free atom density etc. : 0.40000000E+01 AA.
  Species C                   : Basic radial grid will be enhanced according to radial_multiplier =   2, to contain    69 grid points.
 
  Reading configuration options for species Cl                  .
  | Found nuclear charge :  17.0000
  | Found atomic mass :    35.4530000000000      amu
  | Found l_max for Hartree potential  :   4
  | Found cutoff potl. onset [A], width [A], scale factor :    3.50000    1.50000    1.00000
  | Threshold for basis-dependent cutoff potential is   0.100000E-03
  | Found data for basic radial integration grid :    45 points, outermost radius =    5.000 A
  | Found multiplier for basic radial grid :   1
  | Found angular grid specification: user-specified.
  | Specified grid contains     4 separate shells.
  | Check grid settings after all constraints further below.
  | Found free-atom valence shell :  3 s   2.000
  | Found free-atom valence shell :  3 p   5.000
  | Found free-ion valence shell :  3 s   1.000
  | Found free-ion valence shell :  3 p   4.000
  | Found ionic basis function :  3 d , default cutoff radius.
  | Found hydrogenic basis function :  2 p   1.900
  | Found ionic basis function :  3 s , default cutoff radius.
  Species Cl                  : Missing cutoff potential type.
  Defaulting to exp(1/x)/(1-x)^2 type cutoff potential.
  Species Cl: No 'logarithmic' tag. Using default grid for free atom:
  | Default logarithmic grid data [bohr] : 0.1000E-03 0.1000E+03 0.1012E+01
  | Will include ionic basis functions of  2.0-fold positive Cl                   ion.
  Species Cl: On-site basis accuracy parameter (for Gram-Schmidt orthonormalisation) not specified.
  Using default value basis_acc =  0.1000000E-03.
  Species Cl                  : Using default innermost maximum threshold i_radial=  2 for radial functions.
  Species Cl                  : Default cutoff onset for free atom density etc. : 0.35000000E+01 AA.
  Species Cl                  : Basic radial grid will be enhanced according to radial_multiplier =   1, to contain    45 grid points.
 
  Finished reading input file 'control.in'. Consistency checks are next.
 
  MPI_IN_PLACE appears to work with this MPI implementation.
  | Keeping use_mpi_in_place .true. (see manual).
  Target number of points in a grid batch is not set. Defaulting to  100
  Method for grid partitioning is not set. Defaulting to parallel hash+maxmin partitioning.
  Batch size limit is not set. Defaulting to    200
  By default, will store active basis functions for each batch.
  If in need of memory, prune_basis_once .false. can be used to disable this option.
  communication_type for Hartree potential was not specified.
  Defaulting to calc_hartree .
  Defaulting to Pulay charge density mixer.
  Pulay mixer: Number of relevant iterations not set.
  Defaulting to    8 iterations.
  Pulay mixer: Number of initial linear mixing iterations not set.
  Defaulting to    0 iterations.
  Work space size for distributed Hartree potential not set.
  Defaulting to   0.200000E+03 MB.
  Mixing parameter for charge density mixing has not been set.
  Using default: charge_mix_param =     0.0500.
  The mixing parameter will be adjusted in iteration number     2 of the first full s.c.f. cycle only.
  Algorithm-dependent basis array size parameters:
  | n_max_pulay                         :        8
  Presetting        40 iterations before the initial mixing cycle
  is restarted anyway using the sc_init_iter criterion / keyword.
  Presetting a factor      1.000 between actual scf density residual
  and density convergence criterion sc_accuracy_rho below which sc_init_iter
  takes no effect.
  Geometry relaxation not requested: no relaxation will be performed.
  Force calculation: scf convergence accuracy of forces not set.
  Defaulting to 'sc_accuracy_forces not_checked'.
  Handling of forces: Unphysical translation and rotation will be removed from forces.
  No accuracy limit for integral partition fn. given. Defaulting to  0.1000E-14.
  No threshold value for u(r) in integrations given. Defaulting to  0.1000E-05.
  No occupation type (smearing scheme) given. Defaulting to Gaussian broadening, width =  0.1000E-01 eV.
  The width will be adjusted in iteration number     2 of the first full s.c.f. cycle only.
  S.C.F. convergence parameters will be adjusted in iteration number     2 of the first full s.c.f. cycle only.
  No accuracy for occupation numbers given. Defaulting to  0.1000E-12.
  No threshold value for occupation numbers given. Defaulting to  0.0000E+00.
  No accuracy for fermi level given. Defaulting to  0.1000E-19.
  Maximum # of iterations to find E_F not set. Defaulting to  200.
  Preferred method for the eigenvalue solver ('KS_method') not specified in 'control.in'.
  Calling BLACS routine to test compilation state
  The best choice would be 'elsi', but your version of FHI-aims is compiled without ScaLAPACK support.
  Defaulting to 'lapack_fast' instead (serial solution, time will not improve with more CPUs).
  Will not use alltoall communication since running on < 1024 CPUs.
  Threshold for basis singularities not set.
  Default threshold for basis singularities:  0.1000E-04
  partition_type (choice of integration weights) for integrals was not specified.
  | Using a version of the partition function of Stratmann and coworkers ('stratmann_smoother').
  | At each grid point, the set of atoms used to build the partition table is smoothly restricted to
  | only those atoms whose free-atom density would be non-zero at that grid point.
  Partitioning for Hartree potential was not defined. Using partition_type for integrals.
  | Adjusted default value of keyword multip_moments_threshold to:       0.10000000E-11
  | This value may affect high angular momentum components of the Hartree potential in periodic systems.
  Spin handling was not defined in control.in. Defaulting to unpolarized case.
  No q(lm)/r^(l+1) cutoff set for long-range Hartree potential.
  | Using default value of  0.100000E-09 .
  | Verify using the multipole_threshold keyword.
  Defaulting to new monopole extrapolation.
  Density update method: automatic selection selected.
------------------------------------------------------------


------------------------------------------------------------
          Reading geometry description geometry.in.
------------------------------------------------------------
 No relaxation requested - ignoring relaxation constraint.
 No relaxation requested - ignoring relaxation constraint.
 No relaxation requested - ignoring relaxation constraint.
 * Warning: Initial charge and total charge of the system are inconsistent.
 * Selected charge in control.in:    -1.0000* Sum of initial charges in geometry.in:     0.0000
  Input structure read successfully.
  The structure contains        6 atoms,  and a total of         44.000 electrons.

  Input geometry:
  | No unit cell requested.
  | Atomic structure:
  |       Atom                x [A]            y [A]            z [A]
  |    1: Species Cl            0.00000000        0.00000000        0.00000000
  |    2: Species C             2.95260131        0.00000000        0.00000000
  |    3: Species Cl            4.82739971        0.00000000       -0.00000000
  |    4: Species H             2.62028475        1.03780297        0.00000000
  |    5: Species H             2.62011699       -0.51884203        0.89874565
  |    6: Species H             2.62011699       -0.51884203       -0.89874565
  |

  | The smallest distance between any two atoms is         1.08971065 AA.
  |
  | The first atom of this pair is atom number                      2 .
  | The second atom of this pair is atom number                     4 .

  Number of empty states per atom not set in control.in - providing a guess from actual geometry.
  | Total number of empty states used during s.c.f. cycle:       14
  If you use a very high smearing, use empty_states (per atom!) in control.in to increase this value.

  Structure-dependent array size parameters: 
  | Maximum number of distinct radial functions  :       26
  | Maximum number of basis functions            :      120
  | Number of Kohn-Sham states (occupied + empty):       36
------------------------------------------------------------

------------------------------------------------------------
          Preparing all fixed parts of the calculation.
------------------------------------------------------------
  Determining machine precision:
    2.225073858507201E-308
  Setting up grids for atomic and cluster calculations.

  Creating wave function, potential, and density for free atoms.

  Species: H

  List of occupied orbitals and eigenvalues:
    n    l              occ      energy [Ha]    energy [eV]
    1    0           1.0000        -0.238386        -6.4868


  Species: C

  List of occupied orbitals and eigenvalues:
    n    l              occ      energy [Ha]    energy [eV]
    1    0           2.0000       -10.049212      -273.4530
    2    0           2.0000        -0.504761       -13.7352
    2    1           2.0000        -0.193631        -5.2690


  Species: Cl

  List of occupied orbitals and eigenvalues:
    n    l              occ      energy [Ha]    energy [eV]
    1    0           2.0000      -101.451673     -2760.6405
    2    0           2.0000        -9.288282      -252.7470
    3    0           2.0000        -0.759332       -20.6625
    2    1           6.0000        -7.042657      -191.6405
    3    1           5.0000        -0.314806        -8.5663

  Creating fixed part of basis set: Ionic, confined, hydrogenic.
 
  H                    hydrogenic:
 
  List of hydrogenic basis orbitals: 
    n    l      effective z      eigenvalue [eV]  inner max. [A]     outer max. [A]     outer radius [A]   
    2    0         2.100000       -14.9965           0.193243           1.317208           5.373006
    2    1         3.500000       -41.6672           0.602369           0.602369           4.056063
    1    0         0.850000        -9.8292           0.624871           0.624871           5.373006
    2    1         3.700000       -46.5653           0.573622           0.573622           3.910002
    2    0         1.200000        -4.5995           0.334980           2.228188           5.505995
    3    2         7.000000       -74.0753           0.680699           0.680699           3.769201
 
 
  C                    hydrogenic:
 
  List of hydrogenic basis orbitals: 
    n    l      effective z      eigenvalue [eV]  inner max. [A]     outer max. [A]     outer radius [A]   
    2    1         1.700000        -9.8152           1.245706           1.245706           5.401630
    3    2         6.000000       -54.4226           0.792453           0.792453           4.178599
    2    0         4.900000       -81.6681           0.082559           0.562749           3.353238
    4    3         9.800000       -81.6681           0.863254           0.863254           4.028125
    3    1         5.200000       -40.8774           0.305389           1.215618           4.898362
    3    0         4.300000       -27.9508           0.091041           1.610311           5.401630
    5    4        14.400000      -112.8510           0.917666           0.917666           3.883070
    3    2         6.200000       -58.1113           0.763917           0.763917           4.077671
 
 
  Cl                   ion:

  List of free ionic orbitals and eigenvalues:
    n    l      energy [Ha]    energy [eV]
    1    0      -102.554413     -2790.6476
    2    0       -10.359555      -281.8978
    3    0        -1.672516       -45.5115
    2    1        -8.116241      -220.8542
    3    1        -1.184158       -32.2226


  List of ionic basis orbitals and eigenvalues:
    n    l      energy [Ha]    energy [eV]    outer radius [A]
    3    2        -0.527851       -14.3636       4.541334
    3    0        -1.672502       -45.5111       3.428237

 
  Cl                   hydrogenic:
 
  List of hydrogenic basis orbitals: 
    n    l      effective z      eigenvalue [eV]  inner max. [A]     outer max. [A]     outer radius [A]   
    2    1         1.900000       -12.2492           1.113321           1.113321           4.597192
 

  Adding cutoff potential to free-atom effective potential.
  Creating atomic-like basis functions for current effective potential.

  Species H                   :

  List of atomic basis orbitals and eigenvalues:
    n    l      energy [Ha]    energy [eV]    outer radius [A]
    1    0        -0.238386        -6.4868       5.373006


  Species C                   :

  List of atomic basis orbitals and eigenvalues:
    n    l      energy [Ha]    energy [eV]    outer radius [A]
    1    0       -10.049212      -273.4530       1.934409
    2    0        -0.504761       -13.7352       5.271162
    2    1        -0.193631        -5.2690       5.401630


  Species Cl                  :

  List of atomic basis orbitals and eigenvalues:
    n    l      energy [Ha]    energy [eV]    outer radius [A]
    1    0      -101.451673     -2760.6405       0.642251
    2    0        -9.288282      -252.7470       2.102331
    3    0        -0.759332       -20.6625       4.431645
    2    1        -7.042657      -191.6405       2.346844
    3    1        -0.314806        -8.5663       4.541334

  Assembling full basis from fixed parts.
  | Species H :   atomic orbital   1 s accepted.
  | Species H :    hydro orbital   2 s accepted.
  | Species H :    hydro orbital   1 s accepted.
  | Species H :    hydro orbital   2 s accepted.
  | Species H :    hydro orbital   2 p accepted.
  | Species H :    hydro orbital   2 p accepted.
  | Species H :    hydro orbital   3 d accepted.
  | Species C :   atomic orbital   1 s accepted.
  | Species C :    hydro orbital   2 s accepted.
  | Species C :   atomic orbital   2 s accepted.
  | Species C :    hydro orbital   3 s accepted.
  | Species C :    hydro orbital   3 p accepted.
  | Species C :   atomic orbital   2 p accepted.
  | Species C :    hydro orbital   2 p accepted.
  | Species C :    hydro orbital   3 d accepted.
  | Species C :    hydro orbital   3 d accepted.
  | Species C :    hydro orbital   4 f accepted.
  | Species C :    hydro orbital   5 g accepted.
  | Species Cl :   atomic orbital   1 s accepted.
  | Species Cl :   atomic orbital   2 s accepted.
  | Species Cl :    ionic orbital   3 s accepted.
  | Species Cl :   atomic orbital   3 s accepted.
  | Species Cl :   atomic orbital   2 p accepted.
  | Species Cl :   atomic orbital   3 p accepted.
  | Species Cl :    hydro orbital   2 p accepted.
  | Species Cl :    ionic orbital   3 d accepted.
 
  Basis size parameters after reduction:
  | Total number of radial functions:       26
  | Total number of basis functions :      120
 
  Per-task memory consumption for arrays in subroutine allocate_ext:
  |           9.070220MB.
  Testing on-site integration grid accuracy.
  |  Species  Function  <phi|h_atom|phi> (log., in eV)  <phi|h_atom|phi> (rad., in eV)
           1        1                 -6.4870767962                 -6.4871688290
           1        2                 13.5032046589                 13.5028982997
           1        3                 32.8195184817                 32.8119941656
           1        4                 33.8513856511                 33.7670005767 ***
           1        5                 28.8544614965                 28.8544615203
           1        6                 59.6326952547                 59.6327656460
           1        7                 60.2719308513                 60.2719305949
           2        8               -273.4529726040               -273.4529710510
           2        9                -10.7721037319                -10.7721022091
           2       10                 17.6044132601                 17.6044162068
           2       11                 53.7706460658                 53.7706913775
           2       12                 15.0973290362                 15.0973256023
           2       13                  3.8545134692                  3.8545724671
           2       14                 12.1156992592                 12.1182024429
           2       15                 29.4352039302                 29.4352041819
           2       16                 54.8741144708                 54.8740268730
           2       17                 59.3556032049                 59.3556031384
           2       18                 93.4551837154                 93.4551838010
           3       19              -2760.6404887023              -2760.6391663390
           3       20               -252.7470135404               -252.7470033792
           3       21                -20.4099766545                -20.4099452961
           3       22                  8.9880683035                  8.9931146792
           3       23               -191.6404587283               -191.6404582884
           3       24                 -8.5668684731                 -8.5677140829
           3       25                  8.1442214099                  8.1082388447 ***
           3       26                  7.0580434359                  7.0555511342
 * Note: Onsite integrals marked "***" above are less accurate than
 * onsite_accuracy_threshold =    0.03000 eV. Usually, this is harmless.
 * When in doubt, tighten the "radial" and/or "radial_multiplier" flags to check.

  Preparing densities etc. for the partition functions (integrals / Hartree potential).

  Preparations completed.
  max(cpu_time)          :      0.388 s.
  Wall clock time (cpu1) :      0.467 s.
------------------------------------------------------------

------------------------------------------------------------
          Begin self-consistency loop: Initialization.

          Date     :  20180214, Time     :  160354.725
------------------------------------------------------------

  Initializing index lists of integration centers etc. from given atomic structure:
  | Number of centers in hartree potential         :         6
  | Number of centers in hartree multipole         :         6
  | Number of centers in electron density summation:         6
  | Number of centers in basis integrals           :         6
  | Number of centers in integrals                 :         6
  | Number of centers in hamiltonian               :         6
  Partitioning the integration grid into batches with parallel hashing+maxmin method.
  | Number of batches:      952
  | Maximal batch size:     200
  | Minimal batch size:      49
  | Average batch size:      83.748
  | Standard deviation of batch sizes:      25.867

  Integration load balanced across     8 MPI tasks.
  Work distribution over tasks is as follows:
  Task     0 has       9994 integration points.
  Task     1 has       9999 integration points.
  Task     2 has       9930 integration points.
  Task     3 has       9909 integration points.
  Task     4 has       9964 integration points.
  Task     5 has       9927 integration points.
  Task     6 has      10006 integration points.
  Task     7 has       9999 integration points.
  Initializing partition tables, free-atom densities, potentials, etc. across the integration grid (initialize_grid_storage).
  | initialize_grid_storage: Actual outermost partition radius vs. multipole_radius_free
  | (-- VB: in principle, multipole_radius_free should be larger, hence this output)
  | Species        1: Confinement radius =              6.000000000000000 AA, multipole_radius_free =              6.071692442739658 AA.
  | Species        1: outer_partition_radius set to              6.071692442739658 AA .
  | Species        2: Confinement radius =              6.000000000000000 AA, multipole_radius_free =              6.029870734432609 AA.
  | Species        2: outer_partition_radius set to              6.029870734432609 AA .
  | Species        3: Confinement radius =              4.999999999999999 AA, multipole_radius_free =              5.007919576009533 AA.
  | Species        3: outer_partition_radius set to              5.007919576009533 AA .
  | Original list of interatomic distances with           6 x          6 entries is created.
  | Net number of integration points:    79728
  | of which are non-zero points    :    69285
  Renormalizing the initial density to the exact electron count on the 3D integration grid.
  | Initial density: Formal number of electrons (from input files) :      43.0000000000
  | Integrated number of electrons on 3D grid     :      42.9999382251
  | Charge integration error                      :      -0.0000617749
  | Normalization factor for density and gradient :       1.0000014366
  Obtaining max. number of non-zero basis functions in each batch (get_n_compute_maxes).
  | Maximal number of non-zero basis functions:      117 in task     0
  | Maximal number of non-zero basis functions:      118 in task     1
  | Maximal number of non-zero basis functions:      118 in task     2
  | Maximal number of non-zero basis functions:      118 in task     3
  | Maximal number of non-zero basis functions:      117 in task     4
  | Maximal number of non-zero basis functions:      118 in task     5
  | Maximal number of non-zero basis functions:      118 in task     6
  | Maximal number of non-zero basis functions:      118 in task     7
  Selecting the method for density update.
  Loop over occupied states selected for charge density update.
  Allocating        0.035 MB for KS_eigenvector
  Integrating Hamiltonian matrix: batch-based integration.
  Time summed over all CPUs for integration: real work        1.827 s, elapsed        2.054 s
  Integrating overlap matrix.
  Time summed over all CPUs for integration: real work        0.670 s, elapsed        0.687 s

  Updating Kohn-Sham eigenvalues, eigenvectors, occupation numbers, and Fermi level.
  Solving generalized eigenproblem
  Updating Kohn-Sham eigenvalues and eigenfunctions.
  Transforming overlap matrix and checking for singularities.
  Overlap matrix is nonsingular:
  | Lowest eigenvalue:  0.205620E-03
  Solving real generalised eigenvalue problem by standard LAPACK (fast)

  Obtaining occupation numbers and chemical potential using ELSI.
  | Chemical potential (Fermi level):    -4.19004478eV
  Writing Kohn-Sham eigenvalues.

  State    Occupation    Eigenvalue [Ha]    Eigenvalue [eV]
      1       2.00000        -101.459613        -2760.85654
      2       2.00000        -101.452138        -2760.65315
      3       2.00000         -10.163896         -276.57370
      4       2.00000          -9.297165         -252.98874
      5       2.00000          -9.288805         -252.76126
      6       2.00000          -7.052327         -191.90358
      7       2.00000          -7.050967         -191.86658
      8       2.00000          -7.050967         -191.86658
      9       2.00000          -7.043219         -191.65574
     10       2.00000          -7.043153         -191.65394
     11       2.00000          -7.043153         -191.65394
     12       2.00000          -0.853145          -23.21525
     13       2.00000          -0.763900          -20.78678
     14       2.00000          -0.739144          -20.11313
     15       2.00000          -0.535254          -14.56499
     16       2.00000          -0.535253          -14.56498
     17       2.00000          -0.452491          -12.31291
     18       2.00000          -0.324100           -8.81921
     19       2.00000          -0.324099           -8.81917
     20       2.00000          -0.317359           -8.63577
     21       2.00000          -0.315577           -8.58730
     22       2.00000          -0.315577           -8.58730
     23       0.00000          -0.120771           -3.28636
     24       0.00000          -0.043565           -1.18546
     25       0.00000           0.001452            0.03952
     26       0.00000           0.001457            0.03965
     27       0.00000           0.060503            1.64636
     28       0.00000           0.060510            1.64655
     29       0.00000           0.099198            2.69931
     30       0.00000           0.130539            3.55214
     31       0.00000           0.173144            4.71148
     32       0.00000           0.173156            4.71182
     33       0.00000           0.199386            5.42558
     34       0.00000           0.199391            5.42571
     35       0.00000           0.215717            5.86996
     36       0.00000           0.243296            6.62041

  Highest occupied state (VBM) at     -8.58729520 eV
  | Occupation number:      2.00000000

  Lowest unoccupied state (CBM) at    -3.28635834 eV
  | Occupation number:      0.00000000

  Overall HOMO-LUMO gap:      5.30093686 eV.
  Calculating total energy contributions from superposition of free atom densities.

  Total energy components:
  | Sum of eigenvalues            :        -558.84260801 Ha      -15206.88108162 eV
  | XC energy correction          :         -62.47045769 Ha       -1699.90764415 eV
  | XC potential correction       :          80.71108451 Ha        2196.26035415 eV
  | Free-atom electrostatic energy:        -424.17953226 Ha      -11542.51234929 eV
  | Hartree energy correction     :           0.00000000 Ha           0.00000000 eV
  | vdW energy correction         :           0.00000000 Ha           0.00000000 eV
  | Entropy correction            :           0.00000000 Ha           0.00000000 eV
  | ---------------------------
  | Total energy                  :        -964.78151345 Ha      -26253.04072092 eV
  | Total energy, T -> 0          :        -964.78151345 Ha      -26253.04072092 eV  <-- do not rely on this value for anything but (periodic) metals
  | Electronic free energy        :        -964.78151345 Ha      -26253.04072092 eV

  Derived energy quantities:
  | Kinetic energy                :         967.26485687 Ha       26320.61593372 eV
  | Electrostatic energy          :       -1869.57591263 Ha      -50873.74901049 eV
  | Energy correction for multipole
  | error in Hartree potential    :           0.00000000 Ha           0.00000000 eV
  | Sum of eigenvalues per atom                           :       -2534.48018027 eV
  | Total energy (T->0) per atom                          :       -4375.50678682 eV  <-- do not rely on this value for anything but (periodic) metals
  | Electronic free energy per atom                       :       -4375.50678682 eV
  Initialize hartree_potential_storage
  Max. number of atoms included in rho_multipole:            6

  End scf initialization - timings             :  max(cpu_time)    wall_clock(cpu1)
  | Time for scf. initialization               :        0.604 s           0.608 s
  | Boundary condition initialization          :        0.000 s           0.000 s
  | Integration                                :        0.380 s           0.380 s
  | Solution of K.-S. eqns.                    :        0.016 s           0.016 s
  | Grid partitioning                          :        0.080 s           0.080 s
  | Preloading free-atom quantities on grid    :        0.024 s           0.024 s
  | Free-atom superposition energy             :        0.032 s           0.032 s
  | Total energy evaluation                    :        0.000 s           0.001 s

  Partial memory accounting:
  | Current value for overall tracked memory usage on task 0  :           0.267 MB
  | Peak value for overall tracked memory usage on task 0     :           0.826 MB after allocating wave
  | Largest tracked array allocation on task 0 so far         :           0.187 MB  when allocating H_times_psi
  Note:  These values currently only include a subset of arrays which are explicitly tracked.
  The "true" memory usage will be greater.
------------------------------------------------------------

------------------------------------------------------------
          Begin self-consistency iteration #    1

  Date     :  20180214, Time     :  160355.334
------------------------------------------------------------
  Evaluating new KS density.
  Integration grid: deviation in total charge (<rho> - N_e) =   4.973799E-14
  Pulay mixing of updated and previous charge densities.

  Evaluating partitioned Hartree potential by multipole expansion.
  | Analytical far-field extrapolation by fixed multipoles:
  | Hartree multipole sum: apparent total charge =  -0.500614E-01
  Summing up the Hartree potential.
  Time summed over all CPUs for potential: real work        1.237 s, elapsed        1.387 s
  | RMS charge density error from multipole expansion :   0.298358E-03

  Integrating Hamiltonian matrix: batch-based integration.
  Time summed over all CPUs for integration: real work        1.868 s, elapsed        2.123 s

  Updating Kohn-Sham eigenvalues, eigenvectors, occupation numbers, and Fermi level.
  Solving generalized eigenproblem
  Updating Kohn-Sham eigenvalues and eigenfunctions.
  Solving real generalised eigenvalue problem by standard LAPACK (fast)

  Obtaining occupation numbers and chemical potential using ELSI.
  | Chemical potential (Fermi level):    -3.76134262eV
  Writing Kohn-Sham eigenvalues.

  State    Occupation    Eigenvalue [Ha]    Eigenvalue [eV]
      1       2.00000        -101.450465        -2760.60762
      2       2.00000        -101.416794        -2759.69138
      3       2.00000         -10.125281         -275.52293
      4       2.00000          -9.288075         -252.74139
      5       2.00000          -9.256454         -251.88092
      6       2.00000          -7.043739         -191.66988
      7       2.00000          -7.041619         -191.61219
      8       2.00000          -7.041619         -191.61219
      9       2.00000          -7.010583         -190.76768
     10       2.00000          -7.010502         -190.76547
     11       2.00000          -7.010502         -190.76547
     12       2.00000          -0.836233          -22.75507
     13       2.00000          -0.740387          -20.14696
     14       2.00000          -0.720092          -19.59469
     15       2.00000          -0.512475          -13.94516
     16       2.00000          -0.512475          -13.94515
     17       2.00000          -0.437082          -11.89360
     18       2.00000          -0.314029           -8.54517
     19       2.00000          -0.314028           -8.54514
     20       2.00000          -0.294442           -8.01217
     21       2.00000          -0.293216           -7.97882
     22       2.00000          -0.293216           -7.97882
     23       0.00000          -0.104734           -2.84995
     24       0.00000          -0.031455           -0.85594
     25       0.00000           0.014290            0.38886
     26       0.00000           0.014296            0.38901
     27       0.00000           0.072026            1.95993
     28       0.00000           0.072033            1.96011
     29       0.00000           0.110715            3.01270
     30       0.00000           0.143416            3.90254
     31       0.00000           0.187317            5.09716
     32       0.00000           0.187330            5.09750
     33       0.00000           0.210371            5.72448
     34       0.00000           0.210375            5.72460
     35       0.00000           0.229323            6.24019
     36       0.00000           0.259076            7.04982

  Highest occupied state (VBM) at     -7.97882242 eV
  | Occupation number:      2.00000000

  Lowest unoccupied state (CBM) at    -2.84994535 eV
  | Occupation number:      0.00000000

  Overall HOMO-LUMO gap:      5.12887707 eV.

  Total energy components:
  | Sum of eigenvalues            :        -557.92661917 Ha      -15181.95575708 eV
  | XC energy correction          :         -62.51904302 Ha       -1701.22971813 eV
  | XC potential correction       :          80.77436754 Ha        2197.98237293 eV
  | Free-atom electrostatic energy:        -424.17953226 Ha      -11542.51234929 eV
  | Hartree energy correction     :          -0.89406366 Ha         -24.32871007 eV
  | vdW energy correction         :           0.00000000 Ha           0.00000000 eV
  | Entropy correction            :           0.00000000 Ha           0.00000000 eV
  | ---------------------------
  | Total energy                  :        -964.74489057 Ha      -26252.04416164 eV
  | Total energy, T -> 0          :        -964.74489057 Ha      -26252.04416164 eV  <-- do not rely on this value for anything but (periodic) metals
  | Electronic free energy        :        -964.74489057 Ha      -26252.04416164 eV

  Derived energy quantities:
  | Kinetic energy                :         967.52466475 Ha       26327.68566573 eV
  | Electrostatic energy          :       -1869.75051230 Ha      -50878.50010924 eV
  | Energy correction for multipole
  | error in Hartree potential    :          -0.00015786 Ha          -0.00429548 eV
  | Sum of eigenvalues per atom                           :       -2530.32595951 eV
  | Total energy (T->0) per atom                          :       -4375.34069361 eV  <-- do not rely on this value for anything but (periodic) metals
  | Electronic free energy per atom                       :       -4375.34069361 eV

  Self-consistency convergence accuracy:
  | Change of charge density      :  0.3363E+00
  | Change of sum of eigenvalues  :  0.2493E+02 eV
  | Change of total energy        :  0.9966E+00 eV

  End self-consistency iteration #     1       :  max(cpu_time)    wall_clock(cpu1)
  | Time for this iteration                    :        0.832 s           0.829 s
  | Charge density update                      :        0.312 s           0.309 s
  | Density mixing                             :        0.004 s           0.002 s
  | Hartree multipole update                   :        0.024 s           0.021 s
  | Hartree multipole summation                :        0.192 s           0.193 s
  | Integration                                :        0.296 s           0.296 s
  | Solution of K.-S. eqns.                    :        0.004 s           0.005 s
  | Total energy evaluation                    :        0.000 s           0.000 s

  Partial memory accounting:
  | Current value for overall tracked memory usage on task 0  :           0.267 MB
  | Peak value for overall tracked memory usage on task 0     :           1.016 MB after allocating gradient_basis_wave
  | Largest tracked array allocation on task 0 so far         :           0.562 MB  when allocating gradient_basis_wave
  Note:  These values currently only include a subset of arrays which are explicitly tracked.
  The "true" memory usage will be greater.
------------------------------------------------------------

------------------------------------------------------------
          Begin self-consistency iteration #    2

  Date     :  20180214, Time     :  160356.163
------------------------------------------------------------
  Evaluating new KS density.
  Integration grid: deviation in total charge (<rho> - N_e) =   2.842171E-14
  Pulay mixing of updated and previous charge densities.

  Evaluating partitioned Hartree potential by multipole expansion.
  | Analytical far-field extrapolation by fixed multipoles:
  | Hartree multipole sum: apparent total charge =  -0.410774E+00
  Summing up the Hartree potential.
  Time summed over all CPUs for potential: real work        1.206 s, elapsed        1.268 s
  | RMS charge density error from multipole expansion :   0.240452E-02

  Integrating Hamiltonian matrix: batch-based integration.
  Time summed over all CPUs for integration: real work        1.852 s, elapsed        2.100 s

  Updating Kohn-Sham eigenvalues, eigenvectors, occupation numbers, and Fermi level.
  Solving generalized eigenproblem
  Updating Kohn-Sham eigenvalues and eigenfunctions.
  Solving real generalised eigenvalue problem by standard LAPACK (fast)

  Obtaining occupation numbers and chemical potential using ELSI.
  | Chemical potential (Fermi level):    -1.59003514eV
  Highest occupied state (VBM) at     -3.69801320 eV
  | Occupation number:      2.00000000

  Lowest unoccupied state (CBM) at     0.27700555 eV
  | Occupation number:      0.00000000

  Overall HOMO-LUMO gap:      3.97501875 eV.

  Checking to see if s.c.f. parameters should be adjusted.
  The system likely has a gap. Increased the default Pulay mixing parameter (charge_mix_param). Value:   0.200000 .
  Kept the default occupation width. Value:   0.010000 eV.

  Total energy components:
  | Sum of eigenvalues            :        -551.57731160 Ha      -15009.18230746 eV
  | XC energy correction          :         -62.86466518 Ha       -1710.63457567 eV
  | XC potential correction       :          81.22426320 Ha        2210.22465671 eV
  | Free-atom electrostatic energy:        -424.17953226 Ha      -11542.51234929 eV
  | Hartree energy correction     :          -7.19636559 Ha        -195.82307095 eV
  | vdW energy correction         :           0.00000000 Ha           0.00000000 eV
  | Entropy correction            :           0.00000000 Ha           0.00000000 eV
  | ---------------------------
  | Total energy                  :        -964.59361142 Ha      -26247.92764667 eV
  | Total energy, T -> 0          :        -964.59361142 Ha      -26247.92764667 eV  <-- do not rely on this value for anything but (periodic) metals
  | Electronic free energy        :        -964.59361142 Ha      -26247.92764667 eV

  Derived energy quantities:
  | Kinetic energy                :         969.09570835 Ha       26370.43593718 eV
  | Electrostatic energy          :       -1870.82465459 Ha      -50907.72900817 eV
  | Energy correction for multipole
  | error in Hartree potential    :          -0.00127292 Ha          -0.03463796 eV
  | Sum of eigenvalues per atom                           :       -2501.53038458 eV
  | Total energy (T->0) per atom                          :       -4374.65460778 eV  <-- do not rely on this value for anything but (periodic) metals
  | Electronic free energy per atom                       :       -4374.65460778 eV

  Self-consistency convergence accuracy:
  | Change of charge density      :  0.3051E+00
  | Change of sum of eigenvalues  :  0.1728E+03 eV
  | Change of total energy        :  0.4117E+01 eV

  End self-consistency iteration #     2       :  max(cpu_time)    wall_clock(cpu1)
  | Time for this iteration                    :        0.768 s           0.768 s
  | Charge density update                      :        0.276 s           0.275 s
  | Density mixing                             :        0.004 s           0.003 s
  | Hartree multipole update                   :        0.016 s           0.016 s
  | Hartree multipole summation                :        0.176 s           0.176 s
  | Integration                                :        0.292 s           0.290 s
  | Solution of K.-S. eqns.                    :        0.004 s           0.003 s
  | Total energy evaluation                    :        0.000 s           0.001 s

  Partial memory accounting:
  | Current value for overall tracked memory usage on task 0  :           0.268 MB
  | Peak value for overall tracked memory usage on task 0     :           1.016 MB after allocating gradient_basis_wave
  | Largest tracked array allocation on task 0 so far         :           0.562 MB  when allocating gradient_basis_wave
  Note:  These values currently only include a subset of arrays which are explicitly tracked.
  The "true" memory usage will be greater.
------------------------------------------------------------

------------------------------------------------------------
          Begin self-consistency iteration #    3

  Date     :  20180214, Time     :  160356.933
------------------------------------------------------------
  Evaluating new KS density.
  Integration grid: deviation in total charge (<rho> - N_e) =   2.842171E-14
  Pulay mixing of updated and previous charge densities.

  Evaluating partitioned Hartree potential by multipole expansion.
  | Analytical far-field extrapolation by fixed multipoles:
  | Hartree multipole sum: apparent total charge =  -0.646331E+00
  Summing up the Hartree potential.
  Time summed over all CPUs for potential: real work        1.250 s, elapsed        1.364 s
  | RMS charge density error from multipole expansion :   0.352154E-02

  Integrating Hamiltonian matrix: batch-based integration.
  Time summed over all CPUs for integration: real work        1.832 s, elapsed        2.119 s

  Updating Kohn-Sham eigenvalues, eigenvectors, occupation numbers, and Fermi level.
  Solving generalized eigenproblem
  Updating Kohn-Sham eigenvalues and eigenfunctions.
  Solving real generalised eigenvalue problem by standard LAPACK (fast)

  Obtaining occupation numbers and chemical potential using ELSI.
  | Chemical potential (Fermi level):    -0.34401022eV
  Highest occupied state (VBM) at     -2.24489808 eV
  | Occupation number:      2.00000000

  Lowest unoccupied state (CBM) at     1.63005214 eV
  | Occupation number:      0.00000000

  Overall HOMO-LUMO gap:      3.87495022 eV.

  Total energy components:
  | Sum of eigenvalues            :        -549.28813811 Ha      -14946.89072741 eV
  | XC energy correction          :         -62.95500217 Ha       -1713.09277038 eV
  | XC potential correction       :          81.34059878 Ha        2213.39030897 eV
  | Free-atom electrostatic energy:        -424.17953226 Ha      -11542.51234929 eV
  | Hartree energy correction     :          -9.48151432 Ha        -258.00513176 eV
  | vdW energy correction         :           0.00000000 Ha           0.00000000 eV
  | Entropy correction            :           0.00000000 Ha           0.00000000 eV
  | ---------------------------
  | Total energy                  :        -964.56358808 Ha      -26247.11066987 eV
  | Total energy, T -> 0          :        -964.56358808 Ha      -26247.11066987 eV  <-- do not rely on this value for anything but (periodic) metals
  | Electronic free energy        :        -964.56358808 Ha      -26247.11066987 eV

  Derived energy quantities:
  | Kinetic energy                :         968.98991920 Ha       26367.55726787 eV
  | Electrostatic energy          :       -1870.59850510 Ha      -50901.57516735 eV
  | Energy correction for multipole
  | error in Hartree potential    :          -0.00176363 Ha          -0.04799076 eV
  | Sum of eigenvalues per atom                           :       -2491.14845457 eV
  | Total energy (T->0) per atom                          :       -4374.51844498 eV  <-- do not rely on this value for anything but (periodic) metals
  | Electronic free energy per atom                       :       -4374.51844498 eV

  Self-consistency convergence accuracy:
  | Change of charge density      :  0.1574E+00
  | Change of sum of eigenvalues  :  0.6229E+02 eV
  | Change of total energy        :  0.8170E+00 eV

  End self-consistency iteration #     3       :  max(cpu_time)    wall_clock(cpu1)
  | Time for this iteration                    :        0.824 s           0.824 s
  | Charge density update                      :        0.304 s           0.304 s
  | Density mixing                             :        0.008 s           0.007 s
  | Hartree multipole update                   :        0.024 s           0.026 s
  | Hartree multipole summation                :        0.192 s           0.189 s
  | Integration                                :        0.292 s           0.293 s
  | Solution of K.-S. eqns.                    :        0.004 s           0.003 s
  | Total energy evaluation                    :        0.000 s           0.000 s

  Partial memory accounting:
  | Current value for overall tracked memory usage on task 0  :           0.268 MB
  | Peak value for overall tracked memory usage on task 0     :           1.016 MB after allocating gradient_basis_wave
  | Largest tracked array allocation on task 0 so far         :           0.562 MB  when allocating gradient_basis_wave
  Note:  These values currently only include a subset of arrays which are explicitly tracked.
  The "true" memory usage will be greater.
------------------------------------------------------------

------------------------------------------------------------
          Begin self-consistency iteration #    4

  Date     :  20180214, Time     :  160357.758
------------------------------------------------------------
  Evaluating new KS density.
  Integration grid: deviation in total charge (<rho> - N_e) =  -7.105427E-15
  Pulay mixing of updated and previous charge densities.

  Evaluating partitioned Hartree potential by multipole expansion.
  | Analytical far-field extrapolation by fixed multipoles:
  | Hartree multipole sum: apparent total charge =  -0.918051E+00
  Summing up the Hartree potential.
  Time summed over all CPUs for potential: real work        1.224 s, elapsed        1.296 s
  | RMS charge density error from multipole expansion :   0.492039E-02

  Integrating Hamiltonian matrix: batch-based integration.
  Time summed over all CPUs for integration: real work        1.773 s, elapsed        1.809 s

  Updating Kohn-Sham eigenvalues, eigenvectors, occupation numbers, and Fermi level.
  Solving generalized eigenproblem
  Updating Kohn-Sham eigenvalues and eigenfunctions.
  Solving real generalised eigenvalue problem by standard LAPACK (fast)

  Obtaining occupation numbers and chemical potential using ELSI.
  | Chemical potential (Fermi level):     1.04161909eV
  Highest occupied state (VBM) at     -0.67999174 eV
  | Occupation number:      2.00000000

  Lowest unoccupied state (CBM) at     3.02253456 eV
  | Occupation number:      0.00000000

  Overall HOMO-LUMO gap:      3.70252629 eV.

  Total energy components:
  | Sum of eigenvalues            :        -546.98414821 Ha      -14884.19597238 eV
  | XC energy correction          :         -63.03781812 Ha       -1715.34630704 eV
  | XC potential correction       :          81.44682268 Ha        2216.28080827 eV
  | Free-atom electrostatic energy:        -424.17953226 Ha      -11542.51234929 eV
  | Hartree energy correction     :         -11.79436859 Ha        -320.94109866 eV
  | vdW energy correction         :           0.00000000 Ha           0.00000000 eV
  | Entropy correction            :           0.00000000 Ha           0.00000000 eV
  | ---------------------------
  | Total energy                  :        -964.54904450 Ha      -26246.71491910 eV
  | Total energy, T -> 0          :        -964.54904450 Ha      -26246.71491910 eV  <-- do not rely on this value for anything but (periodic) metals
  | Electronic free energy        :        -964.54904450 Ha      -26246.71491910 eV

  Derived energy quantities:
  | Kinetic energy                :         968.61722846 Ha       26357.41583695 eV
  | Electrostatic energy          :       -1870.12845484 Ha      -50888.78444902 eV
  | Energy correction for multipole
  | error in Hartree potential    :          -0.00230918 Ha          -0.06283598 eV
  | Sum of eigenvalues per atom                           :       -2480.69932873 eV
  | Total energy (T->0) per atom                          :       -4374.45248652 eV  <-- do not rely on this value for anything but (periodic) metals
  | Electronic free energy per atom                       :       -4374.45248652 eV

  Self-consistency convergence accuracy:
  | Change of charge density      :  0.9469E-01
  | Change of sum of eigenvalues  :  0.6269E+02 eV
  | Change of total energy        :  0.3958E+00 eV

  End self-consistency iteration #     4       :  max(cpu_time)    wall_clock(cpu1)
  | Time for this iteration                    :        0.800 s           0.801 s
  | Charge density update                      :        0.288 s           0.286 s
  | Density mixing                             :        0.008 s           0.025 s
  | Hartree multipole update                   :        0.056 s           0.055 s
  | Hartree multipole summation                :        0.180 s           0.180 s
  | Integration                                :        0.252 s           0.251 s
  | Solution of K.-S. eqns.                    :        0.004 s           0.003 s
  | Total energy evaluation                    :        0.000 s           0.001 s

  Partial memory accounting:
  | Current value for overall tracked memory usage on task 0  :           0.268 MB
  | Peak value for overall tracked memory usage on task 0     :           1.016 MB after allocating gradient_basis_wave
  | Largest tracked array allocation on task 0 so far         :           0.562 MB  when allocating gradient_basis_wave
  Note:  These values currently only include a subset of arrays which are explicitly tracked.
  The "true" memory usage will be greater.
------------------------------------------------------------

------------------------------------------------------------
          Begin self-consistency iteration #    5

  Date     :  20180214, Time     :  160358.560
------------------------------------------------------------
  Evaluating new KS density.
  Integration grid: deviation in total charge (<rho> - N_e) =   0.000000E+00
  Pulay mixing of updated and previous charge densities.

  Evaluating partitioned Hartree potential by multipole expansion.
  | Analytical far-field extrapolation by fixed multipoles:
  | Hartree multipole sum: apparent total charge =  -0.980203E+00
  Summing up the Hartree potential.
  Time summed over all CPUs for potential: real work        1.209 s, elapsed        1.270 s
  | RMS charge density error from multipole expansion :   0.528362E-02

  Integrating Hamiltonian matrix: batch-based integration.
  Time summed over all CPUs for integration: real work        1.811 s, elapsed        1.894 s

  Updating Kohn-Sham eigenvalues, eigenvectors, occupation numbers, and Fermi level.
  Solving generalized eigenproblem
  Updating Kohn-Sham eigenvalues and eigenfunctions.
  Solving real generalised eigenvalue problem by standard LAPACK (fast)

  Obtaining occupation numbers and chemical potential using ELSI.
  | Chemical potential (Fermi level):     1.26353995eV
  Highest occupied state (VBM) at     -0.26781499 eV
  | Occupation number:      2.00000000

  Lowest unoccupied state (CBM) at     3.22979042 eV
  | Occupation number:      0.00000000

  Overall HOMO-LUMO gap:      3.49760541 eV.

  Total energy components:
  | Sum of eigenvalues            :        -546.66820827 Ha      -14875.59880924 eV
  | XC energy correction          :         -63.03811293 Ha       -1715.35432908 eV
  | XC potential correction       :          81.44677449 Ha        2216.27949681 eV
  | Free-atom electrostatic energy:        -424.17953226 Ha      -11542.51234929 eV
  | Hartree energy correction     :         -12.10902877 Ha        -329.50343777 eV
  | vdW energy correction         :           0.00000000 Ha           0.00000000 eV
  | Entropy correction            :           0.00000000 Ha           0.00000000 eV
  | ---------------------------
  | Total energy                  :        -964.54810774 Ha      -26246.68942858 eV
  | Total energy, T -> 0          :        -964.54810774 Ha      -26246.68942858 eV  <-- do not rely on this value for anything but (periodic) metals
  | Electronic free energy        :        -964.54810774 Ha      -26246.68942858 eV

  Derived energy quantities:
  | Kinetic energy                :         968.36761328 Ha       26350.62346239 eV
  | Electrostatic energy          :       -1869.87760810 Ha      -50881.95856189 eV
  | Energy correction for multipole
  | error in Hartree potential    :          -0.00243710 Ha          -0.06631688 eV
  | Sum of eigenvalues per atom                           :       -2479.26646821 eV
  | Total energy (T->0) per atom                          :       -4374.44823810 eV  <-- do not rely on this value for anything but (periodic) metals
  | Electronic free energy per atom                       :       -4374.44823810 eV

  Self-consistency convergence accuracy:
  | Change of charge density      :  0.3094E-01
  | Change of sum of eigenvalues  :  0.8597E+01 eV
  | Change of total energy        :  0.2549E-01 eV

  End self-consistency iteration #     5       :  max(cpu_time)    wall_clock(cpu1)
  | Time for this iteration                    :        0.736 s           0.733 s
  | Charge density update                      :        0.264 s           0.264 s
  | Density mixing                             :        0.012 s           0.010 s
  | Hartree multipole update                   :        0.016 s           0.017 s
  | Hartree multipole summation                :        0.176 s           0.176 s
  | Integration                                :        0.264 s           0.262 s
  | Solution of K.-S. eqns.                    :        0.004 s           0.003 s
  | Total energy evaluation                    :        0.000 s           0.001 s

  Partial memory accounting:
  | Current value for overall tracked memory usage on task 0  :           0.268 MB
  | Peak value for overall tracked memory usage on task 0     :           1.016 MB after allocating gradient_basis_wave
  | Largest tracked array allocation on task 0 so far         :           0.562 MB  when allocating gradient_basis_wave
  Note:  These values currently only include a subset of arrays which are explicitly tracked.
  The "true" memory usage will be greater.
------------------------------------------------------------

------------------------------------------------------------
          Begin self-consistency iteration #    6

  Date     :  20180214, Time     :  160359.294
------------------------------------------------------------
  Evaluating new KS density.
  Integration grid: deviation in total charge (<rho> - N_e) =   1.421085E-14
  Pulay mixing of updated and previous charge densities.

  Evaluating partitioned Hartree potential by multipole expansion.
  | Analytical far-field extrapolation by fixed multipoles:
  | Hartree multipole sum: apparent total charge =  -0.100545E+01
  Summing up the Hartree potential.
  Time summed over all CPUs for potential: real work        1.207 s, elapsed        1.262 s
  | RMS charge density error from multipole expansion :   0.545463E-02

  Integrating Hamiltonian matrix: batch-based integration.
  Time summed over all CPUs for integration: real work        1.759 s, elapsed        1.823 s

  Updating Kohn-Sham eigenvalues, eigenvectors, occupation numbers, and Fermi level.
  Solving generalized eigenproblem
  Updating Kohn-Sham eigenvalues and eigenfunctions.
  Solving real generalised eigenvalue problem by standard LAPACK (fast)

  Obtaining occupation numbers and chemical potential using ELSI.
  | Chemical potential (Fermi level):     1.41212586eV
  Highest occupied state (VBM) at     -0.14790163 eV
  | Occupation number:      2.00000000

  Lowest unoccupied state (CBM) at     3.39494189 eV
  | Occupation number:      0.00000000

  Overall HOMO-LUMO gap:      3.54284353 eV.

  Total energy components:
  | Sum of eigenvalues            :        -546.44991718 Ha      -14869.65880639 eV
  | XC energy correction          :         -63.04539590 Ha       -1715.55250891 eV
  | XC potential correction       :          81.45617983 Ha        2216.53542933 eV
  | Free-atom electrostatic energy:        -424.17953226 Ha      -11542.51234929 eV
  | Hartree energy correction     :         -12.32939077 Ha        -335.49979291 eV
  | vdW energy correction         :           0.00000000 Ha           0.00000000 eV
  | Entropy correction            :           0.00000000 Ha           0.00000000 eV
  | ---------------------------
  | Total energy                  :        -964.54805628 Ha      -26246.68802818 eV
  | Total energy, T -> 0          :        -964.54805628 Ha      -26246.68802818 eV  <-- do not rely on this value for anything but (periodic) metals
  | Electronic free energy        :        -964.54805628 Ha      -26246.68802818 eV

  Derived energy quantities:
  | Kinetic energy                :         968.32675075 Ha       26349.51153629 eV
  | Electrostatic energy          :       -1869.82941113 Ha      -50880.64705555 eV
  | Energy correction for multipole
  | error in Hartree potential    :          -0.00248088 Ha          -0.06750810 eV
  | Sum of eigenvalues per atom                           :       -2478.27646773 eV
  | Total energy (T->0) per atom                          :       -4374.44800470 eV  <-- do not rely on this value for anything but (periodic) metals
  | Electronic free energy per atom                       :       -4374.44800470 eV

  Self-consistency convergence accuracy:
  | Change of charge density      :  0.1064E-01
  | Change of sum of eigenvalues  :  0.5940E+01 eV
  | Change of total energy        :  0.1400E-02 eV

  End self-consistency iteration #     6       :  max(cpu_time)    wall_clock(cpu1)
  | Time for this iteration                    :        0.716 s           0.717 s
  | Charge density update                      :        0.260 s           0.256 s
  | Density mixing                             :        0.016 s           0.013 s
  | Hartree multipole update                   :        0.016 s           0.016 s
  | Hartree multipole summation                :        0.176 s           0.176 s
  | Integration                                :        0.252 s           0.252 s
  | Solution of K.-S. eqns.                    :        0.004 s           0.003 s
  | Total energy evaluation                    :        0.000 s           0.001 s

  Partial memory accounting:
  | Current value for overall tracked memory usage on task 0  :           0.268 MB
  | Peak value for overall tracked memory usage on task 0     :           1.016 MB after allocating gradient_basis_wave
  | Largest tracked array allocation on task 0 so far         :           0.562 MB  when allocating gradient_basis_wave
  Note:  These values currently only include a subset of arrays which are explicitly tracked.
  The "true" memory usage will be greater.
------------------------------------------------------------

------------------------------------------------------------
          Begin self-consistency iteration #    7

  Date     :  20180214, Time     :  160400.012
------------------------------------------------------------
  Evaluating new KS density.
  Integration grid: deviation in total charge (<rho> - N_e) =   2.131628E-14
  Pulay mixing of updated and previous charge densities.

  Evaluating partitioned Hartree potential by multipole expansion.
  | Analytical far-field extrapolation by fixed multipoles:
  | Hartree multipole sum: apparent total charge =  -0.998632E+00
  Summing up the Hartree potential.
  Time summed over all CPUs for potential: real work        1.197 s, elapsed        1.257 s
  | RMS charge density error from multipole expansion :   0.542930E-02

  Integrating Hamiltonian matrix: batch-based integration.
  Time summed over all CPUs for integration: real work        1.843 s, elapsed        2.431 s => Consider using load balancing!

  Updating Kohn-Sham eigenvalues, eigenvectors, occupation numbers, and Fermi level.
  Solving generalized eigenproblem
  Updating Kohn-Sham eigenvalues and eigenfunctions.
  Solving real generalised eigenvalue problem by standard LAPACK (fast)

  Obtaining occupation numbers and chemical potential using ELSI.
  | Chemical potential (Fermi level):     1.37180717eV
  Highest occupied state (VBM) at     -0.18642072 eV
  | Occupation number:      2.00000000

  Lowest unoccupied state (CBM) at     3.35151752 eV
  | Occupation number:      0.00000000

  Overall HOMO-LUMO gap:      3.53793824 eV.

  Total energy components:
  | Sum of eigenvalues            :        -546.52245879 Ha      -14871.63276409 eV
  | XC energy correction          :         -63.04201511 Ha       -1715.46051274 eV
  | XC potential correction       :          81.45181173 Ha        2216.41656708 eV
  | Free-atom electrostatic energy:        -424.17953226 Ha      -11542.51234929 eV
  | Hartree energy correction     :         -12.25585336 Ha        -333.49873808 eV
  | vdW energy correction         :           0.00000000 Ha           0.00000000 eV
  | Entropy correction            :           0.00000000 Ha           0.00000000 eV
  | ---------------------------
  | Total energy                  :        -964.54804779 Ha      -26246.68779712 eV
  | Total energy, T -> 0          :        -964.54804779 Ha      -26246.68779712 eV  <-- do not rely on this value for anything but (periodic) metals
  | Electronic free energy        :        -964.54804779 Ha      -26246.68779712 eV

  Derived energy quantities:
  | Kinetic energy                :         968.32903569 Ha       26349.57371280 eV
  | Electrostatic energy          :       -1869.83506838 Ha      -50880.80099719 eV
  | Energy correction for multipole
  | error in Hartree potential    :          -0.00246273 Ha          -0.06701426 eV
  | Sum of eigenvalues per atom                           :       -2478.60546068 eV
  | Total energy (T->0) per atom                          :       -4374.44796619 eV  <-- do not rely on this value for anything but (periodic) metals
  | Electronic free energy per atom                       :       -4374.44796619 eV

  Self-consistency convergence accuracy:
  | Change of charge density      :  0.4353E-02
  | Change of sum of eigenvalues  : -0.1974E+01 eV
  | Change of total energy        :  0.2311E-03 eV

  End self-consistency iteration #     7       :  max(cpu_time)    wall_clock(cpu1)
  | Time for this iteration                    :        0.812 s           0.811 s
  | Charge density update                      :        0.264 s           0.264 s
  | Density mixing                             :        0.016 s           0.016 s
  | Hartree multipole update                   :        0.016 s           0.016 s
  | Hartree multipole summation                :        0.176 s           0.175 s
  | Integration                                :        0.336 s           0.336 s
  | Solution of K.-S. eqns.                    :        0.004 s           0.003 s
  | Total energy evaluation                    :        0.004 s           0.001 s

  Partial memory accounting:
  | Current value for overall tracked memory usage on task 0  :           0.268 MB
  | Peak value for overall tracked memory usage on task 0     :           1.016 MB after allocating gradient_basis_wave
  | Largest tracked array allocation on task 0 so far         :           0.562 MB  when allocating gradient_basis_wave
  Note:  These values currently only include a subset of arrays which are explicitly tracked.
  The "true" memory usage will be greater.
------------------------------------------------------------

------------------------------------------------------------
          Begin self-consistency iteration #    8

  Date     :  20180214, Time     :  160400.824
------------------------------------------------------------
  Evaluating new KS density.
  Integration grid: deviation in total charge (<rho> - N_e) =   1.421085E-14
  Pulay mixing of updated and previous charge densities.

  Evaluating partitioned Hartree potential by multipole expansion.
  | Analytical far-field extrapolation by fixed multipoles:
  | Hartree multipole sum: apparent total charge =  -0.100047E+01
  Summing up the Hartree potential.
  Time summed over all CPUs for potential: real work        1.195 s, elapsed        1.260 s
  | RMS charge density error from multipole expansion :   0.545400E-02

  Integrating Hamiltonian matrix: batch-based integration.
  Time summed over all CPUs for integration: real work        1.765 s, elapsed        1.817 s

[...]
     10       2.00000          -6.699819         -182.31135
     11       2.00000          -6.699819         -182.31135
     12       2.00000          -0.616478          -16.77523
     13       2.00000          -0.460149          -12.52128
     14       2.00000          -0.430589          -11.71692
     15       2.00000          -0.235809           -6.41669
     16       2.00000          -0.235809           -6.41668
     17       2.00000          -0.214092           -5.82574
     18       2.00000          -0.116258           -3.16353
     19       2.00000          -0.116255           -3.16347
     20       2.00000          -0.009035           -0.24587
     21       2.00000          -0.006117           -0.16646
     22       2.00000          -0.006117           -0.16646
     23       0.00000           0.123308            3.35539
     24       0.00000           0.141065            3.83857
     25       0.00000           0.175297            4.77006
     26       0.00000           0.175311            4.77046
     27       0.00000           0.261474            7.11507
     28       0.00000           0.261482            7.11529
     29       0.00000           0.289892            7.88837
     30       0.00000           0.335909            9.14054
     31       0.00000           0.386576           10.51927
     32       0.00000           0.386593           10.51972
     33       0.00000           0.396879           10.79964
     34       0.00000           0.396881           10.79969
     35       0.00000           0.417043           11.34831
     36       0.00000           0.447875           12.18730

  Highest occupied state (VBM) at     -0.16645744 eV
  | Occupation number:      2.00000000

  Lowest unoccupied state (CBM) at     3.35538929 eV
  | Occupation number:      0.00000000

  Overall HOMO-LUMO gap:      3.52184672 eV.

  Self-consistency cycle converged.

  End self-consistency iteration #    16       :  max(cpu_time)    wall_clock(cpu1)
  | Time for this iteration                    :        2.320 s           2.320 s
  | Charge density & force component update    :        1.132 s           1.130 s
  | Density mixing                             :        0.020 s           0.018 s
  | Hartree multipole update                   :        0.020 s           0.017 s
  | Hartree multipole summation                :        0.748 s           0.749 s
  | Integration                                :        0.388 s           0.390 s
  | Solution of K.-S. eqns.                    :        0.004 s           0.010 s
  | Total energy evaluation                    :        0.004 s           0.002 s

  Partial memory accounting:
  | Current value for overall tracked memory usage on task 0  :           0.268 MB
  | Peak value for overall tracked memory usage on task 0     :           2.332 MB after allocating hessian_basis_wave
  | Largest tracked array allocation on task 0 so far         :           1.123 MB  when allocating hessian_basis_wave
  Note:  These values currently only include a subset of arrays which are explicitly tracked.
  The "true" memory usage will be greater.
------------------------------------------------------------
  Obtaining max. number of non-zero basis functions in each batch .
  Evaluating KS electron density on previously omitted grid points.
  Evaluating non-empirical van der Waals correction (Tkatchenko/Scheffler 2009).
  Performing Hirshfeld analysis of fragment charges and moments.
  ----------------------------------------------------------------------
  | Atom     1: Cl
  |   Hirshfeld charge        :     -0.75487292
  |   Free atom volume        :     65.35447769
  |   Hirshfeld volume        :     84.37764696
  |   Hirshfeld dipole vector :      0.14502842      -0.00000198       0.00000000
  |   Hirshfeld dipole moment :      0.14502842
  |   Hirshfeld second moments:     -0.40572224      -0.00000106       0.00000000
  |                                 -0.00000106      -0.61412439      -0.00000000
  |                                  0.00000000      -0.00000000      -0.61411423
  ----------------------------------------------------------------------
  | Atom     2: C
  |   Hirshfeld charge        :     -0.09682810
  |   Free atom volume        :     38.37861207
  |   Hirshfeld volume        :     33.50172380
  |   Hirshfeld dipole vector :      0.03037887      -0.00000810       0.00000000
  |   Hirshfeld dipole moment :      0.03037888
  |   Hirshfeld second moments:      0.06406160      -0.00000410       0.00000000
  |                                 -0.00000410       0.12482108       0.00000000
  |                                  0.00000000       0.00000000       0.12481877
  ----------------------------------------------------------------------
  | Atom     3: Cl
  |   Hirshfeld charge        :     -0.22473526
  |   Free atom volume        :     65.35447769
  |   Hirshfeld volume        :     68.25461250
  |   Hirshfeld dipole vector :     -0.11459419       0.00000751      -0.00000000
  |   Hirshfeld dipole moment :      0.11459419
  |   Hirshfeld second moments:      0.04199414       0.00001021      -0.00000000
  |                                  0.00001021      -0.18259754       0.00000000
  |                                 -0.00000000       0.00000000      -0.18260051
  ----------------------------------------------------------------------
  | Atom     4: H
  |   Hirshfeld charge        :      0.02545710
  |   Free atom volume        :     10.31539447
  |   Hirshfeld volume        :      8.32679022
  |   Hirshfeld dipole vector :     -0.00957531       0.07861063      -0.00000000
  |   Hirshfeld dipole moment :      0.07919165
  |   Hirshfeld second moments:      0.02817485       0.00875514       0.00000000
  |                                  0.00875514       0.07312020       0.00000000
  |                                  0.00000000       0.00000000       0.09089322
  ----------------------------------------------------------------------
  | Atom     5: H
  |   Hirshfeld charge        :      0.02546137
  |   Free atom volume        :     10.31539447
  |   Hirshfeld volume        :      8.32690049
  |   Hirshfeld dipole vector :     -0.00958044      -0.03930059       0.06807378
  |   Hirshfeld dipole moment :      0.07918561
  |   Hirshfeld second moments:      0.02816552      -0.00437848       0.00758425
  |                                 -0.00437848       0.08644657       0.00769467
  |                                  0.00758425       0.00769467       0.07756763
  ----------------------------------------------------------------------
  | Atom     6: H
  |   Hirshfeld charge        :      0.02546137
  |   Free atom volume        :     10.31539447
  |   Hirshfeld volume        :      8.32690049
  |   Hirshfeld dipole vector :     -0.00958044      -0.03930059      -0.06807378
  |   Hirshfeld dipole moment :      0.07918561
  |   Hirshfeld second moments:      0.02816552      -0.00437848      -0.00758425
  |                                 -0.00437848       0.08644657      -0.00769467
  |                                 -0.00758425      -0.00769467       0.07756763
  ----------------------------------------------------------------------


  Total energy components:
  | Sum of eigenvalues            :        -546.50051386 Ha      -14871.03561222 eV
  | XC energy correction          :         -63.04383048 Ha       -1715.50991167 eV
  | XC potential correction       :          81.45415619 Ha        2216.48036325 eV
  | Free-atom electrostatic energy:        -424.17953226 Ha      -11542.51234929 eV
  | Hartree energy correction     :         -12.27832355 Ha        -334.11018323 eV
  | vdW energy correction         :          -0.00038708 Ha          -0.01053287 eV
  | Entropy correction            :           0.00000000 Ha           0.00000000 eV
  | ---------------------------
  | Total energy                  :        -964.54843104 Ha      -26246.69822604 eV
  | Total energy, T -> 0          :        -964.54843104 Ha      -26246.69822604 eV  <-- do not rely on this value for anything but (periodic) metals
  | Electronic free energy        :        -964.54843104 Ha      -26246.69822604 eV

  Derived energy quantities:
  | Kinetic energy                :         968.33573080 Ha       26349.75589592 eV
  | Electrostatic energy          :       -1869.83994429 Ha      -50880.93367741 eV
  | Energy correction for multipole
  | error in Hartree potential    :          -0.00245893 Ha          -0.06691080 eV
  | Sum of eigenvalues per atom                           :       -2478.50593537 eV
  | Total energy (T->0) per atom                          :       -4374.44970434 eV  <-- do not rely on this value for anything but (periodic) metals
  | Electronic free energy per atom                       :       -4374.44970434 eV

  atomic forces [eV/Ang]:
  -----------------------
  atom #    1
   Hellmann-Feynman              : -0.235031E+01 -0.184685E-03 -0.980516E-11
   Ionic forces                  :  0.000000E+00  0.000000E+00  0.000000E+00
   Multipole                     :  0.565736E-01  0.926090E-05 -0.243452E-11
   Pulay + GGA                   :  0.218783E+01  0.355153E-03 -0.468937E-10
   Van der Waals                 : -0.401812E-02 -0.686162E-06  0.490268E-15
   ----------------------------------------------------------------
   Total forces(   1)            : -0.109930E+00  0.179043E-03 -0.591329E-10
  atom #    2
   Hellmann-Feynman              : -0.354951E+01  0.543442E-03 -0.759913E-11
   Ionic forces                  :  0.000000E+00  0.000000E+00  0.000000E+00
   Multipole                     :  0.432635E-01  0.110181E-04  0.578710E-12
   Pulay + GGA                   :  0.347179E+01 -0.424602E-03 -0.207522E-11
   Van der Waals                 :  0.338942E-02 -0.636946E-09  0.129523E-14
   ----------------------------------------------------------------
   Total forces(   2)            : -0.310621E-01  0.129858E-03 -0.909434E-11
  atom #    3
   Hellmann-Feynman              :  0.260718E+02  0.502864E-03 -0.649865E-10
   Ionic forces                  :  0.000000E+00  0.000000E+00  0.000000E+00
   Multipole                     : -0.247699E-01  0.680367E-05 -0.592046E-12
   Pulay + GGA                   : -0.260126E+02 -0.741357E-03  0.573183E-10
   Van der Waals                 : -0.410144E-02  0.145431E-06 -0.677377E-14
   ----------------------------------------------------------------
   Total forces(   3)            :  0.303391E-01 -0.231544E-03 -0.826703E-11
  atom #    4
   Hellmann-Feynman              :  0.440264E-01 -0.104923E+00  0.175632E-12
   Ionic forces                  :  0.000000E+00  0.000000E+00  0.000000E+00
   Multipole                     :  0.105603E-01 -0.181480E-01  0.106118E-12
   Pulay + GGA                   : -0.201958E-01  0.724159E-01  0.872740E-13
   Van der Waals                 :  0.157814E-02  0.175008E-02  0.146916E-14
   ----------------------------------------------------------------
   Total forces(   4)            :  0.359691E-01 -0.489050E-01  0.370494E-12
  atom #    5
   Hellmann-Feynman              :  0.445233E-01  0.524277E-01 -0.910203E-01
   Ionic forces                  :  0.000000E+00  0.000000E+00  0.000000E+00
   Multipole                     :  0.105820E-01  0.906440E-02 -0.157130E-01
   Pulay + GGA                   : -0.202738E-01 -0.361980E-01  0.627409E-01
   Van der Waals                 :  0.157600E-02 -0.874770E-03  0.151528E-02
   ----------------------------------------------------------------
   Total forces(   5)            :  0.364076E-01  0.244193E-01 -0.424771E-01
  atom #    6
   Hellmann-Feynman              :  0.445233E-01  0.524277E-01  0.910203E-01
   Ionic forces                  :  0.000000E+00  0.000000E+00  0.000000E+00
   Multipole                     :  0.105820E-01  0.906440E-02  0.157130E-01
   Pulay + GGA                   : -0.202738E-01 -0.361980E-01 -0.627409E-01
   Van der Waals                 :  0.157600E-02 -0.874770E-03 -0.151528E-02
   ----------------------------------------------------------------
   Total forces(   6)            :  0.364076E-01  0.244193E-01  0.424771E-01

  Timings for VdW correction (Tkatchenko-Scheffler 2009 or later):
  | CPU time:        0.064 s, Wall clock time:        0.066 s.
  Removing unitary transformations (pure translations, rotations) from forces on atoms.
  Atomic forces before filtering:
  | Net force on center of mass :  -0.186843E-02  0.109835E-04 -0.817456E-10 eV/A
  | Net torque on center of mass:   0.113320E-13 -0.115056E-09 -0.494333E-03 eV
  Atomic forces after filtering:
  | Net force on center of mass :  -0.167256E-16 -0.278760E-17  0.000000E+00 eV/A
  | Net torque on center of mass:  -0.295026E-17 -0.239709E-17  0.000000E+00 eV

  Energy and forces in a compact form:
  | Total energy uncorrected      :         -0.262466982260360E+05 eV
  | Total energy corrected        :         -0.262466982260360E+05 eV  <-- do not rely on this value for anything but (periodic) metals
  | Electronic free energy        :         -0.262466982260360E+05 eV
  Total atomic forces (unitary forces cleaned) [eV/Ang]:
  |   1         -0.109618284942140E+00          0.814913322027071E-04         -0.232295941045174E-10
  |   2         -0.307507203019627E-01          0.140727154310233E-03          0.157408095550768E-11
  |   3          0.306505543053580E-01         -0.151831160730521E-03         -0.136218580372796E-10
  |   4          0.362423530077314E-01         -0.489063416998020E-01          0.138758758903739E-10
  |   5          0.367380489830159E-01          0.244179771888435E-01         -0.424770869876895E-01
  |   6          0.367380489479975E-01          0.244179771851761E-01          0.424770870090910E-01

  ------------------------------------ 
  Start decomposition of the XC Energy 
  ------------------------------------ 
  X and C from original XC functional choice 
  Hartree-Fock Energy :          0.000000000 Ha              0.000000000 eV
  X Energy            :        -61.416917641 Ha          -1671.239360721 eV
  C Energy            :         -1.626912844 Ha            -44.270550951 eV
  Total XC Energy     :        -63.043830485 Ha          -1715.509911672 eV
  ------------------------------------ 
  LDA X and C from self-consistent density 
  X Energy LDA        :        -56.826795311 Ha          -1546.335777118 eV
  C Energy LDA        :         -3.249310157 Ha            -88.418228033 eV
  ------------------------------------ 
  End decomposition of the XC Energy 
  ------------------------------------ 

------------------------------------------------------------

------------------------------------------------------------------------------
  Final output of selected total energy values:

  The following output summarizes some interesting total energy values
  at the end of a run (AFTER all relaxation, molecular dynamics, etc.).

  | Total energy of the DFT / Hartree-Fock s.c.f. calculation      :         -26246.698226036 eV
  | Final zero-broadening corrected energy (caution - metals only) :         -26246.698226036 eV
  | For reference only, the value of 1 Hartree used in FHI-aims is :             27.211384500 eV

  Before relying on these values, please be sure to understand exactly which
  total energy value is referred to by a given number. Different objects may
  all carry the same name 'total energy'. Definitions:

  Total energy of the DFT / Hartree-Fock s.c.f. calculation:
  | Note that this energy does not include ANY quantities calculated after the
  | s.c.f. cycle, in particular not ANY RPA, MP2, etc. many-body perturbation terms.

  Final zero-broadening corrected energy:
  | For metallic systems only, a broadening of the occupation numbers at the Fermi
  | level can be extrapolated back to zero broadening by an electron-gas inspired
  | formula. For all systems that are not real metals, this value can be
  | meaningless and should be avoided.

------------------------------------------------------------------------------
  Methods described in the following list of references were used in this FHI-aims run.
  If you publish the results, please make sure to cite these reference if they apply.
  FHI-aims is an academic code, and for our developers (often, Ph.D. students
  and postdocs), scientific credit in the community is essential.
  Thank you for helping us!

  For any use of FHI-aims, please cite:

    Volker Blum, Ralf Gehrke, Felix Hanke, Paula Havu, Ville Havu,
    Xinguo Ren, Karsten Reuter, and Matthias Scheffler
    'Ab initio molecular simulations with numeric atom-centered orbitals'
    Computer Physics Communications 180, 2175-2196 (2009)
    http://dx.doi.org/10.1016/j.cpc.2009.06.022


  For the real-space grid partitioning and parallelization used in this calculation, please cite:

    Ville Havu, Volker Blum, Paula Havu, and Matthias Scheffler,
    'Efficient O(N) integration for all-electron electronic structure calculation'
    'using numerically tabulated basis functions'
    Journal of Computational Physics 228, 8367-8379 (2009).
    http://dx.doi.org/10.1016/j.jcp.2009.08.008

  Of course, there are many other important community references, e.g., those cited in the
  above references. Our list is limited to references that describe implementations in the
  FHI-aims code. The reason is purely practical (length of this list) - please credit others as well.

------------------------------------------------------------
          Leaving FHI-aims.
          Date     :  20180214, Time     :  160409.281

          Computational steps:
          | Number of self-consistency cycles          :           16
          | Number of SCF (re)initializations          :            1

          Detailed time accounting                     :  max(cpu_time)    wall_clock(cpu1)
          | Total time                                 :       14.772 s          15.033 s
          | Preparation time                           :        0.388 s           0.467 s
          | Boundary condition initalization           :        0.000 s           0.000 s
          | Grid partitioning                          :        0.080 s           0.080 s
          | Preloading free-atom quantities on grid    :        0.024 s           0.024 s
          | Free-atom superposition energy             :        0.032 s           0.032 s
          | Total time for integrations                :        4.780 s           4.769 s
          | Total time for solution of K.-S. equations :        0.080 s           0.072 s
          | Total time for density & force components  :        5.332 s           5.314 s
          | Total time for mixing                      :        0.276 s           0.324 s
          | Total time for Hartree multipole update    :        0.340 s           0.312 s
          | Total time for Hartree multipole sum       :        3.424 s           3.412 s
          | Total time for total energy evaluation     :        0.012 s           0.013 s
          | Total time for scaled ZORA corrections     :        0.000 s           0.000 s
          | Total time for vdW correction              :        0.064 s           0.066 s

          Partial memory accounting:
          | Residual value for overall tracked memory usage across tasks :           0.000 MB (should be 0.000 MB)
          | Peak values for overall tracked memory usage (after allocating hessian_basis_wave):
          |   Minimum:        2.332 MB (on task 1)
          |   Maximum:        2.348 MB (on task 2)
          |   Average:        2.344 MB
          | Largest tracked array allocation (hessian_basis_wave):
          |   Minimum:        1.123 MB (on task 1)
          |   Maximum:        1.133 MB (on task 2)
          |   Average:        1.130 MB
          Note:  These values currently only include a subset of arrays which are explicitly tracked.
          The "true" memory usage will be greater.

          Have a nice day.
------------------------------------------------------------
