------------------------------------------------------------
          Invoking FHI-aims ...
          Version 150907.dbg
          Git rev. (modified): 9024dc8 MAINT: Removed double call to localorb
          Compiled on 2015/11/27 at 11:49:18 on host zipperneck.

          When using FHI-aims, please cite the following reference:

          Volker Blum, Ralf Gehrke, Felix Hanke, Paula Havu,
          Ville Havu, Xinguo Ren, Karsten Reuter, and Matthias Scheffler,
          'Ab Initio Molecular Simulations with Numeric Atom-Centered Orbitals: FHI-aims',
          Computer Physics Communications 180, 2175-2196 (2009)

          For any questions about FHI-aims, please visit the aimsclub website
          with its forums and wiki. Contributions to both the forums and the
          wiki are warmly encouraged - they are for you, and everyone is welcome there.

------------------------------------------------------------

  Date     :  20151127, Time     :  115313.294
  Time zero on CPU 1             :   0.000000000000000E+00  s.
  Internal wall clock time zero  :           217857193.294  s.


  Performing system and environment tests:
  | Environment variable OMP_NUM_THREADS correctly set to 1.
  | Stacksize not measured: no C compiler

  Obtaining array dimensions for all initial allocations:
  
  -----------------------------------------------------------------------
  Parsing control.in (first pass over file, find array dimensions only).
  The contents of control.in will be repeated verbatim below
  unless switched off by setting 'verbatim_writeout .false.' .
  in the first line of control.in .
  -----------------------------------------------------------------------
  
  #########################################################################################
  #  Modified for He-Dimer // Christoph
  #########################################################################################
  #
  #  Physical model
  #
    xc                 blyp
    spin               collinear
  #  spin               none
    relativistic       none
    charge             0.
    default_initial_moment hund
  
  #
  #  SCF convergence
  #
    occupation_type    gaussian 0.01
    mixer              pulay
      n_max_pulay        10
      charge_mix_param   0.5
    sc_accuracy_rho    1E-4
    sc_accuracy_eev    1E-2
    sc_accuracy_etot   1E-6
    sc_iter_limit      100
  #
  #  Relaxation
  #
  #  relax_geometry   bfgs 1.e-2
  #
    override_relativity .true.
     fo_dft fragment
  ################################################################################
  #
  #  FHI-aims code project
  #  VB, Fritz-Haber Institut, 2010
  #
  #  Suggested "light" defaults for Zn atom (to be pasted into control.in file)
  #  Be sure to double-check any results obtained with these settings for post-processing,
  #  e.g., with the "tight" defaults and larger basis sets.
  #
  ################################################################################
    species        Zn
  #     global species definitions
      nucleus             30
      mass                65.409
  #
      l_hartree           4
  #
      cut_pot             3.5          1.5  1.0
      basis_dep_cutoff    1e-4
  #
      radial_base         53 5.0
      radial_multiplier   1
      angular_grids       specified
        division   0.5114   50
        division   0.8989  110
        division   1.2692  194
        division   1.6226  302
  #      division   1.7854  434
  #      division   2.0877  590
  #      division   2.1298  770
  #      division   2.1730  974
  #      division   2.5659 1202
        outer_grid  302
  ################################################################################
  #
  #  Definition of "minimal" basis
  #
  ################################################################################
  #     valence basis states
      valence      4  s   2.
      valence      3  p   6.
      valence      3  d  10.
  #     ion occupancy
      ion_occ      4  s   1.
      ion_occ      3  p   6.
      ion_occ      3  d   9.
  ################################################################################
  #
  #  Suggested additional basis functions. For production calculations,
  #  uncomment them one after another (the most important basis functions are
  #  listed first).
  #
  #  Constructed for dimers: 2.00 A, 2.30 A, 2.85 A, 3.50 A, 4.25 A
  #
  ################################################################################
  #  "First tier" - improvements: -270.82 meV to -12.81 meV
       hydro 2 p 1.7
       hydro 3 s 2.9
       hydro 4 p 5.4
       hydro 4 f 7.8
       hydro 3 d 4.5
  #  "Second tier" - improvements: -3.35 meV to -0.82 meV
  #     hydro 5 g 10.8
  #     hydro 2 p 2.4
  #     hydro 3 s 6.2
  #     hydro 3 d 3
  #  "Third tier" - improvements: -0.61 meV to -0.12 meV
  #     hydro 6 h 15.2
  #     ionic 4 p auto
  #     hydro 5 s 12.8
  #     hydro 4 f 5.4
  #     hydro 4 d 7
  #  Further functions - improvements: -0.16 meV and below
  #     hydro 4 f 20
  #     hydro 3 p 2.2
  #     hydro 5 f 6.4
  #     hydro 5 g 8
  ################################################################################
  
  -----------------------------------------------------------------------
  Completed first pass over input file control.in .
  -----------------------------------------------------------------------
  
  
  -----------------------------------------------------------------------
  Parsing geometry.in (first pass over file, find array dimensions only).
  The contents of geometry.in will be repeated verbatim below
  unless switched off by setting 'verbatim_writeout .false.' .
  in the first line of geometry.in .
  -----------------------------------------------------------------------
  
  #=======================================================
  #FHI-aims file: zn2plus_5.aims
  #Created using the Atomic Simulation Environment (ASE)
  #=======================================================
  atom 0.0000000000000000 0.0000000000000000 0.0000000000000000 Zn
  #empty 0.00000000000000 0.0000000000000000 5.0000000000000000 Zn_empty
  #initial_charge 1
  
  -----------------------------------------------------------------------
  Completed first pass over input file geometry.in .
  -----------------------------------------------------------------------
  

  Basic array size parameters:
  | Number of species                 :        1
  | Number of atoms                   :        1
  | Max. basis fn. angular momentum   :        3
  | Max. atomic/ionic basis occupied n:        4
  | Max. number of basis fn. types    :        2
  | Max. radial fns per species/type  :        7
  | Max. logarithmic grid size        :     1409
  | Max. radial integration grid size :       53
  | Max. angular integration grid size:      302
  | Max. angular grid division number :        8
  | Radial grid for Hartree potential :     1409
  | Number of spin channels           :        2

------------------------------------------------------------
          Reading file control.in.
------------------------------------------------------------
  XC: Using BLYP functional.
  Spin treatment: Spin density functional theory - collinear spins.
  Non-relativistic treatment of kinetic energy.
  Charge =   0.000000E+00: Neutral system requested explicitly.
  Initial spin moment per atom set according to Hund's rules.
  Occupation type: Gaussian broadening, width =   0.100000E-01 eV.
  Using pulay charge density mixing.
  Pulay mixing - number of memorized iterations:   10
  Charge density mixing - mixing parameter:     0.5000
  Convergence accuracy of self-consistent charge density:  0.1000E-03
  Convergence accuracy of sum of eigenvalues:  0.1000E-01
  Convergence accuracy of total energy:  0.1000E-05
  Maximum number of s.-c. iterations  :   100
  override_relativity: Explicitly overriding any built-in relativity checks.
  If you use this flag, you should really know what you are doing.
 
  Reading configuration options for species Zn                  .
  | Found nuclear charge :  30.0000
  | Found atomic mass :    65.4090000000000      amu
  | Found l_max for Hartree potential  :   4
  | Found cutoff potl. onset [A], width [A], scale factor :    3.50000    1.50000    1.00000
  | Threshold for basis-dependent cutoff potential is   0.100000E-03
  | Found data for basic radial integration grid :    53 points, outermost radius =    5.000 A
  | Found multiplier for basic radial grid :   1
  | Found angular grid specification: user-specified.
  | Specified grid contains     5 separate shells.
  | Check grid settings after all constraints further below.
  | Found free-atom valence shell :  4 s   2.000
  | Found free-atom valence shell :  3 p   6.000
  | Found free-atom valence shell :  3 d  10.000
  | No ionic wave fns used. Skipping ion_occ.
  | No ionic wave fns used. Skipping ion_occ.
  | No ionic wave fns used. Skipping ion_occ.
  | Found hydrogenic basis function :  2 p   1.700
  | Found hydrogenic basis function :  3 s   2.900
  | Found hydrogenic basis function :  4 p   5.400
  | Found hydrogenic basis function :  4 f   7.800
  | Found hydrogenic basis function :  3 d   4.500
  Species Zn                  : Missing cutoff potential type.
  Defaulting to exp(1/x)/(1-x)^2 type cutoff potential.
  Species Zn: No 'logarithmic' tag. Using default grid for free atom:
  | Default logarithmic grid data [bohr] : 0.1000E-03 0.1000E+03 0.1012E+01
  Species Zn: On-site basis accuracy parameter (for Gram-Schmidt orthonormalisation) not specified.
  Using default value basis_acc =  0.1000000E-03.
  Species Zn                  : Using default innermost maximum threshold i_radial=  2 for radial functions.
  Species Zn                  : Default cutoff onset for free atom density etc. : 0.35000000E+01 AA.
  Species Zn                  : Basic radial grid will be enhanced according to radial_multiplier =   1, to contain    53 grid points.
 
  Finished reading input file 'control.in'. Consistency checks are next.
 
  Target number of points in a grid batch is not set. Defaulting to  100
  Method for grid partitioning is not set. Defaulting to 'maxmin' partitioning.
  Batch size limit is not set. Defaulting to    200
  By default, will store active basis functions for each batch.
  If in need of memory, prune_basis_once .false. can be used to disable this option.
  communication_type for Hartree potential was not specified.
  Defaulting to calc_hartree .
 * Attention: 
 * You may want to set distributed_spline_storage to .true. in order to save memory.
 * This doesn't harm performance and is perfectly ok unless:
 * - you get error messages in postprocessing (about missing atoms in get_rho_multipole_spl)
 * - you need full spline storage in hirshfeld_analysis
  Pulay mixer: Number of initial linear mixing iterations not set.
  Defaulting to    0 iterations.
  Work space size for distributed Hartree potential not set.
  Defaulting to   0.200000E+03 MB.
  Mixing parameter for spin density mixing has not been set.
  Using charge_mix_param as default:     0.5000.
  Algorithm-dependent basis array size parameters:
  | n_max_pulay                         :       10
  Calculation of forces was not defined in control.in. No forces will be calculated.
  Geometry relaxation not requested: no relaxation will be performed.
  No accuracy limit for integral partition fn. given. Defaulting to  0.1000E-14.
  No threshold value for u(r) in integrations given. Defaulting to  0.1000E-05.
  No accuracy for occupation numbers given. Defaulting to  0.1000E-07.
  No threshold value for occupation numbers given. Defaulting to  0.0000E+00.
  No accuracy for fermi level given. Defaulting to  0.1000E-19.
  Maximum # of iterations to find E_F not set. Defaulting to  200.
  Preferred method for the eigenvalue solver ('KS_method') not specified in 'control.in'.
  Defaulting to serial version, 'lapack_fast'.
  Will not use alltoall communication since running on < 1024 CPUs.
  Threshold for basis singularities not set.
  Default threshold for basis singularities:  0.1000E-04
  partition_type (choice of integration weights) for integrals was not specified.
  | Using a version of the partition function of Stratmann and coworkers ('stratmann_smoother').
  | At each grid point, the set of atoms used to build the partition table is smoothly restricted to
  | only those atoms whose free-atom density would be non-zero at that grid point.
  Partitioning for Hartree potential was not defined. Using partition_type for integrals.
  | Adjusted default value of keyword multip_moments_threshold to:       0.10000000E-11
  | This value may affect high angular momentum components of the Hartree potential in periodic systems.
  No q(lm)/r^(l+1) cutoff set for long-range Hartree potential.
  | Using default value of  0.100000E-09 .
  | Verify using the multipole_threshold keyword.
  Defaulting to new monopole extrapolation.
  Density update method: automatic selection selected.
------------------------------------------------------------


------------------------------------------------------------
          Reading geometry description geometry.in.
------------------------------------------------------------
 * Warning! You are trying to treat an element beyond Ca (Z=20) without
 * accounting for relativity. This may lead to physically incorrect results.
 * If you know what you are doing, you may override this warning using the
 * flag override_relativity in control.in.
 * Else, please use the keyword 'relativistic atomic_zora scalar' (for relaxation) or
 * 'relativistic zora scalar 1e-12' as described in the documentation.
 *
 * Additional information about a change made 04/05/2010 (will be removed 2011):
 * Since there is no harm in using atomic_zora, we now mandate relativity also
 * for the 3d elements. Apologies to all those whom this affects for the first time.
 * Of course, any older nonrelativistic total energies for these elements must never
 * be compared (added or subtracted) directly to atomic_zora results.
  Input structure read successfully.
  The structure contains        1 atoms,  and a total of         30.000 electrons.

  Input geometry:
  | No unit cell requested.
  | Atomic structure:
  |       Atom                x [A]            y [A]            z [A]
  |    1: Species Zn             0.000000         0.000000         0.000000
  |

  | Isolated single atom, no quantum-mechanical atoms close by.

  Initial moments and charges:
  |  Atom   Moment         Charge        Species
  |     1  (Hund's rule)   0.000000E+00   Zn

  Number of empty states per atom not set in control.in - providing a guess from actual geometry.
  | Total number of empty states used during s.c.f. cycle:        6
  If you use a very high smearing, use empty_states (per atom!) in control.in to increase this value.

  Structure-dependent array size parameters: 
  | Number of distinct atom types in initial rho :        1
  | Maximum number of distinct radial functions  :       12
  | Maximum number of basis functions            :       34
  | Number of Kohn-Sham states (occupied + empty):       21
------------------------------------------------------------

------------------------------------------------------------
          Preparing all fixed parts of the calculation.
------------------------------------------------------------
  Determining machine precision:
    2.225073858507201E-308
  Setting up grids for atomic and cluster calculations.

  Creating wave function, potential, and density for free atoms.

  Species: Zn

  List of occupied orbitals and eigenvalues:
    n    l              occ      energy [Ha]    energy [eV]
    1    0           2.0000      -345.723273     -9407.6089
    2    0           2.0000       -41.607252     -1132.1909
    3    0           2.0000        -4.578208      -124.5794
    4    0           2.0000        -0.208122        -5.6633
    2    1           6.0000       -36.679524      -998.1006
    3    1           6.0000        -3.014193       -82.0204
    3    2          10.0000        -0.379262       -10.3202

  Spin-polarized or charged system:
  Charge density initialized according to selected moments and charges.

  Creating spin-polarized density from free atoms.

  Species: Zn
  Charge:   0.000000
  applying Hund's rules ...

  List of occupied orbitals and eigenvalues:
    n    l      energy [Ha]    energy [eV]    occupation
  Spin-up
    1    0      -345.709298     -9407.2286     1.00000000
    2    0       -41.597891     -1131.9362     1.00000000
    3    0        -4.572117      -124.4136     1.00000000
    4    0        -0.200662        -5.4603     1.00000000
    2    1       -36.670299      -997.8496     3.00000000
    3    1        -3.007961       -81.8508     3.00000000
    3    2        -0.372389       -10.1332     5.00000000
  Spin-down
    1    0      -345.709298     -9407.2286     1.00000000
    2    0       -41.597891     -1131.9362     1.00000000
    3    0        -4.572117      -124.4136     1.00000000
    4    0        -0.200662        -5.4603     1.00000000
    2    1       -36.670299      -997.8496     3.00000000
    3    1        -3.007961       -81.8508     3.00000000
    3    2        -0.372389       -10.1332     5.00000000

  Creating fixed part of basis set: Ionic, confined, hydrogenic.
 
  Zn                   hydrogenic:
 
  List of hydrogenic basis orbitals: 
    n    l      effective z      eigenvalue [eV]  inner max. [A]     outer max. [A]     outer radius [A]   
    2    1         1.700000        -9.7616           1.235824           1.235824           4.571361
    3    0         2.900000       -12.1225           0.135202           2.305302           4.627589
    4    1         5.400000       -24.5018           0.278118           2.277292           4.627589
    4    3         7.800000       -51.7350           1.080326           1.080326           4.353199
    3    2         4.500000       -30.6110           1.054232           1.054232           4.515816
 

  Adding cutoff potential to free-atom effective potential.
  Creating atomic-like basis functions for current effective potential.

  Species Zn                  :

  List of atomic basis orbitals and eigenvalues:
    n    l      energy [Ha]    energy [eV]    outer radius [A]
    1    0      -345.723273     -9407.6089       0.359520
    2    0       -41.607252     -1132.1909       1.041423
    3    0        -4.578208      -124.5794       2.980039
    4    0        -0.208122        -5.6633       4.571361
    2    1       -36.679524      -998.1006       1.067199
    3    1        -3.014193       -82.0204       3.536319
    3    2        -0.379262       -10.3202       4.460946

  Assembling full basis from fixed parts.
  | Species Zn :   atomic orbital   1 s accepted.
  | Species Zn :   atomic orbital   2 s accepted.
  | Species Zn :   atomic orbital   3 s accepted.
  | Species Zn :   atomic orbital   4 s accepted.
  | Species Zn :    hydro orbital   3 s accepted.
  | Species Zn :   atomic orbital   2 p accepted.
  | Species Zn :   atomic orbital   3 p accepted.
  | Species Zn :    hydro orbital   2 p accepted.
  | Species Zn :    hydro orbital   4 p accepted.
  | Species Zn :   atomic orbital   3 d accepted.
  | Species Zn :    hydro orbital   3 d accepted.
  | Species Zn :    hydro orbital   4 f accepted.
 
  Basis size parameters after reduction:
  | Total number of radial functions:       12
  | Total number of basis functions :       34
 
  Testing on-site integration grid accuracy.
  |  Species  Function  <phi|h_atom|phi> (log., in eV)  <phi|h_atom|phi> (rad., in eV)
           1        1              -9407.6089196165              -9407.6010816050
           1        2              -1132.1909318259              -1132.1908398249
           1        3               -124.5793868481               -124.5793847186
           1        4                 -5.6699589571                 -5.6784248818
           1        5                  5.7646894327                  5.6381704376 ***
           1        6               -998.1006252374               -998.1006240134
           1        7                -82.0203678659                -82.0203674622
           1        8                 -0.1702384610                 -0.1883258932
           1        9                 11.3191605332                 11.2503570413 ***
           1       10                -10.3202611169                -10.3202839678
           1       11                 16.3184450507                 16.3176050663
           1       12                 31.6335584018                 31.6336547263
 * Note: Onsite integrals marked "***" above are less accurate than
 * onsite_accuracy_threshold =    0.03000 eV. Usually, this is harmless.
 * When in doubt, tighten the "radial" and/or "radial_multiplier" flags to check.

  Preparing densities etc. for the partition functions (integrals / Hartree potential).

  Preparations completed.
  max(cpu_time)          :      1.760 s.
  Wall clock time (cpu1) :      1.763 s.
------------------------------------------------------------

------------------------------------------------------------
          Begin self-consistency loop: Initialization.

          Date     :  20151127, Time     :  115315.062
------------------------------------------------------------

  Initializing index lists of integration centers etc. from given atomic structure:
  | Number of centers in hartree potential         :         1
  | Number of centers in hartree multipole         :         1
  | Number of centers in electron density summation:         1
  | Number of centers in basis integrals           :         1
  | Number of centers in integrals                 :         1
  | Number of centers in hamiltonian               :         1
  Partitioning the integration grid into batches with maxmin method.
  | Maximal weight for a single point:     1.000
  | Minimal weight for a single point:     0.000
  | Number of batches:       98
  | Maximal batch size:     116
  | Minimal batch size:      49
  | Average batch size:      71.245
  | Standard deviation of batch sizes:      18.910
  Initializing partition tables, free-atom densities, potentials, etc. across the integration grid (initialize_grid_storage).
  | initialize_grid_storage: Actual outermost partition radius vs. multipole_radius_free
  | (-- VB: in principle, multipole_radius_free should be larger, hence this output)
  | Species        1: Confinement radius =              4.999999999999999 AA, multipole_radius_free =              5.041031794424897 AA.
  | Species        1: outer_partition_radius set to              5.041031794424897 AA .
  | Original list of interatomic distances with           1 x          1 entries is created.
  | Net number of integration points:     6982
  | of which are non-zero points    :     6982
  Obtaining max. number of non-zero basis functions in each batch (get_n_compute_maxes).
  | Maximal number of non-zero basis functions:       34 in task     0
  Selecting the method for density update.
  Loop over occupied states selected for charge density update.
  Integrating Hamiltonian matrix: batch-based integration.
  Time summed over all CPUs for integration: real work        0.261 s, elapsed        0.261 s
  Integrating overlap matrix.
  Time summed over all CPUs for integration: real work        0.058 s, elapsed        0.058 s

  Updating Kohn-Sham eigenvalues, eigenvectors, occupation numbers, and Fermi level.
  Solving generalized eigenproblem
  Updating Kohn-Sham eigenvalues and eigenfunctions.
  Transforming overlap matrix and checking for singularities.
  Overlap matrix is nonsingular:
  | Lowest eigenvalue:  0.998351E+00
  Solving real generalised eigenvalue problem by standard LAPACK (fast)
  Updating Kohn-Sham eigenvalues and eigenfunctions.
  Solving real generalised eigenvalue problem by standard LAPACK (fast)
  Determining occupation numbers for Kohn-Sham eigenstates.
  | Chemical potential (Fermi level) in eV                 : -.29891278E+01
  | Error in electron count due to remaining E_F inaccuracy: 0.00000000E+00
  | Maximum occupation number of highest empty state:  0.00E+00

  Writing Kohn-Sham eigenvalues.

  Spin-up eigenvalues:

  State    Occupation    Eigenvalue [Ha]    Eigenvalue [eV]
      1       1.00000        -345.723194        -9407.60676
      2       1.00000         -41.607307        -1132.19242
      3       1.00000         -36.679567         -998.10181
      4       1.00000         -36.679567         -998.10181
      5       1.00000         -36.679567         -998.10181
      6       1.00000          -4.578355         -124.58338
      7       1.00000          -3.014322          -82.02387
      8       1.00000          -3.014322          -82.02387
      9       1.00000          -3.014322          -82.02387
     10       1.00000          -0.379307          -10.32147
     11       1.00000          -0.379307          -10.32147
     12       1.00000          -0.379307          -10.32147
     13       1.00000          -0.379307          -10.32147
     14       1.00000          -0.379307          -10.32147
     15       1.00000          -0.208570           -5.67549
     16       0.00000          -0.019398           -0.52786
     17       0.00000          -0.019398           -0.52786
     18       0.00000          -0.019398           -0.52786
     19       0.00000           0.207596            5.64898
     20       0.00000           0.426353           11.60165
     21       0.00000           0.426353           11.60165

  Spin-down eigenvalues:

  State    Occupation    Eigenvalue [Ha]    Eigenvalue [eV]
      1       1.00000        -345.723194        -9407.60676
      2       1.00000         -41.607307        -1132.19242
      3       1.00000         -36.679567         -998.10181
      4       1.00000         -36.679567         -998.10181
      5       1.00000         -36.679567         -998.10181
      6       1.00000          -4.578355         -124.58338
      7       1.00000          -3.014322          -82.02387
      8       1.00000          -3.014322          -82.02387
      9       1.00000          -3.014322          -82.02387
     10       1.00000          -0.379307          -10.32147
     11       1.00000          -0.379307          -10.32147
     12       1.00000          -0.379307          -10.32147
     13       1.00000          -0.379307          -10.32147
     14       1.00000          -0.379307          -10.32147
     15       1.00000          -0.208570           -5.67549
     16       0.00000          -0.019398           -0.52786
     17       0.00000          -0.019398           -0.52786
     18       0.00000          -0.019398           -0.52786
     19       0.00000           0.207596            5.64898
     20       0.00000           0.426353           11.60165
     21       0.00000           0.426353           11.60165

  Current spin moment of the entire structure :
  | N = N_up - N_down :    0.00
  | S                 :    0.00
  | J                 :    1.00

  Highest occupied state (VBM) at     -5.67549116 eV
  | Occupation number:      1.00000000
  | Spin channel:        1

  Lowest unoccupied state (CBM) at    -0.52785990 eV
  | Occupation number:      0.00000000
  | Spin channel:        1

  Overall HOMO-LUMO gap:      5.14763126 eV.
  Calculating total energy contributions from superposition of free atom densities.

  Total energy components:
  | Sum of eigenvalues            :       -1026.19125717 Ha      -27924.08486953 eV
  | XC energy correction          :         -71.19066674 Ha       -1937.19660551 eV
  | XC potential correction       :          92.25184706 Ha        2510.30048110 eV
  | Free-atom electrostatic energy:        -774.41779566 Ha      -21072.98040144 eV
  | Hartree energy correction     :           0.00000000 Ha           0.00000000 eV
  | Entropy correction            :           0.00000000 Ha           0.00000000 eV
  | ---------------------------
  | Total energy                  :       -1779.54787252 Ha      -48423.96139537 eV
  | Total energy, T -> 0          :       -1779.54787252 Ha      -48423.96139537 eV  <-- do not rely on this value for anything but (periodic) metals
  | Electronic free energy        :       -1779.54787252 Ha      -48423.96139537 eV

  Derived energy quantities:
  | Kinetic energy                :        1778.41959219 Ha       48393.25932528 eV
  | Electrostatic energy          :       -3486.77679797 Ha      -94880.02411515 eV
  | Energy correction for multipole
  | error in Hartree potential    :           0.00000000 Ha           0.00000000 eV
  | Sum of eigenvalues per atom                           :      -27924.08486953 eV
  | Total energy (T->0) per atom                          :      -48423.96139537 eV  <-- do not rely on this value for anything but (periodic) metals
  | Electronic free energy per atom                       :      -48423.96139537 eV
  Initialize hartree_potential_storage
  Max. number of atoms included in rho_multipole:            1

  End scf initialization - timings             :  max(cpu_time)    wall_clock(cpu1)
  | Time for scf. initialization               :        0.480 s           0.480 s
  | Boundary condition initialization          :        0.000 s           0.001 s
  | Integration                                :        0.320 s           0.319 s
  | Solution of K.-S. eqns.                    :        0.000 s           0.002 s
  | Grid partitioning                          :        0.068 s           0.065 s
  | Preloading free-atom quantities on grid    :        0.008 s           0.006 s
  | Free-atom superposition energy             :        0.036 s           0.036 s
  | Total energy evaluation                    :        0.000 s           0.000 s
------------------------------------------------------------

------------------------------------------------------------
          Begin self-consistency iteration #    1

  Date     :  20151127, Time     :  115315.542
------------------------------------------------------------
  Evaluating new KS density.
  Integration grid: deviation in total charge (<rho> - N_e) =   2.204928E-04
  | <rho_up-rho_dn> = N_up-N_dn =      0.0000; <|rho_up-rho_dn|> =      0.0000
  Pulay mixing of updated and previous charge densities.

  Evaluating partitioned Hartree potential by multipole expansion.
  | Analytical far-field extrapolation by fixed multipoles:
  | Hartree multipole sum: apparent total charge =  -0.729482E-04
  Summing up the Hartree potential.
  Time summed over all CPUs for potential: real work        0.022 s, elapsed        0.022 s
  | RMS charge density error from multipole expansion :   0.157081E-13

  Integrating Hamiltonian matrix: batch-based integration.
  Time summed over all CPUs for integration: real work        0.261 s, elapsed        0.261 s

  Updating Kohn-Sham eigenvalues, eigenvectors, occupation numbers, and Fermi level.
  Solving generalized eigenproblem
  Updating Kohn-Sham eigenvalues and eigenfunctions.
  Solving real generalised eigenvalue problem by standard LAPACK (fast)
  Updating Kohn-Sham eigenvalues and eigenfunctions.
  Solving real generalised eigenvalue problem by standard LAPACK (fast)
  Determining occupation numbers for Kohn-Sham eigenstates.
  | Chemical potential (Fermi level) in eV                 : -.30147685E+01
  | Error in electron count due to remaining E_F inaccuracy: 0.00000000E+00
  | Maximum occupation number of highest empty state:  0.00E+00

  Writing Kohn-Sham eigenvalues.

  Spin-up eigenvalues:

  State    Occupation    Eigenvalue [Ha]    Eigenvalue [eV]
      1       1.00000        -345.722419        -9407.58567
      2       1.00000         -41.606427        -1132.16848
      3       1.00000         -36.678677         -998.07757
      4       1.00000         -36.678677         -998.07757
      5       1.00000         -36.678677         -998.07757
      6       1.00000          -4.578585         -124.58964
      7       1.00000          -3.014617          -82.03191
      8       1.00000          -3.014617          -82.03191
      9       1.00000          -3.014617          -82.03191
     10       1.00000          -0.379850          -10.33625
     11       1.00000          -0.379850          -10.33625
     12       1.00000          -0.379850          -10.33625
     13       1.00000          -0.379850          -10.33625
     14       1.00000          -0.379850          -10.33625
     15       1.00000          -0.209657           -5.70506
     16       0.00000          -0.020127           -0.54769
     17       0.00000          -0.020127           -0.54769
     18       0.00000          -0.020127           -0.54769
     19       0.00000           0.206967            5.63185
     20       0.00000           0.425408           11.57593
     21       0.00000           0.425408           11.57593

  Spin-down eigenvalues:

  State    Occupation    Eigenvalue [Ha]    Eigenvalue [eV]
      1       1.00000        -345.722419        -9407.58567
      2       1.00000         -41.606427        -1132.16848
      3       1.00000         -36.678677         -998.07757
      4       1.00000         -36.678677         -998.07757
      5       1.00000         -36.678677         -998.07757
      6       1.00000          -4.578585         -124.58964
      7       1.00000          -3.014617          -82.03191
      8       1.00000          -3.014617          -82.03191
      9       1.00000          -3.014617          -82.03191
     10       1.00000          -0.379850          -10.33625
     11       1.00000          -0.379850          -10.33625
     12       1.00000          -0.379850          -10.33625
     13       1.00000          -0.379850          -10.33625
     14       1.00000          -0.379850          -10.33625
     15       1.00000          -0.209657           -5.70506
     16       0.00000          -0.020127           -0.54769
     17       0.00000          -0.020127           -0.54769
     18       0.00000          -0.020127           -0.54769
     19       0.00000           0.206967            5.63185
     20       0.00000           0.425408           11.57593
     21       0.00000           0.425408           11.57593

  Current spin moment of the entire structure :
  | N = N_up - N_down :    0.00
  | S                 :    0.00
  | J                 :    1.00

  Highest occupied state (VBM) at     -5.70505825 eV
  | Occupation number:      1.00000000
  | Spin channel:        1

  Lowest unoccupied state (CBM) at    -0.54769026 eV
  | Occupation number:      0.00000000
  | Spin channel:        1

  Overall HOMO-LUMO gap:      5.15736799 eV.

  Total energy components:
  | Sum of eigenvalues            :       -1026.19244355 Ha      -27924.11715231 eV
  | XC energy correction          :         -71.18682669 Ha       -1937.09211244 eV
  | XC potential correction       :          92.24678448 Ha        2510.16272142 eV
  | Free-atom electrostatic energy:        -774.41779566 Ha      -21072.98040144 eV
  | Hartree energy correction     :           0.00240892 Ha           0.06554998 eV
  | Entropy correction            :           0.00000000 Ha           0.00000000 eV
  | ---------------------------
  | Total energy                  :       -1779.54787250 Ha      -48423.96139479 eV
  | Total energy, T -> 0          :       -1779.54787250 Ha      -48423.96139479 eV  <-- do not rely on this value for anything but (periodic) metals
  | Electronic free energy        :       -1779.54787250 Ha      -48423.96139479 eV

  Derived energy quantities:
  | Kinetic energy                :        1778.43586194 Ha       48393.70204796 eV
  | Electrostatic energy          :       -3486.79690775 Ha      -94880.57133031 eV
  | Energy correction for multipole
  | error in Hartree potential    :           0.00000000 Ha           0.00000000 eV
  | Sum of eigenvalues per atom                           :      -27924.11715231 eV
  | Total energy (T->0) per atom                          :      -48423.96139479 eV  <-- do not rely on this value for anything but (periodic) metals
  | Electronic free energy per atom                       :      -48423.96139479 eV

  Self-consistency convergence accuracy:
  | Change of charge/spin density :  0.3104E-02  0.0000E+00
  | Change of sum of eigenvalues  : -0.3228E-01 eV
  | Change of total energy        :  0.5849E-06 eV

  End self-consistency iteration #     1       :  max(cpu_time)    wall_clock(cpu1)
  | Time for this iteration                    :        0.524 s           0.527 s
  | Charge density update                      :        0.216 s           0.218 s
  | Density mixing                             :        0.008 s           0.008 s
  | Hartree multipole update                   :        0.016 s           0.016 s
  | Hartree multipole summation                :        0.024 s           0.023 s
  | Integration                                :        0.260 s           0.261 s
  | Solution of K.-S. eqns.                    :        0.000 s           0.001 s
  | Total energy evaluation                    :        0.000 s           0.000 s
------------------------------------------------------------

------------------------------------------------------------
          Begin self-consistency iteration #    2

  Date     :  20151127, Time     :  115316.072
------------------------------------------------------------
  Evaluating new KS density.
  Integration grid: deviation in total charge (<rho> - N_e) =   1.102464E-04
  | <rho_up-rho_dn> = N_up-N_dn =      0.0000; <|rho_up-rho_dn|> =      0.0000
  Pulay mixing of updated and previous charge densities.

  Evaluating partitioned Hartree potential by multipole expansion.
  | Analytical far-field extrapolation by fixed multipoles:
  | Hartree multipole sum: apparent total charge =   0.599940E-05
  Summing up the Hartree potential.
  Time summed over all CPUs for potential: real work        0.023 s, elapsed        0.023 s
  | RMS charge density error from multipole expansion :   0.596952E-13

  Integrating Hamiltonian matrix: batch-based integration.
  Time summed over all CPUs for integration: real work        0.260 s, elapsed        0.260 s

  Updating Kohn-Sham eigenvalues, eigenvectors, occupation numbers, and Fermi level.
  Solving generalized eigenproblem
  Updating Kohn-Sham eigenvalues and eigenfunctions.
  Solving real generalised eigenvalue problem by standard LAPACK (fast)
  Updating Kohn-Sham eigenvalues and eigenfunctions.
  Solving real generalised eigenvalue problem by standard LAPACK (fast)
  Determining occupation numbers for Kohn-Sham eigenstates.
  | Chemical potential (Fermi level) in eV                 : -.30050045E+01
  | Error in electron count due to remaining E_F inaccuracy: 0.00000000E+00
  | Maximum occupation number of highest empty state:  0.00E+00

  Current spin moment of the entire structure :
  | N = N_up - N_down :    0.00
  | S                 :    0.00
  | J                 :    1.00

  Highest occupied state (VBM) at     -5.69715186 eV
  | Occupation number:      1.00000000
  | Spin channel:        1

  Lowest unoccupied state (CBM) at    -0.54370221 eV
  | Occupation number:      0.00000000
  | Spin channel:        1

  Overall HOMO-LUMO gap:      5.15344965 eV.

  Total energy components:
  | Sum of eigenvalues            :       -1026.08046441 Ha      -27921.07004490 eV
  | XC energy correction          :         -71.19305992 Ha       -1937.26172716 eV
  | XC potential correction       :          92.25501377 Ha        2510.38665176 eV
  | Free-atom electrostatic energy:        -774.41779566 Ha      -21072.98040144 eV
  | Hartree energy correction     :          -0.11161107 Ha          -3.03709167 eV
  | Entropy correction            :           0.00000000 Ha           0.00000000 eV
  | ---------------------------
  | Total energy                  :       -1779.54791728 Ha      -48423.96261341 eV
  | Total energy, T -> 0          :       -1779.54791728 Ha      -48423.96261341 eV  <-- do not rely on this value for anything but (periodic) metals
  | Electronic free energy        :       -1779.54791728 Ha      -48423.96261341 eV

  Derived energy quantities:
  | Kinetic energy                :        1778.50675275 Ha       48395.63108486 eV
  | Electrostatic energy          :       -3486.86161011 Ha      -94882.33197111 eV
  | Energy correction for multipole
  | error in Hartree potential    :           0.00000000 Ha           0.00000000 eV
  | Sum of eigenvalues per atom                           :      -27921.07004490 eV
  | Total energy (T->0) per atom                          :      -48423.96261341 eV  <-- do not rely on this value for anything but (periodic) metals
  | Electronic free energy per atom                       :      -48423.96261341 eV

  Self-consistency convergence accuracy:
  | Change of charge/spin density :  0.4238E-02  0.0000E+00
  | Change of sum of eigenvalues  :  0.3047E+01 eV
  | Change of total energy        : -0.1219E-02 eV

  End self-consistency iteration #     2       :  max(cpu_time)    wall_clock(cpu1)
  | Time for this iteration                    :        0.528 s           0.531 s
  | Charge density update                      :        0.212 s           0.214 s
  | Density mixing                             :        0.016 s           0.016 s
  | Hartree multipole update                   :        0.016 s           0.017 s
  | Hartree multipole summation                :        0.024 s           0.023 s
  | Integration                                :        0.260 s           0.261 s
  | Solution of K.-S. eqns.                    :        0.000 s           0.000 s
  | Total energy evaluation                    :        0.000 s           0.000 s
------------------------------------------------------------

------------------------------------------------------------
          Begin self-consistency iteration #    3

  Date     :  20151127, Time     :  115316.604
------------------------------------------------------------
  Evaluating new KS density.
  Integration grid: deviation in total charge (<rho> - N_e) =   1.839775E-04
  | <rho_up-rho_dn> = N_up-N_dn =      0.0000; <|rho_up-rho_dn|> =      0.0000
  Pulay mixing of updated and previous charge densities.

  Evaluating partitioned Hartree potential by multipole expansion.
  | Analytical far-field extrapolation by fixed multipoles:
  | Hartree multipole sum: apparent total charge =  -0.166025E-03
  Summing up the Hartree potential.
  Time summed over all CPUs for potential: real work        0.023 s, elapsed        0.023 s
  | RMS charge density error from multipole expansion :   0.925990E-13

  Integrating Hamiltonian matrix: batch-based integration.
  Time summed over all CPUs for integration: real work        0.261 s, elapsed        0.261 s

  Updating Kohn-Sham eigenvalues, eigenvectors, occupation numbers, and Fermi level.
  Solving generalized eigenproblem
  Updating Kohn-Sham eigenvalues and eigenfunctions.
  Solving real generalised eigenvalue problem by standard LAPACK (fast)
  Updating Kohn-Sham eigenvalues and eigenfunctions.
  Solving real generalised eigenvalue problem by standard LAPACK (fast)
  Determining occupation numbers for Kohn-Sham eigenstates.
  | Chemical potential (Fermi level) in eV                 : -.30183004E+01
  | Error in electron count due to remaining E_F inaccuracy: 0.00000000E+00
  | Maximum occupation number of highest empty state:  0.00E+00

  Current spin moment of the entire structure :
  | N = N_up - N_down :    0.00
  | S                 :    0.00
  | J                 :    1.00

  Highest occupied state (VBM) at     -5.70740871 eV
  | Occupation number:      1.00000000
  | Spin channel:        1

  Lowest unoccupied state (CBM) at    -0.54817084 eV
  | Occupation number:      0.00000000
  | Spin channel:        1

  Overall HOMO-LUMO gap:      5.15923786 eV.

  Total energy components:
  | Sum of eigenvalues            :       -1026.25637887 Ha      -27925.85692101 eV
  | XC energy correction          :         -71.18315393 Ha       -1936.99217146 eV
  | XC potential correction       :          92.24193550 Ha        2510.03077398 eV
  | Free-atom electrostatic energy:        -774.41779566 Ha      -21072.98040144 eV
  | Hartree energy correction     :           0.06752531 Ha           1.83745723 eV
  | Entropy correction            :           0.00000000 Ha           0.00000000 eV
  | ---------------------------
  | Total energy                  :       -1779.54786765 Ha      -48423.96126270 eV
  | Total energy, T -> 0          :       -1779.54786765 Ha      -48423.96126270 eV  <-- do not rely on this value for anything but (periodic) metals
  | Electronic free energy        :       -1779.54786765 Ha      -48423.96126270 eV

  Derived energy quantities:
  | Kinetic energy                :        1778.39590829 Ha       48392.61485376 eV
  | Electrostatic energy          :       -3486.76062201 Ha      -94879.58394500 eV
  | Energy correction for multipole
  | error in Hartree potential    :          -0.00000000 Ha          -0.00000000 eV
  | Sum of eigenvalues per atom                           :      -27925.85692101 eV
  | Total energy (T->0) per atom                          :      -48423.96126270 eV  <-- do not rely on this value for anything but (periodic) metals
  | Electronic free energy per atom                       :      -48423.96126270 eV

  Self-consistency convergence accuracy:
  | Change of charge/spin density :  0.1323E-01  0.0000E+00
  | Change of sum of eigenvalues  : -0.4787E+01 eV
  | Change of total energy        :  0.1351E-02 eV

  End self-consistency iteration #     3       :  max(cpu_time)    wall_clock(cpu1)
  | Time for this iteration                    :        0.544 s           0.542 s
  | Charge density update                      :        0.216 s           0.214 s
  | Density mixing                             :        0.024 s           0.026 s
  | Hartree multipole update                   :        0.016 s           0.017 s
  | Hartree multipole summation                :        0.024 s           0.023 s
  | Integration                                :        0.260 s           0.261 s
  | Solution of K.-S. eqns.                    :        0.004 s           0.001 s
  | Total energy evaluation                    :        0.000 s           0.000 s
------------------------------------------------------------

------------------------------------------------------------
          Begin self-consistency iteration #    4

  Date     :  20151127, Time     :  115317.146
------------------------------------------------------------
  Evaluating new KS density.
  Integration grid: deviation in total charge (<rho> - N_e) =   2.402376E-05
  | <rho_up-rho_dn> = N_up-N_dn =      0.0000; <|rho_up-rho_dn|> =      0.0000
  Pulay mixing of updated and previous charge densities.

  Evaluating partitioned Hartree potential by multipole expansion.
  | Analytical far-field extrapolation by fixed multipoles:
  | Hartree multipole sum: apparent total charge =  -0.192170E-03
  Summing up the Hartree potential.
  Time summed over all CPUs for potential: real work        0.022 s, elapsed        0.022 s
  | RMS charge density error from multipole expansion :   0.488922E-13

  Integrating Hamiltonian matrix: batch-based integration.
  Time summed over all CPUs for integration: real work        0.261 s, elapsed        0.261 s

  Updating Kohn-Sham eigenvalues, eigenvectors, occupation numbers, and Fermi level.
  Solving generalized eigenproblem
  Updating Kohn-Sham eigenvalues and eigenfunctions.
  Solving real generalised eigenvalue problem by standard LAPACK (fast)
  Updating Kohn-Sham eigenvalues and eigenfunctions.
  Solving real generalised eigenvalue problem by standard LAPACK (fast)
  Determining occupation numbers for Kohn-Sham eigenstates.
  | Chemical potential (Fermi level) in eV                 : -.30157057E+01
  | Error in electron count due to remaining E_F inaccuracy: 0.00000000E+00
  | Maximum occupation number of highest empty state:  0.00E+00

  Current spin moment of the entire structure :
  | N = N_up - N_down :    0.00
  | S                 :    0.00
  | J                 :    1.00

  Highest occupied state (VBM) at     -5.70498832 eV
  | Occupation number:      1.00000000
  | Spin channel:        1

  Lowest unoccupied state (CBM) at    -0.54649179 eV
  | Occupation number:      0.00000000
  | Spin channel:        1

  Overall HOMO-LUMO gap:      5.15849653 eV.

  Total energy components:
  | Sum of eigenvalues            :       -1026.24128648 Ha      -27925.44623608 eV
  | XC energy correction          :         -71.18392178 Ha       -1937.01306567 eV
  | XC potential correction       :          92.24294942 Ha        2510.05836401 eV
  | Free-atom electrostatic energy:        -774.41779566 Ha      -21072.98040144 eV
  | Hartree energy correction     :           0.05218740 Ha           1.42009148 eV
  | Entropy correction            :           0.00000000 Ha           0.00000000 eV
  | ---------------------------
  | Total energy                  :       -1779.54786710 Ha      -48423.96124770 eV
  | Total energy, T -> 0          :       -1779.54786710 Ha      -48423.96124770 eV  <-- do not rely on this value for anything but (periodic) metals
  | Electronic free energy        :       -1779.54786710 Ha      -48423.96124770 eV

  Derived energy quantities:
  | Kinetic energy                :        1778.40631246 Ha       48392.89796565 eV
  | Electrostatic energy          :       -3486.77025778 Ha      -94879.84614768 eV
  | Energy correction for multipole
  | error in Hartree potential    :          -0.00000000 Ha          -0.00000000 eV
  | Sum of eigenvalues per atom                           :      -27925.44623608 eV
  | Total energy (T->0) per atom                          :      -48423.96124770 eV  <-- do not rely on this value for anything but (periodic) metals
  | Electronic free energy per atom                       :      -48423.96124770 eV

  Self-consistency convergence accuracy:
  | Change of charge/spin density :  0.1269E-02  0.0000E+00
  | Change of sum of eigenvalues  :  0.4107E+00 eV
  | Change of total energy        :  0.1500E-04 eV

  End self-consistency iteration #     4       :  max(cpu_time)    wall_clock(cpu1)
  | Time for this iteration                    :        0.552 s           0.554 s
  | Charge density update                      :        0.216 s           0.217 s
  | Density mixing                             :        0.036 s           0.035 s
  | Hartree multipole update                   :        0.016 s           0.017 s
  | Hartree multipole summation                :        0.020 s           0.023 s
  | Integration                                :        0.264 s           0.261 s
  | Solution of K.-S. eqns.                    :        0.000 s           0.000 s
  | Total energy evaluation                    :        0.000 s           0.000 s
------------------------------------------------------------

------------------------------------------------------------
          Begin self-consistency iteration #    5

  Date     :  20151127, Time     :  115317.700
------------------------------------------------------------
  Evaluating new KS density.
  Integration grid: deviation in total charge (<rho> - N_e) =  -4.940240E-08
  | <rho_up-rho_dn> = N_up-N_dn =      0.0000; <|rho_up-rho_dn|> =      0.0000
  Pulay mixing of updated and previous charge densities.

  Evaluating partitioned Hartree potential by multipole expansion.
  | Analytical far-field extrapolation by fixed multipoles:
  | Hartree multipole sum: apparent total charge =  -0.192047E-03
  Summing up the Hartree potential.
  Time summed over all CPUs for potential: real work        0.023 s, elapsed        0.023 s
  | RMS charge density error from multipole expansion :   0.613534E-13

  Integrating Hamiltonian matrix: batch-based integration.
  Time summed over all CPUs for integration: real work        0.260 s, elapsed        0.260 s

  Updating Kohn-Sham eigenvalues, eigenvectors, occupation numbers, and Fermi level.
  Solving generalized eigenproblem
  Updating Kohn-Sham eigenvalues and eigenfunctions.
  Solving real generalised eigenvalue problem by standard LAPACK (fast)
  Updating Kohn-Sham eigenvalues and eigenfunctions.
  Solving real generalised eigenvalue problem by standard LAPACK (fast)
  Determining occupation numbers for Kohn-Sham eigenstates.
  | Chemical potential (Fermi level) in eV                 : -.30156194E+01
  | Error in electron count due to remaining E_F inaccuracy: 0.00000000E+00
  | Maximum occupation number of highest empty state:  0.00E+00

  Current spin moment of the entire structure :
  | N = N_up - N_down :    0.00
  | S                 :    0.00
  | J                 :    1.00

  Highest occupied state (VBM) at     -5.70493720 eV
  | Occupation number:      1.00000000
  | Spin channel:        1

  Lowest unoccupied state (CBM) at    -0.54648227 eV
  | Occupation number:      0.00000000
  | Spin channel:        1

  Overall HOMO-LUMO gap:      5.15845493 eV.

  Total energy components:
  | Sum of eigenvalues            :       -1026.23959726 Ha      -27925.40027007 eV
  | XC energy correction          :         -71.18401931 Ha       -1937.01571970 eV
  | XC potential correction       :          92.24307829 Ha        2510.06187087 eV
  | Free-atom electrostatic energy:        -774.41779566 Ha      -21072.98040144 eV
  | Hartree energy correction     :           0.05046686 Ha           1.37327301 eV
  | Entropy correction            :           0.00000000 Ha           0.00000000 eV
  | ---------------------------
  | Total energy                  :       -1779.54786708 Ha      -48423.96124733 eV
  | Total energy, T -> 0          :       -1779.54786708 Ha      -48423.96124733 eV  <-- do not rely on this value for anything but (periodic) metals
  | Electronic free energy        :       -1779.54786708 Ha      -48423.96124733 eV

  Derived energy quantities:
  | Kinetic energy                :        1778.40753998 Ha       48392.93136802 eV
  | Electrostatic energy          :       -3486.77138775 Ha      -94879.87689565 eV
  | Energy correction for multipole
  | error in Hartree potential    :           0.00000000 Ha           0.00000000 eV
  | Sum of eigenvalues per atom                           :      -27925.40027007 eV
  | Total energy (T->0) per atom                          :      -48423.96124733 eV  <-- do not rely on this value for anything but (periodic) metals
  | Electronic free energy per atom                       :      -48423.96124733 eV

  Self-consistency convergence accuracy:
  | Change of charge/spin density :  0.2684E-03  0.0000E+00
  | Change of sum of eigenvalues  :  0.4597E-01 eV
  | Change of total energy        :  0.3739E-06 eV

  End self-consistency iteration #     5       :  max(cpu_time)    wall_clock(cpu1)
  | Time for this iteration                    :        0.560 s           0.562 s
  | Charge density update                      :        0.212 s           0.215 s
  | Density mixing                             :        0.048 s           0.046 s
  | Hartree multipole update                   :        0.016 s           0.016 s
  | Hartree multipole summation                :        0.024 s           0.024 s
  | Integration                                :        0.260 s           0.260 s
  | Solution of K.-S. eqns.                    :        0.000 s           0.001 s
  | Total energy evaluation                    :        0.000 s           0.000 s
------------------------------------------------------------

------------------------------------------------------------
          Begin self-consistency iteration #    6

  Date     :  20151127, Time     :  115318.262
------------------------------------------------------------
  Evaluating new KS density.
  Integration grid: deviation in total charge (<rho> - N_e) =   3.816776E-09
  | <rho_up-rho_dn> = N_up-N_dn =      0.0000; <|rho_up-rho_dn|> =      0.0000
  Pulay mixing of updated and previous charge densities.

  Evaluating partitioned Hartree potential by multipole expansion.
  | Analytical far-field extrapolation by fixed multipoles:
  | Hartree multipole sum: apparent total charge =  -0.191961E-03
  Summing up the Hartree potential.
  Time summed over all CPUs for potential: real work        0.022 s, elapsed        0.022 s
  | RMS charge density error from multipole expansion :   0.101206E-12

  Integrating Hamiltonian matrix: batch-based integration.
  Time summed over all CPUs for integration: real work        0.263 s, elapsed        0.263 s

  Updating Kohn-Sham eigenvalues, eigenvectors, occupation numbers, and Fermi level.
  Solving generalized eigenproblem
  Updating Kohn-Sham eigenvalues and eigenfunctions.
  Solving real generalised eigenvalue problem by standard LAPACK (fast)
  Updating Kohn-Sham eigenvalues and eigenfunctions.
  Solving real generalised eigenvalue problem by standard LAPACK (fast)
  Determining occupation numbers for Kohn-Sham eigenstates.
  | Chemical potential (Fermi level) in eV                 : -.30155305E+01
  | Error in electron count due to remaining E_F inaccuracy: 0.00000000E+00
  | Maximum occupation number of highest empty state:  0.00E+00

  Current spin moment of the entire structure :
  | N = N_up - N_down :    0.00
  | S                 :    0.00
  | J                 :    1.00

  Highest occupied state (VBM) at     -5.70489420 eV
  | Occupation number:      1.00000000
  | Spin channel:        1

  Lowest unoccupied state (CBM) at    -0.54648652 eV
  | Occupation number:      0.00000000
  | Spin channel:        1

  Overall HOMO-LUMO gap:      5.15840768 eV.

  Total energy components:
  | Sum of eigenvalues            :       -1026.23749339 Ha      -27925.34302108 eV
  | XC energy correction          :         -71.18414181 Ha       -1937.01905300 eV
  | XC potential correction       :          92.24324018 Ha        2510.06627594 eV
  | Free-atom electrostatic energy:        -774.41779566 Ha      -21072.98040144 eV
  | Hartree energy correction     :           0.04832361 Ha           1.31495228 eV
  | Entropy correction            :           0.00000000 Ha           0.00000000 eV
  | ---------------------------
  | Total energy                  :       -1779.54786708 Ha      -48423.96124731 eV
  | Total energy, T -> 0          :       -1779.54786708 Ha      -48423.96124731 eV  <-- do not rely on this value for anything but (periodic) metals
  | Electronic free energy        :       -1779.54786708 Ha      -48423.96124731 eV

  Derived energy quantities:
  | Kinetic energy                :        1778.40909304 Ha       48392.97362893 eV
  | Electrostatic energy          :       -3486.77281831 Ha      -94879.91582324 eV
  | Energy correction for multipole
  | error in Hartree potential    :           0.00000000 Ha           0.00000000 eV
  | Sum of eigenvalues per atom                           :      -27925.34302108 eV
  | Total energy (T->0) per atom                          :      -48423.96124731 eV  <-- do not rely on this value for anything but (periodic) metals
  | Electronic free energy per atom                       :      -48423.96124731 eV

  Self-consistency convergence accuracy:
  | Change of charge/spin density :  0.1229E-03  0.0000E+00
  | Change of sum of eigenvalues  :  0.5725E-01 eV
  | Change of total energy        :  0.1500E-07 eV

  End self-consistency iteration #     6       :  max(cpu_time)    wall_clock(cpu1)
  | Time for this iteration                    :        0.572 s           0.573 s
  | Charge density update                      :        0.212 s           0.214 s
  | Density mixing                             :        0.056 s           0.056 s
  | Hartree multipole update                   :        0.016 s           0.016 s
  | Hartree multipole summation                :        0.024 s           0.023 s
  | Integration                                :        0.264 s           0.263 s
  | Solution of K.-S. eqns.                    :        0.000 s           0.000 s
  | Total energy evaluation                    :        0.000 s           0.000 s
------------------------------------------------------------

------------------------------------------------------------
          Begin self-consistency iteration #    7

  Date     :  20151127, Time     :  115318.835
------------------------------------------------------------
  Evaluating new KS density.
  Integration grid: deviation in total charge (<rho> - N_e) =  -8.332155E-09
  | <rho_up-rho_dn> = N_up-N_dn =      0.0000; <|rho_up-rho_dn|> =      0.0000
  Pulay mixing of updated and previous charge densities.

  Evaluating partitioned Hartree potential by multipole expansion.
  | Analytical far-field extrapolation by fixed multipoles:
  | Hartree multipole sum: apparent total charge =  -0.191985E-03
  Summing up the Hartree potential.
  Time summed over all CPUs for potential: real work        0.023 s, elapsed        0.023 s
  | RMS charge density error from multipole expansion :   0.683260E-13

  Integrating Hamiltonian matrix: batch-based integration.
  Time summed over all CPUs for integration: real work        0.260 s, elapsed        0.260 s

  Updating Kohn-Sham eigenvalues, eigenvectors, occupation numbers, and Fermi level.
  Solving generalized eigenproblem
  Updating Kohn-Sham eigenvalues and eigenfunctions.
  Solving real generalised eigenvalue problem by standard LAPACK (fast)
  Updating Kohn-Sham eigenvalues and eigenfunctions.
  Solving real generalised eigenvalue problem by standard LAPACK (fast)
  Determining occupation numbers for Kohn-Sham eigenstates.
  | Chemical potential (Fermi level) in eV                 : -.30155589E+01
  | Error in electron count due to remaining E_F inaccuracy: 0.00000000E+00
  | Maximum occupation number of highest empty state:  0.00E+00

  Current spin moment of the entire structure :
  | N = N_up - N_down :    0.00
  | S                 :    0.00
  | J                 :    1.00

  Highest occupied state (VBM) at     -5.70490725 eV
  | Occupation number:      1.00000000
  | Spin channel:        1

  Lowest unoccupied state (CBM) at    -0.54648425 eV
  | Occupation number:      0.00000000
  | Spin channel:        1

  Overall HOMO-LUMO gap:      5.15842300 eV.

  Total energy components:
  | Sum of eigenvalues            :       -1026.23819161 Ha      -27925.36202056 eV
  | XC energy correction          :         -71.18410106 Ha       -1937.01794414 eV
  | XC potential correction       :          92.24318632 Ha        2510.06481055 eV
  | Free-atom electrostatic energy:        -774.41779566 Ha      -21072.98040144 eV
  | Hartree energy correction     :           0.04903493 Ha           1.33430833 eV
  | Entropy correction            :           0.00000000 Ha           0.00000000 eV
  | ---------------------------
  | Total energy                  :       -1779.54786708 Ha      -48423.96124726 eV
  | Total energy, T -> 0          :       -1779.54786708 Ha      -48423.96124726 eV  <-- do not rely on this value for anything but (periodic) metals
  | Electronic free energy        :       -1779.54786708 Ha      -48423.96124726 eV

  Derived energy quantities:
  | Kinetic energy                :        1778.40857277 Ha       48392.95947170 eV
  | Electrostatic energy          :       -3486.77233879 Ha      -94879.90277483 eV
  | Energy correction for multipole
  | error in Hartree potential    :           0.00000000 Ha           0.00000000 eV
  | Sum of eigenvalues per atom                           :      -27925.36202056 eV
  | Total energy (T->0) per atom                          :      -48423.96124726 eV  <-- do not rely on this value for anything but (periodic) metals
  | Electronic free energy per atom                       :      -48423.96124726 eV

  Self-consistency convergence accuracy:
  | Change of charge/spin density :  0.6140E-04  0.0000E+00
  | Change of sum of eigenvalues  : -0.1900E-01 eV
  | Change of total energy        :  0.5027E-07 eV

  End self-consistency iteration #     7       :  max(cpu_time)    wall_clock(cpu1)
  | Time for this iteration                    :        0.580 s           0.581 s
  | Charge density update                      :        0.216 s           0.215 s
  | Density mixing                             :        0.064 s           0.065 s
  | Hartree multipole update                   :        0.016 s           0.017 s
  | Hartree multipole summation                :        0.024 s           0.023 s
  | Integration                                :        0.260 s           0.260 s
  | Solution of K.-S. eqns.                    :        0.000 s           0.001 s
  | Total energy evaluation                    :        0.000 s           0.000 s
------------------------------------------------------------

------------------------------------------------------------
          Begin self-consistency iteration #    8

  Date     :  20151127, Time     :  115319.416
------------------------------------------------------------
  Evaluating new KS density.
  Integration grid: deviation in total charge (<rho> - N_e) =   9.237056E-13
  | <rho_up-rho_dn> = N_up-N_dn =      0.0000; <|rho_up-rho_dn|> =      0.0000
  Pulay mixing of updated and previous charge densities.

  Evaluating partitioned Hartree potential by multipole expansion.
  | Analytical far-field extrapolation by fixed multipoles:
  | Hartree multipole sum: apparent total charge =  -0.191985E-03
  Summing up the Hartree potential.
  Time summed over all CPUs for potential: real work        0.022 s, elapsed        0.022 s
  | RMS charge density error from multipole expansion :   0.533171E-13

  Integrating Hamiltonian matrix: batch-based integration.
  Time summed over all CPUs for integration: real work        0.263 s, elapsed        0.263 s

  Updating Kohn-Sham eigenvalues, eigenvectors, occupation numbers, and Fermi level.
  Solving generalized eigenproblem
  Updating Kohn-Sham eigenvalues and eigenfunctions.
  Solving real generalised eigenvalue problem by standard LAPACK (fast)
  Updating Kohn-Sham eigenvalues and eigenfunctions.
  Solving real generalised eigenvalue problem by standard LAPACK (fast)
  Determining occupation numbers for Kohn-Sham eigenstates.
  | Chemical potential (Fermi level) in eV                 : -.30155589E+01
  | Error in electron count due to remaining E_F inaccuracy: 0.00000000E+00
  | Maximum occupation number of highest empty state:  0.00E+00

  Current spin moment of the entire structure :
  | N = N_up - N_down :    0.00
  | S                 :    0.00
  | J                 :    1.00

  Highest occupied state (VBM) at     -5.70490725 eV
  | Occupation number:      1.00000000
  | Spin channel:        1

  Lowest unoccupied state (CBM) at    -0.54648424 eV
  | Occupation number:      0.00000000
  | Spin channel:        1

  Overall HOMO-LUMO gap:      5.15842301 eV.

  Total energy components:
  | Sum of eigenvalues            :       -1026.23819190 Ha      -27925.36202845 eV
  | XC energy correction          :         -71.18410104 Ha       -1937.01794367 eV
  | XC potential correction       :          92.24318630 Ha        2510.06480993 eV
  | Free-atom electrostatic energy:        -774.41779566 Ha      -21072.98040144 eV
  | Hartree energy correction     :           0.04903523 Ha           1.33431637 eV
  | Entropy correction            :           0.00000000 Ha           0.00000000 eV
  | ---------------------------
  | Total energy                  :       -1779.54786708 Ha      -48423.96124726 eV
  | Total energy, T -> 0          :       -1779.54786708 Ha      -48423.96124726 eV  <-- do not rely on this value for anything but (periodic) metals
  | Electronic free energy        :       -1779.54786708 Ha      -48423.96124726 eV

  Derived energy quantities:
  | Kinetic energy                :        1778.40857254 Ha       48392.95946536 eV
  | Electrostatic energy          :       -3486.77233858 Ha      -94879.90276895 eV
  | Energy correction for multipole
  | error in Hartree potential    :          -0.00000000 Ha          -0.00000000 eV
  | Sum of eigenvalues per atom                           :      -27925.36202845 eV
  | Total energy (T->0) per atom                          :      -48423.96124726 eV  <-- do not rely on this value for anything but (periodic) metals
  | Electronic free energy per atom                       :      -48423.96124726 eV

  Self-consistency convergence accuracy:
  | Change of charge/spin density :  0.5176E-07  0.0000E+00
  | Change of sum of eigenvalues  : -0.7895E-05 eV
  | Change of total energy        :  0.4331E-10 eV

  Writing Kohn-Sham eigenvalues.

  Spin-up eigenvalues:

  State    Occupation    Eigenvalue [Ha]    Eigenvalue [eV]
      1       1.00000        -345.724875        -9407.65251
      2       1.00000         -41.608792        -1132.23284
      3       1.00000         -36.681072         -998.14276
      4       1.00000         -36.681072         -998.14276
      5       1.00000         -36.681072         -998.14276
      6       1.00000          -4.579955         -124.62692
      7       1.00000          -3.015942          -82.06795
      8       1.00000          -3.015942          -82.06795
      9       1.00000          -3.015942          -82.06795
     10       1.00000          -0.380956          -10.36634
     11       1.00000          -0.380956          -10.36634
     12       1.00000          -0.380956          -10.36634
     13       1.00000          -0.380956          -10.36634
     14       1.00000          -0.380956          -10.36634
     15       1.00000          -0.209651           -5.70491
     16       0.00000          -0.020083           -0.54648
     17       0.00000          -0.020083           -0.54648
     18       0.00000          -0.020083           -0.54648
     19       0.00000           0.206942            5.63118
     20       0.00000           0.425382           11.57525
     21       0.00000           0.425382           11.57525

  Spin-down eigenvalues:

  State    Occupation    Eigenvalue [Ha]    Eigenvalue [eV]
      1       1.00000        -345.724875        -9407.65251
      2       1.00000         -41.608792        -1132.23284
      3       1.00000         -36.681072         -998.14276
      4       1.00000         -36.681072         -998.14276
      5       1.00000         -36.681072         -998.14276
      6       1.00000          -4.579955         -124.62692
      7       1.00000          -3.015942          -82.06795
      8       1.00000          -3.015942          -82.06795
      9       1.00000          -3.015942          -82.06795
     10       1.00000          -0.380956          -10.36634
     11       1.00000          -0.380956          -10.36634
     12       1.00000          -0.380956          -10.36634
     13       1.00000          -0.380956          -10.36634
     14       1.00000          -0.380956          -10.36634
     15       1.00000          -0.209651           -5.70491
     16       0.00000          -0.020083           -0.54648
     17       0.00000          -0.020083           -0.54648
     18       0.00000          -0.020083           -0.54648
     19       0.00000           0.206942            5.63118
     20       0.00000           0.425382           11.57525
     21       0.00000           0.425382           11.57525

  Current spin moment of the entire structure :
  | N = N_up - N_down :    0.00
  | S                 :    0.00
  | J                 :    1.00

  Highest occupied state (VBM) at     -5.70490725 eV
  | Occupation number:      1.00000000
  | Spin channel:        1

  Lowest unoccupied state (CBM) at    -0.54648424 eV
  | Occupation number:      0.00000000
  | Spin channel:        1

  Overall HOMO-LUMO gap:      5.15842301 eV.

  Self-consistency cycle converged.

  End self-consistency iteration #     8       :  max(cpu_time)    wall_clock(cpu1)
  | Time for this iteration                    :        0.596 s           0.597 s
  | Charge density update                      :        0.216 s           0.216 s
  | Density mixing                             :        0.076 s           0.076 s
  | Hartree multipole update                   :        0.016 s           0.017 s
  | Hartree multipole summation                :        0.024 s           0.023 s
  | Integration                                :        0.260 s           0.263 s
  | Solution of K.-S. eqns.                    :        0.000 s           0.001 s
  | Total energy evaluation                    :        0.000 s           0.000 s
------------------------------------------------------------
  Writing cluster restart information to file restart.frag

  Energy and forces in a compact form:
  | Total energy uncorrected      :         -0.484239612472606E+05 eV
  | Total energy corrected        :         -0.484239612472606E+05 eV  <-- do not rely on this value for anything but (periodic) metals
  | Electronic free energy        :         -0.484239612472606E+05 eV

  ------------------------------------ 
  Start decomposition of the XC Energy 
  ------------------------------------ 
  Hartree-Fock part   :          0.000000000 Ha              0.000000000 eV
  ------------------------------------ 
  X Energy            :        -69.753451601 Ha          -1898.087991730 eV
  C Energy GGA        :         -1.430649438 Ha            -38.929951939 eV
  Total XC Energy     :        -71.184101039 Ha          -1937.017943669 eV
  LDA X and C from self-consistent density 
  X Energy LDA        :        -65.539907933 Ha          -1783.431634851 eV
  C Energy LDA        :         -2.653243872 Ha            -72.198439183 eV
  ------------------------------------ 
  End decomposition of the XC Energy 
  ------------------------------------ 

------------------------------------------------------------------------------
  Final output of selected total energy values:

  The following output summarizes some interesting total energy values
  at the end of a run (AFTER all relaxation, molecular dynamics, etc.).

  | Total energy of the DFT / Hartree-Fock s.c.f. calculation      :         -48423.961247261 eV
  | Final zero-broadening corrected energy (caution - metals only) :         -48423.961247261 eV
  | For reference only, the value of 1 Hartree used in FHI-aims is :             27.211384500 eV

  Before relying on these values, please be sure to understand exactly which
  total energy value is referred to by a given number. Different objects may
  all carry the same name 'total energy'. Definitions:

  Total energy of the DFT / Hartree-Fock s.c.f. calculation:
  | Note that this energy does not include ANY quantities calculated after the
  | s.c.f. cycle, in particular not ANY RPA, MP2, etc. many-body perturbation terms.

  Final zero-broadening corrected energy:
  | For metallic systems only, a broadening of the occupation numbers at the Fermi
  | level can be extrapolated back to zero broadening by an electron-gas inspired
  | formula. For all systems that are not real metals, this value can be
  | meaningless and should be avoided.

------------------------------------------------------------------------------
  Methods described in the following list of references were used in this FHI-aims run.
  If you publish the results, please make sure to cite these reference if they apply.
  FHI-aims is an academic code, and for our developers (often, Ph.D. students
  and postdocs), scientific credit in the community is essential.
  Thank you for helping us!

  For any use of FHI-aims, please cite:

    Volker Blum, Ralf Gehrke, Felix Hanke, Paula Havu, Ville Havu,
    Xinguo Ren, Karsten Reuter, and Matthias Scheffler
    'Ab initio molecular simulations with numeric atom-centered orbitals'
    Computer Physics Communications 180, 2175-2196 (2009)
    http://dx.doi.org/10.1016/j.cpc.2009.06.022


  For the real-space grid partitioning and parallelization used in this calculation, please cite:

    Ville Havu, Volker Blum, Paula Havu, and Matthias Scheffler,
    'Efficient O(N) integration for all-electron electronic structure calculation'
    'using numerically tabulated basis functions'
    Journal of Computational Physics 228, 8367-8379 (2009).
    http://dx.doi.org/10.1016/j.jcp.2009.08.008

  Of course, there are many other important community references, e.g., those cited in the
  above references. Our list is limited to references that describe implementations in the
  FHI-aims code. The reason is purely practical (length of this list) - please credit others as well.

------------------------------------------------------------
          Leaving FHI-aims.
          Date     :  20151127, Time     :  115320.054

          Computational steps:
          | Number of self-consistency cycles          :            8

          Detailed time accounting                     :  max(cpu_time)    wall_clock(cpu1)
          | Total time                                 :        6.732 s           6.760 s
          | Preparation time                           :        1.760 s           1.763 s
          | Grid partitioning                          :        0.068 s           0.065 s
          | Preloading free-atom quantities on grid    :        0.008 s           0.006 s
          | Free-atom superposition energy             :        0.036 s           0.036 s
          | Total time for integrations                :        2.408 s           2.409 s
          | Total time for solution of K.-S. equations :        0.004 s           0.007 s
          | Total time for density update              :        1.716 s           1.723 s
          | Total time for mixing                      :        0.328 s           0.328 s
          | Total time for Hartree multipole update    :        0.128 s           0.133 s
          | Total time for Hartree multipole sum       :        0.188 s           0.185 s
          | Total time for total energy evaluation     :        0.000 s           0.000 s

          Have a nice day.
------------------------------------------------------------
