  MPI-parallelism will be employed.
------------------------------------------------------------
          Invoking FHI-aims ...

          When using FHI-aims, please cite the following reference:

          Volker Blum, Ralf Gehrke, Felix Hanke, Paula Havu,
          Ville Havu, Xinguo Ren, Karsten Reuter, and Matthias Scheffler,
          'Ab Initio Molecular Simulations with Numeric Atom-Centered Orbitals',
          Computer Physics Communications 180, 2175-2196 (2009)

          For any questions about FHI-aims, please visit the aimsclub website
          with its forums and wiki. Contributions to both the forums and the
          wiki are warmly encouraged - they are for you, and everyone is welcome there.

------------------------------------------------------------



  Date     :  20190817, Time     :  153441.948
  Time zero on CPU 1             :   0.298060000000000E-01  s.
  Internal wall clock time zero  :           335288081.948  s.

  FHI-aims created a unique identifier for this run for later identification
  aims_uuid : 6E6FB88E-8108-4D1D-AFEA-6C58C96B6179

  Build configuration of the current instance of FHI-aims
  -------------------------------------------------------
  FHI-aims version      : 190813
  Commit number         : 3da7baeb3
  CMake host system     : Linux-4.4.180-94.97-default
  CMake version         : 3.5.2
  Fortran compiler      : /mpcdf/soft/SLE_12_SP3/packages/x86_64/intel_parallel_studio/2018.4/compilers_and_libraries_2018.5.274/linux/mpi/bin64/mpiifort (Intel) version 18.0.5.20180823
  Fortran compiler flags: -O3 -ip -fp-model precise
  C compiler            : /mpcdf/soft/SLE_12_SP3/packages/skylake/intel/18.0.5/bin/icc (Intel) version 18.0.5.20180823
  C compiler flags      : -O3 -ip -fp-model precise
  Architecture          :
  Using MPI
  Using Scalapack
  Using C files
  Using SPGlib
  Using i-PI
  Linking against: /mpcdf/soft/SLE_12_SP3/packages/x86_64/anaconda/3.5.1.0/lib/libmkl_intel_lp64.so
                   /mpcdf/soft/SLE_12_SP3/packages/x86_64/anaconda/3.5.1.0/lib/libmkl_sequential.so
                   /mpcdf/soft/SLE_12_SP3/packages/x86_64/anaconda/3.5.1.0/lib/libmkl_core.so
                   /mpcdf/soft/SLE_12_SP3/packages/x86_64/anaconda/3.5.1.0/lib/libmkl_blacs_intelmpi_lp64.so
                   /mpcdf/soft/SLE_12_SP3/packages/x86_64/anaconda/3.5.1.0/lib/libmkl_scalapack_lp64.so

  Using        8 parallel tasks.
  Task        0 on host co1631 reporting.
  Task        1 on host co1631 reporting.
  Task        2 on host co1631 reporting.
  Task        3 on host co1631 reporting.
  Task        4 on host co1631 reporting.
  Task        5 on host co1631 reporting.
  Task        6 on host co1631 reporting.
  Task        7 on host co1631 reporting.

  Performing system and environment tests:
  | Environment variable OMP_NUM_THREADS correctly set to 1.
  | Maximum stacksize for task 0: unlimited
  | Maximum stacksize for task 1: unlimited
  | Maximum stacksize for task 2: unlimited
  | Maximum stacksize for task 3: unlimited
  | Maximum stacksize for task 4: unlimited
  | Maximum stacksize for task 5: unlimited
  | Maximum stacksize for task 6: unlimited
  | Maximum stacksize for task 7: unlimited
  | Current stacksize for task 0: unlimited
  | Current stacksize for task 1: unlimited
  | Current stacksize for task 2: unlimited
  | Current stacksize for task 3: unlimited
  | Current stacksize for task 4: unlimited
  | Current stacksize for task 5: unlimited
  | Current stacksize for task 6: unlimited
  | Current stacksize for task 7: unlimited
  | Checking for scalapack...
  | Testing pdtran()...
  | All pdtran() tests passed.

  Obtaining array dimensions for all initial allocations:
  
  -----------------------------------------------------------------------
  Parsing control.in (first pass over file, find array dimensions only).
  The contents of control.in will be repeated verbatim below
  unless switched off by setting 'verbatim_writeout .false.' .
  in the first line of control.in .
  -----------------------------------------------------------------------
  
    #
    #  Physical model settings
    #
      xc               pw-lda
      charge           0.
      spin             collinear
      relativistic     none
      override_relativity .true.
  #    relativistic     zora scalar 1e-12
    #
    #  SCF convergence settings
    #
      occupation_type  gaussian 0.1
      mixer            pulay
        n_max_pulay             10
        charge_mix_param        0.5
        # ini_linear_mixing     10
        # ini_linear_mix_param  0.05
        # preconditioner kerker 1.5
        # precondition_max_l    0
        # preconditioner turnoff charge 1e-4
        # preconditioner turnoff sum_ev 1e-1
      sc_accuracy_rho  1E-4  # reduced from 1e-5, together with sc_accuracy_etot
      sc_accuracy_eev  1E-3
      sc_accuracy_etot 1E-5  # reduced from 1e-6, underconverged by 0.5 meV - but testcase only.
      sc_iter_limit    100
    #
    #  For periodic boundary conditions
    #
      k_grid 6 6 6           # 10 10 10 might be more realistic
  
  # output dos -20 20 2000 0.01
  # dos_kgrid_factors 3 3 3
  
  output band 0       0       0       0       0.5     0.5     20   Gamma X
  output band 0       0.5     0.5     0.25    0.5     0.75    20   X     W
  output band 0.25    0.5     0.75    0.5     0.5     0.5     20   W     L
  output band 0.5     0.5     0.5     0       0       0       20   L     Gamma
  output band 0       0       0       0.375   0.357   0.75    20   Gamma K
  output band 0.375   0.357   0.75    0.5     0.5     1.0     20   K     X
  
  ################################################################################
  #
  #  FHI-aims code project
  #  VB, Fritz-Haber Institut, 2009
  #
  #  Suggested "light" defaults for Sc atom (to be pasted into control.in file)
  #  Be sure to double-check any results obtained with these settings for post-processing,
  #  e.g., with the "tight" defaults and larger basis sets.
  #
  ################################################################################
    species        Sc
  #     global species definitions
      nucleus             21
      mass                44.955912
  #
      l_hartree           4
  #
      cut_pot             3.0          1.0  1.0  # Cutoff reduced! Proof of principle.
      basis_dep_cutoff    1e-4
  #
      radial_base         47 5.0
      radial_multiplier   1
      angular_grids       specified
        division   0.6021   50
        division   1.1116  110
        division   1.4663  194
        division   1.6660  302
  #      division   1.8551  434
  #      division   2.0245  590
  #      division   2.2132  770
  #      division   2.5421  974
  #      division   3.1021 1202
  #      outer_grid  974
        outer_grid  302
  ################################################################################
  #
  #  Definition of "minimal" basis
  #
  ################################################################################
  #     valence basis states
      valence      4  s   2.
      valence      3  p   6.
      valence      3  d   1.
  #     ion occupancy
      ion_occ      4  s   1.
      ion_occ      3  p   6.
  ################################################################################
  #
  #  Suggested additional basis functions. For production calculations,
  #  uncomment them one after another (the most important basis functions are
  #  listed first).
  #
  #  Constructed for dimers: 1.75 A, 2.15 A, 2.75 A, 3.5 A, 4.5 A
  #
  #  Basis set generation could be continued below tier 3.
  #
  ################################################################################
  #  "First tier" - improvements: -267.88 meV to -17.01 meV
       hydro 4 f 6.8
       ionic 4 p auto
       ionic 4 d auto
  #     hydro 5 g 10.4
       ionic 4 s auto
  #  "Second tier" - improvements: -14.68 meV to -1.92 meV
  #     hydro 4 f 9.8
  #     ionic 3 d auto
  #     hydro 3 p 2.4
  #     hydro 6 h 14.8
  #     hydro 4 d 6.2
  #     hydro 1 s 0.45
  #  "Third tier" - improvements: -1.14 meV to -0.26 meV
  #     hydro 4 f 8
  #     hydro 5 g 12
  #     hydro 2 p 1.9
  #     hydro 3 d 3.2
  #     hydro 6 h 16
  #     hydro 4 s 3.5
  #  Further basis functions - not yet done.
  
  
  
  
  
  plus_u      3 d 5.0
  
  ################################################################################
  #
  #  FHI-aims code project
  #  VB, Fritz-Haber Institut, 2009
  #
  #  Suggested "light" defaults for N atom (to be pasted into control.in file)
  #  Be sure to double-check any results obtained with these settings for post-processing,
  #  e.g., with the "tight" defaults and larger basis sets.
  #
  ################################################################################
    species        N
  #     global species definitions
      nucleus             7
      mass                14.0067
  #
      l_hartree           4
  #
      cut_pot             3.0  1.0  1.0  # Cutoff reduced! Proof of principle.
      basis_dep_cutoff    1e-4
  #
      radial_base         35 5.0
      radial_multiplier   1
      angular_grids       specified
        division   0.2599   50
        division   0.4601  110
        division   0.5885  194
        division   0.6503  302
  #      division   0.6939  434
  #      division   0.7396  590
  #      division   0.7632  770
  #      division   0.8122  974
  #      division   1.1604 1202
  #      outer_grid  974
        outer_grid  302
  ################################################################################
  #
  #  Definition of "minimal" basis
  #
  ################################################################################
  #     valence basis states
      valence      2  s   2.
      valence      2  p   3.
  #     ion occupancy
      ion_occ      2  s   1.
      ion_occ      2  p   2.
  ################################################################################
  #
  #  Suggested additional basis functions. For production calculations,
  #  uncomment them one after another (the most important basis functions are
  #  listed first).
  #
  #  Constructed for dimers: 1.0 A, 1.1 A, 1.5 A, 2.0 A, 3.0 A
  #
  ################################################################################
  #  "First tier" - improvements: -1193.42 meV to -220.60 meV
       hydro 2 p 1.8
       hydro 3 d 6.8
       hydro 3 s 5.8
  #  "Second tier" - improvements: -80.21 meV to -6.86 meV
  #     hydro 4 f 10.8
  #     hydro 3 p 5.8
  #     hydro 1 s 0.8
  #     hydro 5 g 16
  #     hydro 3 d 4.9
  #  "Third tier" - improvements: -4.29 meV to -0.53 meV
  #     hydro 3 s 16
  #     ionic 2 p auto
  #     hydro 3 d 6.6
  #     hydro 4 f 11.6
  #  "Fourth tier" - improvements: -0.75 meV to -0.25 meV
  #     hydro 2 p 4.5
  #     hydro 2 s 2.4
  #     hydro 5 g 14.4
  #     hydro 4 d 14.4
  #     hydro 4 f 16.8
  # Further basis functions - -0.21 meV and below
  #     hydro 3 p 14.8
  #     hydro 3 s 4.4
  #     hydro 3 d 19.6
  #     hydro 5 g 12.8
  
  
  -----------------------------------------------------------------------
  Completed first pass over input file control.in .
  -----------------------------------------------------------------------
  
  
  -----------------------------------------------------------------------
  Parsing geometry.in (first pass over file, find array dimensions only).
  The contents of geometry.in will be repeated verbatim below
  unless switched off by setting 'verbatim_writeout .false.' .
  in the first line of geometry.in .
  -----------------------------------------------------------------------
  
  # Geometry for ScN crystal
  #
  # Sodium chloride structure
  #
  # lattice constant: 8.5 bohr = 4.4980 angstrom
  #
  atom  0.0000 0.0000 0.0000       Sc
  initial_moment 0.0
  atom  2.2490 0.0000 0.0000       N
  initial_moment 0.0
  
  lattice_vector 0.0000 2.2490 2.2490
  lattice_vector 2.2490 0.0000 2.2490
  lattice_vector 2.2490 2.2490 0.0000
  
  -----------------------------------------------------------------------
  Completed first pass over input file geometry.in .
  -----------------------------------------------------------------------
  

  Basic array size parameters:
  | Number of species                 :        2
  | Number of atoms                   :        2
  | Number of lattice vectors         :        3
  | Max. basis fn. angular momentum   :        3
  | Max. atomic/ionic basis occupied n:        4
  | Max. number of basis fn. types    :        3
  | Max. radial fns per species/type  :        7
  | Max. logarithmic grid size        :     1380
  | Max. radial integration grid size :       47
  | Max. angular integration grid size:      302
  | Max. angular grid division number :        8
  | Radial grid for Hartree potential :     1380
  | Number of spin channels           :        2
  | Max. number of (n,l) shells per species with '+U' treatment:        1

------------------------------------------------------------
          Reading file control.in.
------------------------------------------------------------
  XC: Using Perdew-Wang parametrisation of Ceperley-Alder LDA.
  Charge =   0.000000E+00: Neutral system requested explicitly.
  Spin treatment: Spin density functional theory - collinear spins.
  Non-relativistic treatment of kinetic energy.
  override_relativity: Explicitly overriding any built-in relativity checks.
  If you use this flag, you should really know what you are doing.
  Occupation type: Gaussian broadening, width =   0.100000E+00 eV.
  Using pulay charge density mixing.
  Pulay mixing - number of memorized iterations:   10
  Charge density mixing - mixing parameter:     0.5000
  Convergence accuracy of self-consistent charge density:  0.1000E-03
  Convergence accuracy of sum of eigenvalues:  0.1000E-02
  Convergence accuracy of total energy:  0.1000E-04
  Maximum number of s.-c. iterations  :   100
  Found k-point grid:         6         6         6

  Plot band    1
  | begin  0.000000  0.000000  0.000000
  | end    0.000000  0.500000  0.500000
  | number of points:   20

  Plot band    2
  | begin  0.000000  0.500000  0.500000
  | end    0.250000  0.500000  0.750000
  | number of points:   20

  Plot band    3
  | begin  0.250000  0.500000  0.750000
  | end    0.500000  0.500000  0.500000
  | number of points:   20

  Plot band    4
  | begin  0.500000  0.500000  0.500000
  | end    0.000000  0.000000  0.000000
  | number of points:   20

  Plot band    5
  | begin  0.000000  0.000000  0.000000
  | end    0.375000  0.357000  0.750000
  | number of points:   20

  Plot band    6
  | begin  0.375000  0.357000  0.750000
  | end    0.500000  0.500000  1.000000
  | number of points:   20
 
  Reading configuration options for species Sc                  .
  | Found nuclear charge :  21.0000
  | Found atomic mass :    44.9559120000000      amu
  | Found l_max for Hartree potential  :   4
  | Found cutoff potl. onset [A], width [A], scale factor :    3.00000    1.00000    1.00000
  | Threshold for basis-dependent cutoff potential is   0.100000E-03
  | Found data for basic radial integration grid :    47 points, outermost radius =    5.000 A
  | Found multiplier for basic radial grid :   1
  | Found angular grid specification: user-specified.
  | Specified grid contains     5 separate shells.
  | Check grid settings after all constraints further below.
  | Found free-atom valence shell :  4 s   2.000
  | Found free-atom valence shell :  3 p   6.000
  | Found free-atom valence shell :  3 d   1.000
  | Found free-ion valence shell :  4 s   1.000
  | Found free-ion valence shell :  3 p   6.000
  | Found hydrogenic basis function :  4 f   6.800
  | Found ionic basis function :  4 p , default cutoff radius.
  | Found ionic basis function :  4 d , default cutoff radius.
  | Found ionic basis function :  4 s , default cutoff radius.
  | Found request for '+U' treatment for  3 d shell, U =     5.000000 eV.
  Species Sc                  : Missing cutoff potential type.
  Defaulting to exp(1/x)/(1-x)^2 type cutoff potential.
  Species Sc: No 'logarithmic' tag. Using default grid for free atom:
  | Default logarithmic grid data [bohr] : 0.1000E-03 0.1000E+03 0.1012E+01
  | Will include ionic basis functions of  2.0-fold positive Sc                   ion.
  Species Sc: On-site basis accuracy parameter (for Gram-Schmidt orthonormalisation) not specified.
  Using default value basis_acc =  0.1000000E-03.
  Species Sc                  : Using default innermost maximum threshold i_radial=  2 for radial functions.
  Species Sc                  : Default cutoff onset for free atom density etc. : 0.30000000E+01 AA.
  Species Sc                  : Basic radial grid will be enhanced according to radial_multiplier =   1, to contain    47 grid points.
 
  Reading configuration options for species N                   .
  | Found nuclear charge :   7.0000
  | Found atomic mass :    14.0067000000000      amu
  | Found l_max for Hartree potential  :   4
  | Found cutoff potl. onset [A], width [A], scale factor :    3.00000    1.00000    1.00000
  | Threshold for basis-dependent cutoff potential is   0.100000E-03
  | Found data for basic radial integration grid :    35 points, outermost radius =    5.000 A
  | Found multiplier for basic radial grid :   1
  | Found angular grid specification: user-specified.
  | Specified grid contains     5 separate shells.
  | Check grid settings after all constraints further below.
  | Found free-atom valence shell :  2 s   2.000
  | Found free-atom valence shell :  2 p   3.000
  | Found free-ion valence shell :  2 s   1.000
  | Found free-ion valence shell :  2 p   2.000
  | Found hydrogenic basis function :  2 p   1.800
  | Found hydrogenic basis function :  3 d   6.800
  | Found hydrogenic basis function :  3 s   5.800
  Species N                   : Missing cutoff potential type.
  Defaulting to exp(1/x)/(1-x)^2 type cutoff potential.
  Species N : No 'logarithmic' tag. Using default grid for free atom:
  | Default logarithmic grid data [bohr] : 0.1000E-03 0.1000E+03 0.1012E+01
  Species N : On-site basis accuracy parameter (for Gram-Schmidt orthonormalisation) not specified.
  Using default value basis_acc =  0.1000000E-03.
  Species N                   : Using default innermost maximum threshold i_radial=  2 for radial functions.
  Species N                   : Default cutoff onset for free atom density etc. : 0.30000000E+01 AA.
  Species N                   : Basic radial grid will be enhanced according to radial_multiplier =   1, to contain    35 grid points.
 
  Finished reading input file 'control.in'. Consistency checks are next.
 
  MPI_IN_PLACE appears to work with this MPI implementation.
  | Keeping use_mpi_in_place .true. (see manual).
  Target number of points in a grid batch is not set. Defaulting to  100
  Method for grid partitioning is not set. Defaulting to parallel hash+maxmin partitioning.
  Batch size limit is not set. Defaulting to    200
  By default, will store active basis functions for each batch.
  If in need of memory, prune_basis_once .false. can be used to disable this option.
  communication_type for Hartree potential was not specified.
  Defaulting to calc_hartree .
  Pulay mixer: Number of initial linear mixing iterations not set.
  Defaulting to    0 iterations.
  Work space size for distributed Hartree potential not set.
  Defaulting to   0.200000E+03 MB.
  Mixing parameter for spin density mixing has not been set.
  Using charge_mix_param as default:     0.5000.
  Algorithm-dependent basis array size parameters:
  | n_max_pulay                         :       10
  Presetting      1001 iterations before the initial mixing cycle
  is restarted anyway using the sc_init_iter criterion / keyword.
  Presetting a factor      1.000 between actual scf density residual
  and density convergence criterion sc_accuracy_rho below which sc_init_iter
  takes no effect.
  Calculation of forces was not defined in control.in. No forces will be calculated.
  Geometry relaxation not requested: no relaxation will be performed.
  No accuracy limit for integral partition fn. given. Defaulting to  0.1000E-14.
  No threshold value for u(r) in integrations given. Defaulting to  0.1000E-05.
  No accuracy for occupation numbers given. Defaulting to  0.1000E-12.
  No threshold value for occupation numbers given. Defaulting to  0.0000E+00.
  No accuracy for fermi level given. Defaulting to  0.1000E-19.
  Maximum # of iterations to find E_F not set. Defaulting to  200.
  Preferred method for the eigenvalue solver ('KS_method') not specified in 'control.in'.
  Defaulting to serial version, LAPACK (via ELSI), since more k-points than CPUs available.
  Will not use alltoall communication since running on < 1024 CPUs.
  Threshold for basis singularities not set.
  Default threshold for basis singularities:  0.1000E-04
  partition_type (choice of integration weights) for integrals was not specified.
  | Using a version of the partition function of Stratmann and coworkers ('stratmann_sparse').
  | At each grid point, the set of atoms used to build the partition table is smoothly restricted to
  | only those atoms whose free-atom density would be non-zero at that grid point.
  Partitioning for Hartree potential was not defined. Using partition_type for integrals.
  | Adjusted default value of keyword multip_moments_threshold to:       0.10000000E-11
  | This value may affect high angular momentum components of the Hartree potential in periodic systems.
  Angular momentum expansion for Kerker preconditioner not set explicitly.
  | Using default value of   0
  No explicit requirement for turning off preconditioner.
  | By default, it will be turned off when the charge convergence reaches
  | sc_accuracy_rho  =   0.100000E-03
  | sc_accuracy_eev  =   0.100000E-02
  | sc_accuracy_etot =   0.100000E-04
  No special mixing parameter while Kerker preconditioner is on.
  Using default: charge_mix_param =     0.5000.
  No q(lm)/r^(l+1) cutoff set for long-range Hartree potential.
  | Using default value of  0.100000E-09 .
  | Verify using the multipole_threshold keyword.
  Defaulting to new monopole extrapolation.
  Density update method: automatic selection selected.
  Using density matrix based charge density update.
 * Warning: DFT+U requires using density matrix based charge density update.
  Using density matrix based charge density update.
  Using packed matrix style: index .
  Defaulting to use time-reversal symmetry for k-point grid.
  Charge integration errors on the 3D integration grid will be compensated
  by explicit normalization and distribution of residual charges.
  Use the "compensate_multipole_errors" flag to change this behaviour.
------------------------------------------------------------


------------------------------------------------------------
          Reading geometry description geometry.in.
------------------------------------------------------------
 * Warning! You are trying to treat an element beyond Ca (Z=20) without
 * accounting for relativity. This may lead to physically incorrect results.
 * If you know what you are doing, you may override this warning using the
 * flag override_relativity in control.in.
 * Else, please use the keyword 'relativistic atomic_zora scalar' (for relaxation) or
 * 'relativistic zora scalar 1e-12' as described in the documentation.
 *
 * Additional information about a change made 04/05/2010 (will be removed 2011):
 * Since there is no harm in using atomic_zora, we now mandate relativity also
 * for the 3d elements. Apologies to all those whom this affects for the first time.
 * Of course, any older nonrelativistic total energies for these elements must never
 * be compared (added or subtracted) directly to atomic_zora results.
  Input structure read successfully.
  The structure contains        2 atoms,  and a total of         28.000 electrons.

  Input geometry:
  | Unit cell:
  |        0.00000000        2.24900000        2.24900000
  |        2.24900000        0.00000000        2.24900000
  |        2.24900000        2.24900000        0.00000000
  | Atomic structure:
  |       Atom                x [A]            y [A]            z [A]
  |    1: Species Sc            0.00000000        0.00000000        0.00000000
  |    2: Species N             2.24900000        0.00000000        0.00000000

  Lattice parameters for 3D lattice (in Angstroms) :     3.180566    3.180566    3.180566
  Angle(s) between unit vectors (in degrees)       :    60.000000   60.000000   60.000000

  | The smallest distance between any two atoms is         2.24900000 AA.
  | The first atom of this pair is atom number                      1 .
  | The second atom of this pair is atom number                     2 .
  | Wigner-Seitz cell of the first atom image           0     0     0 .
  | (The Wigner-Seitz cell of the second atom is 0 0 0  by definition.)

  Symmetry information by spglib:
  | Precision set to  0.1E-04
  | Number of Operations  : 48
  | Space group           : 225
  | International         : Fm-3m    Z
  | Schoenflies           : Oh^5

  Quantities derived from the lattice vectors:
  | Reciprocal lattice vector 1: -1.396884  1.396884  1.396884
  | Reciprocal lattice vector 2:  1.396884 -1.396884  1.396884
  | Reciprocal lattice vector 3:  1.396884  1.396884 -1.396884
  | Unit cell volume                               :   0.227509E+02  A^3

  Range separation radius for Ewald summation (hartree_convergence_parameter):      3.13509647 bohr.

  Fractional coordinates:
                         L1                L2                L3
       atom_frac         0.00000000        0.00000000        0.00000000  Sc
       atom_frac        -0.50000000        0.50000000        0.50000000  N

  Initial moments and charges:
  |  Atom   Moment         Charge        Species
  |     1   0.000000E+00   0.000000E+00   Sc
  |     2   0.000000E+00   0.000000E+00   N

  Number of empty states per atom not set in control.in - providing a guess from actual geometry.
  | Total number of empty states used during s.c.f. cycle:        9
  If you use a very high smearing, use empty_states (per atom!) in control.in to increase this value.

  Structure-dependent array size parameters: 
  | Number of distinct atom types in initial rho :        2
  | Maximum number of distinct radial functions  :       17
  | Maximum number of basis functions            :       45
  | Number of Kohn-Sham states (occupied + empty):       23
------------------------------------------------------------

------------------------------------------------------------
          Preparing all fixed parts of the calculation.
------------------------------------------------------------
  Determining machine precision:
    2.225073858507201E-308
  Setting up grids for atomic and cluster calculations.

  Creating wave function, potential, and density for free atoms.

  Species: Sc

  List of occupied orbitals and eigenvalues:
    n    l              occ      energy [Ha]    energy [eV]
    1    0           2.0000      -160.120041     -4357.0880
    2    0           2.0000       -17.143661      -466.5027
    3    0           2.0000        -1.928724       -52.4832
    4    0           2.0000        -0.100474        -2.7340
    2    1           6.0000       -14.177086      -385.7781
    3    1           6.0000        -1.174319       -31.9548
    3    2           1.0000        -0.077157        -2.0995


  Species: N

  List of occupied orbitals and eigenvalues:
    n    l              occ      energy [Ha]    energy [eV]
    1    0           2.0000       -14.005670      -381.1137
    2    0           2.0000        -0.672097       -18.2887
    2    1           3.0000        -0.261978        -7.1288

  Spin-polarized or charged system:
  Charge density initialized according to selected moments and charges.

  Creating spin-polarized density from free atoms.

  Species: Sc
  Charge:   0.000000
  Moment:   0.000000

  List of occupied orbitals and eigenvalues:
    n    l      energy [Ha]    energy [eV]    occupation
  Spin-up
    1    0      -160.120041     -4357.0880     1.00000000
    2    0       -17.143661      -466.5027     1.00000000
    3    0        -1.928724       -52.4832     1.00000000
    4    0        -0.100474        -2.7340     1.00000000
    2    1       -14.177086      -385.7781     3.00000000
    3    1        -1.174319       -31.9548     3.00000000
    3    2        -0.077157        -2.0995     0.50000000
  Spin-down
    1    0      -160.120041     -4357.0880     1.00000000
    2    0       -17.143661      -466.5027     1.00000000
    3    0        -1.928724       -52.4832     1.00000000
    4    0        -0.100474        -2.7340     1.00000000
    2    1       -14.177086      -385.7781     3.00000000
    3    1        -1.174319       -31.9548     3.00000000
    3    2        -0.077157        -2.0995     0.50000000


  Species: N
  Charge:   0.000000
  Moment:   0.000000

  List of occupied orbitals and eigenvalues:
    n    l      energy [Ha]    energy [eV]    occupation
  Spin-up
    1    0       -14.005670      -381.1137     1.00000000
    2    0        -0.672097       -18.2887     1.00000000
    2    1        -0.261978        -7.1288     1.50000000
  Spin-down
    1    0       -14.005670      -381.1137     1.00000000
    2    0        -0.672097       -18.2887     1.00000000
    2    1        -0.261978        -7.1288     1.50000000

  Creating fixed part of basis set: Ionic, confined, hydrogenic.
 
  Sc                   ion:

  List of free ionic orbitals and eigenvalues:
    n    l      energy [Ha]    energy [eV]
    1    0      -161.001309     -4381.0685
    2    0       -18.052843      -491.2428
    3    0        -2.778761       -75.6139
    4    0        -0.668098       -18.1799
    2    1       -15.083623      -410.4463
    3    1        -2.011903       -54.7467


  List of ionic basis orbitals and eigenvalues:
    n    l      energy [Ha]    energy [eV]    outer radius [A]
    4    1        -0.491818       -13.3831       3.721536
    4    2        -0.223537        -6.0827       3.767311
    4    0        -0.663246       -18.0478       3.721536

 
  Sc                   hydrogenic:
 
  List of hydrogenic basis orbitals: 
    n    l      effective z      eigenvalue [eV]  inner max. [A]     outer max. [A]     outer radius [A]   
    4    3         6.800000       -39.2767           1.238484           1.238484           3.721536
 
 
  N                    hydrogenic:
 
  List of hydrogenic basis orbitals: 
    n    l      effective z      eigenvalue [eV]  inner max. [A]     outer max. [A]     outer radius [A]   
    2    1         1.800000       -10.8065           1.149011           1.149011           3.715452
    3    2         6.800000       -69.9018           0.704619           0.704619           3.208490
    3    0         5.800000       -50.8498           0.067388           1.191934           3.670307
 

  Adding cutoff potential to free-atom effective potential.
  Creating atomic-like basis functions for current effective potential.

  Species Sc                  :

  List of atomic basis orbitals and eigenvalues:
    n    l      energy [Ha]    energy [eV]    outer radius [A]
    1    0      -160.120041     -4357.0880       0.519917
    2    0       -17.143661      -466.5027       1.600975
    3    0        -1.928724       -52.4832       3.543931
    4    0        -0.100474        -2.7340       3.721536
    2    1       -14.177086      -385.7781       1.701887
    3    1        -1.174319       -31.9548       3.631648
    3    2        -0.077157        -2.0995       3.721536


  Species N                   :

  List of atomic basis orbitals and eigenvalues:
    n    l      energy [Ha]    energy [eV]    outer radius [A]
    1    0       -14.005670      -381.1137       1.637919
    2    0        -0.672097       -18.2887       3.670307
    2    1        -0.261978        -7.1288       3.715452

  Assembling full basis from fixed parts.
 * Warning - Since '+U' treatment was requested,
 * the basis-dependent cutoff is turned off automatically.
  | Species Sc :   atomic orbital   1 s accepted.
  | Species Sc :   atomic orbital   2 s accepted.
  | Species Sc :   atomic orbital   3 s accepted.
  | Species Sc :   atomic orbital   4 s accepted.
  | Species Sc :    ionic orbital   4 s accepted.
  | Species Sc :   atomic orbital   2 p accepted.
  | Species Sc :   atomic orbital   3 p accepted.
  | Species Sc :    ionic orbital   4 p accepted.
  | Species Sc :   atomic orbital   3 d accepted.
  | Species Sc :    ionic orbital   4 d accepted.
  | Species Sc :    hydro orbital   4 f accepted.
 * Warning - Since '+U' treatment was requested,
 * the basis-dependent cutoff is turned off automatically.
  | Species N :   atomic orbital   1 s accepted.
  | Species N :   atomic orbital   2 s accepted.
  | Species N :    hydro orbital   3 s accepted.
  | Species N :   atomic orbital   2 p accepted.
  | Species N :    hydro orbital   2 p accepted.
  | Species N :    hydro orbital   3 d accepted.
 
  Basis size parameters after reduction:
  | Total number of radial functions:       17
  | Total number of basis functions :       45
 
  Per-task memory consumption for arrays in subroutine allocate_ext:
  |           3.005028MB.
  Testing on-site integration grid accuracy.
  |  Species  Function  <phi|h_atom|phi> (log., in eV)  <phi|h_atom|phi> (rad., in eV)
           1        1              -4357.0880010801              -4357.0852543197
           1        2               -466.5027435366               -466.5027180498
           1        3                -52.4832398307                -52.4832393347
           1        4                 -2.8075135311                 -2.9104898510 ***
           1        5                 12.6483333904                 12.1774298269 ***
           1        6               -385.7781347397               -385.7781344635
           1        7                -31.9548518734                -31.9548599170
           1        8                  1.5474051538                  1.4732508779 ***
           1        9                 -2.1092930143                 -2.1229781016
           1       10                  8.1373776058                  7.9182148754 ***
           1       11                 21.0127303828                 20.9999749160
           2       12               -381.1136847722               -381.1136244876
           2       13                -18.2888394591                -18.2887599946
           2       14                 15.3597839986                 15.3603931168
           2       15                 -7.1308326178                 -7.1298833004
           2       16                 10.1500396822                 10.1719843392
           2       17                 36.0241773843                 36.0242829128
 * Note: Onsite integrals marked "***" above are less accurate than
 * onsite_accuracy_threshold =    0.03000 eV. Usually, this is harmless.
 * However, one integral did have a negative value. This integral could be important.
 * When in doubt, tighten the "radial" and/or "radial_multiplier" flags to check.

  Preparing densities etc. for the partition functions (integrals / Hartree potential).

  Preparations completed.
  max(cpu_time)          :      0.378 s.
  Wall clock time (cpu1) :      0.386 s.
------------------------------------------------------------

------------------------------------------------------------
          Begin self-consistency loop: Initialization.

          Date     :  20190817, Time     :  153442.423
------------------------------------------------------------

  Initializing index lists of integration centers etc. from given atomic structure:
  Mapping all atomic coordinates to central unit cell.

  Initializing the k-points
          Using symmetry for reducing the k-points
  | k-points reduced from:      216 to      112
  | Number of k-points                             :       112
  The eigenvectors in the calculations are COMPLEX.
  | K-points in task   0:        14
  | K-points in task   1:        14
  | K-points in task   2:        14
  | K-points in task   3:        14
  | K-points in task   4:        14
  | K-points in task   5:        14
  | K-points in task   6:        14
  | K-points in task   7:        14
  | Number of basis functions in the Hamiltonian integrals :      1933
  | Number of basis functions in a single unit cell        :        45
  | Number of centers in hartree potential         :       770
  | Number of centers in hartree multipole         :       336
  | Number of centers in electron density summation:       232
  | Number of centers in basis integrals           :       240
  | Number of centers in integrals                 :        95
  | Number of centers in hamiltonian               :       232
  | Consuming        269 KiB for k_phase.
  | Number of super-cells (origin) [n_cells]                     :        2197
  | Number of super-cells (after PM_index) [n_cells]             :         154
  | Number of super-cells in hamiltonian [n_cells_in_hamiltonian]:         154
  | Size of matrix packed + index [n_hamiltonian_matrix_size] :       71168
  | Estimated reciprocal-space cutoff momentum G_max:         3.00835376 bohr^-1 .
  | Reciprocal lattice points for long-range Hartree potential:      64
  Partitioning the integration grid into batches with parallel hashing+maxmin method.
  | Number of batches:      149
  | Maximal batch size:     124
  | Minimal batch size:      59
  | Average batch size:      80.752
  | Standard deviation of batch sizes:      16.218

  Integration load balanced across     8 MPI tasks.
  Work distribution over tasks is as follows:
  Task     0 has       1471 integration points.
  Task     1 has       1494 integration points.
  Task     2 has       1505 integration points.
  Task     3 has       1493 integration points.
  Task     4 has       1502 integration points.
  Task     5 has       1512 integration points.
  Task     6 has       1510 integration points.
  Task     7 has       1545 integration points.
  Initializing partition tables, free-atom densities, potentials, etc. across the integration grid (initialize_grid_storage).
  | initialize_grid_storage: Actual outermost partition radius vs. multipole_radius_free
  | (-- VB: in principle, multipole_radius_free should be larger, hence this output)
  | Species        1: Confinement radius =              4.000000000000000 AA, multipole_radius_free =              4.004771386849282 AA.
  | Species        1: outer_partition_radius set to              4.004771386849282 AA .
  | Species        2: Confinement radius =              4.000000000000000 AA, multipole_radius_free =              4.047402084836786 AA.
  | Species        2: outer_partition_radius set to              4.047402084836786 AA .
  | The sparse table of interatomic distances needs        413.09 kbyte instead of       460.80 kbyte of memory.
  | Net number of integration points:    12032
  | of which are non-zero points    :     9604
  | Numerical average free-atom electrostatic potential    :    -19.93280700 eV
  Renormalizing the initial density to the exact electron count on the 3D integration grid.
  | Initial density: Formal number of electrons (from input files) :      28.0000000000
  | Integrated number of electrons on 3D grid     :      28.0029411449
  | Charge integration error                      :       0.0029411449
  | Normalization factor for density and gradient :       0.9998949701
  Renormalizing the free-atom superposition density to the exact electron count on the 3D integration grid.
  | Formal number of electrons (from input files) :      28.0000000000
  | Integrated number of electrons on 3D grid     :      28.0029411449
  | Charge integration error                      :       0.0029411449
  | Normalization factor for density and gradient :       0.9998949701
  Obtaining max. number of non-zero basis functions in each batch (get_n_compute_maxes).
  | Maximal number of non-zero basis functions:      591 in task     0
  | Maximal number of non-zero basis functions:      542 in task     1
  | Maximal number of non-zero basis functions:      607 in task     2
  | Maximal number of non-zero basis functions:      606 in task     3
  | Maximal number of non-zero basis functions:      620 in task     4
  | Maximal number of non-zero basis functions:      556 in task     5
  | Maximal number of non-zero basis functions:      602 in task     6
  | Maximal number of non-zero basis functions:      623 in task     7
  Allocating        0.442 MB for KS_eigenvector_complex
  Integrating Hamiltonian matrix: batch-based integration.
  Time summed over all CPUs for integration: real work        0.820 s, elapsed        0.848 s
  Integrating overlap matrix.
  Time summed over all CPUs for integration: real work        0.370 s, elapsed        0.384 s
  Decreasing sparse matrix size:
   Tolerance:  9.999999824516700E-014
   Hamiltonian matrix
  | Array has    46268 nonzero elements out of    71168 elements
  | Sparsity factor is 0.350
   Overlap matrix
  | Array has    40294 nonzero elements out of    71168 elements
  | Sparsity factor is 0.434
  New size of hamiltonian matrix:       46778

  Updating Kohn-Sham eigenvalues and eigenvectors using ELSI and the (modified) LAPACK eigensolver.
  Singularity check in k-point 8, task 0 (analysis for other k-points/tasks may follow below):
  Overlap matrix is not singular
  | Lowest and highest eigenvalues :  0.1527E-02,  0.6314E+01
  Finished singularity check of overlap matrix
  | Time :     0.000 s
  Starting LAPACK eigensolver
  Finished Cholesky decomposition
  | Time :     0.000 s
  Finished transformation to standard eigenproblem
  | Time :     0.000 s
  Finished solving standard eigenproblem
  | Time :     0.001 s
  Finished back-transformation of eigenvectors
  | Time :     0.000 s

  Obtaining occupation numbers and chemical potential using ELSI.
  | Chemical potential (Fermi level):    -9.07258786 eV
  Writing Kohn-Sham eigenvalues.

  Spin-up eigenvalues:
  K-point:       1 at    0.000000    0.000000    0.000000 (in units of recip. lattice)

  State    Occupation    Eigenvalue [Ha]    Eigenvalue [eV]
      1       1.00000        -160.122905        -4357.16593
      2       1.00000         -17.147346         -466.60304
      3       1.00000         -14.180648         -385.87505
      4       1.00000         -14.180648         -385.87505
      5       1.00000         -14.180648         -385.87505
      6       1.00000         -14.061964         -382.64551
      7       1.00000          -1.949677          -53.05340
      8       1.00000          -1.188318          -32.33578
      9       1.00000          -1.188318          -32.33578
     10       1.00000          -1.188318          -32.33578
     11       1.00000          -0.840981          -22.88427
     12       1.00000          -0.350464           -9.53661
     13       1.00000          -0.350464           -9.53661
     14       1.00000          -0.350464           -9.53661
     15       0.00000          -0.154276           -4.19805
     16       0.00000          -0.154276           -4.19805
     17       0.00000          -0.154276           -4.19805
     18       0.00000          -0.107154           -2.91581
     19       0.00000          -0.107154           -2.91581
     20       0.00000          -0.069511           -1.89148
     21       0.00000           0.315585            8.58749
     22       0.00000           0.521150           14.18121
     23       0.00000           0.521150           14.18121

  Spin-down eigenvalues:
  K-point:       1 at    0.000000    0.000000    0.000000 (in units of recip. lattice)

  State    Occupation    Eigenvalue [Ha]    Eigenvalue [eV]
      1       1.00000        -160.122905        -4357.16593
      2       1.00000         -17.147346         -466.60304
      3       1.00000         -14.180648         -385.87505
      4       1.00000         -14.180648         -385.87505
      5       1.00000         -14.180648         -385.87505
      6       1.00000         -14.061964         -382.64551
      7       1.00000          -1.949677          -53.05340
      8       1.00000          -1.188318          -32.33578
      9       1.00000          -1.188318          -32.33578
     10       1.00000          -1.188318          -32.33578
     11       1.00000          -0.840981          -22.88427
     12       1.00000          -0.350464           -9.53661
     13       1.00000          -0.350464           -9.53661
     14       1.00000          -0.350464           -9.53661
     15       0.00000          -0.154276           -4.19805
     16       0.00000          -0.154276           -4.19805
     17       0.00000          -0.154276           -4.19805
     18       0.00000          -0.107154           -2.91581
     19       0.00000          -0.107154           -2.91581
     20       0.00000          -0.069511           -1.89148
     21       0.00000           0.315585            8.58749
     22       0.00000           0.521150           14.18121
     23       0.00000           0.521150           14.18121

  Current spin moment of the entire structure :
  | N = N_up - N_down (sum over all k points):         0.00000
  | S (sum over all k points)                :         0.00000

  What follows are estimated values for band gap, HOMO, LUMO, etc.
  | They are estimated on a discrete k-point grid and not necessarily exact.
  | For converged numbers, create a DOS and/or band structure plot on a denser k-grid.

  Highest occupied state (VBM) at     -9.53661324 eV (relative to internal zero)
  | Occupation number:      1.00000000
  | K-point:       1 at    0.000000    0.000000    0.000000 (in units of recip. lattice)
  | Spin channel:        1

  Lowest unoccupied state (CBM) at    -6.90093738 eV (relative to internal zero)
  | Occupation number:      0.00000000
  | K-point:      78 at    0.500000    0.000000    0.500000 (in units of recip. lattice)
  | Spin channel:        1

  ESTIMATED overall HOMO-LUMO gap:      2.63567586 eV between HOMO at k-point 1 and LUMO at k-point 78
  | This appears to be an indirect band gap.
  | Smallest direct gap :      3.27521093 eV for k_point 16 at    0.500000    0.000000    0.500000 (in units of recip. lattice)
  | Direct gap HOMO spin channel :     1
  | Direct gap LUMO spin channel :     1
  The gap value is above 0.2 eV. Unless you are using a very sparse k-point grid,
  this system is most likely an insulator or a semiconductor.
  Calculating total energy contributions from superposition of free atom densities.

  Total energy components:
  | Sum of eigenvalues            :        -482.93009929 Ha      -13141.19661846 eV
  | XC energy correction          :         -43.62363833 Ha       -1187.05959588 eV
  | XC potential correction       :          57.67112936 Ha        1569.31127562 eV
  | Free-atom electrostatic energy:        -344.56666499 Ha       -9376.13600695 eV
  | Hartree energy correction     :           0.00000000 Ha           0.00000000 eV
  | DFT+U energy correction       :           0.00000000 Ha           0.00000000 eV
  | Entropy correction            :          -0.00000000 Ha          -0.00000000 eV
  | ---------------------------
  | Total energy                  :        -813.44927325 Ha      -22135.08094567 eV
  | Total energy, T -> 0          :        -813.44927325 Ha      -22135.08094567 eV  <-- do not rely on this value for anything but (periodic) metals
  | Electronic free energy        :        -813.44927325 Ha      -22135.08094567 eV

  Derived energy quantities:
  | Kinetic energy                :         811.86881130 Ha       22092.07438776 eV
  | Electrostatic energy          :       -1581.69444622 Ha      -43040.09573755 eV
  | Energy correction for multipole
  | error in Hartree potential    :           0.00000000 Ha           0.00000000 eV
  | Sum of eigenvalues per atom                           :       -6570.59830923 eV
  | Total energy (T->0) per atom                          :      -11067.54047283 eV  <-- do not rely on this value for anything but (periodic) metals
  | Electronic free energy per atom                       :      -11067.54047283 eV
  Initialize hartree_potential_storage
  Max. number of atoms included in rho_multipole:            2

  End scf initialization - timings             :  max(cpu_time)    wall_clock(cpu1)
  | Time for scf. initialization               :        0.319 s           0.384 s
  | Boundary condition initialization          :        0.052 s           0.052 s
  | Integration                                :        0.162 s           0.162 s
  | Solution of K.-S. eqns.                    :        0.028 s           0.027 s
  | Grid partitioning                          :        0.019 s           0.018 s
  | Preloading free-atom quantities on grid    :        0.003 s           0.003 s
  | Free-atom superposition energy             :        0.006 s           0.006 s
  | Total energy evaluation                    :        0.000 s           0.000 s

  Partial memory accounting:
  | Current value for overall tracked memory usage:
  |   Minimum:        1.692 MB (on task 0)
  |   Maximum:        1.692 MB (on task 0)
  |   Average:        1.692 MB
  | Peak value for overall tracked memory usage:
  |   Minimum:        7.148 MB (on task 1 after allocating wave)
  |   Maximum:        8.251 MB (on task 7 after allocating wave)
  |   Average:        7.842 MB
  | Largest tracked array allocation so far:
  |   Minimum:        2.241 MB (hamiltonian_shell on task 1)
  |   Maximum:        2.961 MB (hamiltonian_shell on task 7)
  |   Average:        2.692 MB
  Note:  These values currently only include a subset of arrays which are explicitly tracked.
  The "true" memory usage will be greater.
------------------------------------------------------------

------------------------------------------------------------
          Begin self-consistency iteration #    1

  Date     :  20190817, Time     :  153442.808
------------------------------------------------------------
  Evaluating new KS density using the density matrix
  Evaluating density matrix
  Evaluating density matrix
  Time summed over all CPUs for getting density from density matrix: real work        0.858 s, elapsed        0.910 s
  Integration grid: deviation in total charge (<rho> - N_e) =  -7.460699E-13
  | <rho_up-rho_dn> = N_up-N_dn =      0.0000; <|rho_up-rho_dn|> =      0.0000
  Pulay mixing of updated and previous charge densities.
  Renormalizing the density to the exact electron count on the 3D integration grid.
  | Formal number of electrons (from input files) :      28.0000000000
  | Integrated number of electrons on 3D grid     :      27.9997950737
  | Charge integration error                      :      -0.0002049263
  | Normalization factor for density and gradient :       1.0000073188

  Evaluating partitioned Hartree potential by multipole expansion.
  | Original multipole sum: apparent total charge =   0.286810E-13
  | Sum of charges compensated after spline to logarithmic grids =  -0.287893E-05
  | Analytical far-field extrapolation by fixed multipoles:
  | Hartree multipole sum: apparent total charge =   0.280414E-13
  Summing up the Hartree potential.
  Time summed over all CPUs for potential: real work        0.578 s, elapsed        0.606 s
  | RMS charge density error from multipole expansion :   0.846381E-02
  | Average real-space part of the electrostatic potential :      0.54414082 eV

  Integrating Hamiltonian matrix: batch-based integration.
  Time summed over all CPUs for integration: real work        0.826 s, elapsed        0.862 s
  ----------------------------------------------------------------
  Adding Hubbard correction to Hamiltonian
  ----------------------------------------------------------------
  !--Definition for DFT+U occupation matrix is:    'on-site'
  correlated subspace  1      |  U =   5.00 eV
   avg. occ. hubbard projectors:  0.0403  0.0403
   petukhov mixing factor      :  0.0160
  ----------------------------------------------------------------
   occupation matrix (subspace #           1 , spin            1 )
   0.02004   0.00000  -0.00000   0.00000   0.00000
   0.00000   0.02004  -0.00000  -0.00000   0.00000
  -0.00000  -0.00000   0.07078   0.00000   0.00000
   0.00000  -0.00000   0.00000   0.02004   0.00000
   0.00000   0.00000   0.00000   0.00000   0.07078
  ----------------------------------------------------------------
   occupation matrix (subspace #           1 , spin            2 )
   0.02004   0.00000  -0.00000   0.00000   0.00000
   0.00000   0.02004  -0.00000  -0.00000   0.00000
  -0.00000  -0.00000   0.07078   0.00000   0.00000
   0.00000  -0.00000   0.00000   0.02004   0.00000
   0.00000   0.00000   0.00000   0.00000   0.07078
  ----------------------------------------------------------------

  Updating Kohn-Sham eigenvalues and eigenvectors using ELSI and the (modified) LAPACK eigensolver.
  Starting LAPACK eigensolver
  Finished Cholesky decomposition
  | Time :     0.000 s
  Finished transformation to standard eigenproblem
  | Time :     0.000 s
  Finished solving standard eigenproblem
  | Time :     0.000 s
  Finished back-transformation of eigenvectors
  | Time :     0.001 s

  Obtaining occupation numbers and chemical potential using ELSI.
  | Chemical potential (Fermi level):    -7.22010115 eV
  Writing Kohn-Sham eigenvalues.

  Spin-up eigenvalues:
  K-point:       1 at    0.000000    0.000000    0.000000 (in units of recip. lattice)

  State    Occupation    Eigenvalue [Ha]    Eigenvalue [eV]
      1       1.00000        -160.218154        -4359.75780
      2       1.00000         -17.240555         -469.13937
      3       1.00000         -14.274340         -388.42456
      4       1.00000         -14.274340         -388.42456
      5       1.00000         -14.274340         -388.42456
      6       1.00000         -13.807333         -375.71665
      7       1.00000          -2.010422          -54.70636
      8       1.00000          -1.245955          -33.90416
      9       1.00000          -1.245955          -33.90416
     10       1.00000          -1.245955          -33.90416
     11       1.00000          -0.758904          -20.65082
     12       0.00000          -0.244675           -6.65795
     13       0.00000          -0.244675           -6.65795
     14       0.00000          -0.244675           -6.65795
     15       0.00000          -0.185553           -5.04914
     16       0.00000          -0.185553           -5.04914
     17       0.00000          -0.185553           -5.04914
     18       0.00000          -0.150248           -4.08845
     19       0.00000          -0.150248           -4.08845
     20       0.00000          -0.034546           -0.94005
     21       0.00000           0.303491            8.25842
     22       0.00000           0.499535           13.59303
     23       0.00000           0.499535           13.59303

  Spin-down eigenvalues:
  K-point:       1 at    0.000000    0.000000    0.000000 (in units of recip. lattice)

  State    Occupation    Eigenvalue [Ha]    Eigenvalue [eV]
      1       1.00000        -160.218154        -4359.75780
      2       1.00000         -17.240555         -469.13937
      3       1.00000         -14.274340         -388.42456
      4       1.00000         -14.274340         -388.42456
      5       1.00000         -14.274340         -388.42456
      6       1.00000         -13.807333         -375.71665
      7       1.00000          -2.010422          -54.70636
      8       1.00000          -1.245955          -33.90416
      9       1.00000          -1.245955          -33.90416
     10       1.00000          -1.245955          -33.90416
     11       1.00000          -0.758904          -20.65082
     12       0.00000          -0.244675           -6.65795
     13       0.00000          -0.244675           -6.65795
     14       0.00000          -0.244675           -6.65795
     15       0.00000          -0.185553           -5.04914
     16       0.00000          -0.185553           -5.04914
     17       0.00000          -0.185553           -5.04914
     18       0.00000          -0.150248           -4.08845
     19       0.00000          -0.150248           -4.08845
     20       0.00000          -0.034546           -0.94005
     21       0.00000           0.303491            8.25842
     22       0.00000           0.499535           13.59303
     23       0.00000           0.499535           13.59303

  Current spin moment of the entire structure :
  | N = N_up - N_down (sum over all k points):         0.00000
  | S (sum over all k points)                :         0.00000

  What follows are estimated values for band gap, HOMO, LUMO, etc.
  | They are estimated on a discrete k-point grid and not necessarily exact.
  | For converged numbers, create a DOS and/or band structure plot on a denser k-grid.

  Highest occupied state (VBM) at     -7.43745501 eV (relative to internal zero)
  | Occupation number:      0.99894341
  | K-point:      20 at    0.000000    0.833333    0.833333 (in units of recip. lattice)
  | Spin channel:        1

  Lowest unoccupied state (CBM) at    -7.01788086 eV (relative to internal zero)
  | Occupation number:      0.00211936
  | K-point:      11 at    0.000000    0.333333    0.333333 (in units of recip. lattice)
  | Spin channel:        1

  ESTIMATED overall HOMO-LUMO gap:      0.41957415 eV between HOMO at k-point 20 and LUMO at k-point 11
  | This appears to be an indirect band gap.
  | Smallest direct gap :      0.73782420 eV for k_point 11 at    0.000000    0.333333    0.333333 (in units of recip. lattice)
  | Direct gap HOMO spin channel :     1
  | Direct gap LUMO spin channel :     1
  The gap value is above 0.2 eV. Unless you are using a very sparse k-point grid,
  this system is most likely an insulator or a semiconductor.

  Total energy components:
  | Sum of eigenvalues            :        -483.23907615 Ha      -13149.60430651 eV
  | XC energy correction          :         -43.69608800 Ha       -1189.03105180 eV
  | XC potential correction       :          57.76667150 Ha        1571.91110960 eV
  | Free-atom electrostatic energy:        -344.56666499 Ha       -9376.13600695 eV
  | Hartree energy correction     :           0.34979853 Ha           9.51850238 eV
  | DFT+U energy correction       :           0.00059155 Ha           0.01609677 eV
  | Entropy correction            :          -0.00000100 Ha          -0.00002709 eV
  | ---------------------------
  | Total energy                  :        -813.38476756 Ha      -22133.32565651 eV
  | Total energy, T -> 0          :        -813.38476856 Ha      -22133.32568360 eV  <-- do not rely on this value for anything but (periodic) metals
  | Electronic free energy        :        -813.38476955 Ha      -22133.32571070 eV

  Derived energy quantities:
  | Kinetic energy                :         812.06567065 Ha       22097.43120318 eV
  | Electrostatic energy          :       -1581.75494175 Ha      -43041.74190467 eV
  | Energy correction for multipole
  | error in Hartree potential    :           0.00397079 Ha           0.10805082 eV
  | Sum of eigenvalues per atom                           :       -6574.80215325 eV
  | Total energy (T->0) per atom                          :      -11066.66284180 eV  <-- do not rely on this value for anything but (periodic) metals
  | Electronic free energy per atom                       :      -11066.66285535 eV

  Self-consistency convergence accuracy:
  | Change of charge/spin density :  0.3220E+00  0.0000E+00
  | Change of sum of eigenvalues  : -0.8408E+01 eV
  | Change of total energy        :  0.1755E+01 eV

  End self-consistency iteration #     1       :  max(cpu_time)    wall_clock(cpu1)
  | Time for this iteration                    :        0.358 s           0.358 s
  | Charge density update                      :        0.121 s           0.121 s
  | Density mixing & preconditioning           :        0.022 s           0.023 s
  | Hartree multipole update                   :        0.001 s           0.000 s
  | Hartree multipole summation                :        0.078 s           0.078 s
  | Integration                                :        0.111 s           0.111 s
  | Solution of K.-S. eqns.                    :        0.024 s           0.024 s
  | Total energy evaluation                    :        0.000 s           0.000 s

  Partial memory accounting:
  | Current value for overall tracked memory usage:
  |   Minimum:        1.692 MB (on task 0)
  |   Maximum:        1.692 MB (on task 0)
  |   Average:        1.692 MB
  | Peak value for overall tracked memory usage:
  |   Minimum:        7.148 MB (on task 1 after allocating wave)
  |   Maximum:        8.251 MB (on task 7 after allocating wave)
  |   Average:        7.842 MB
  | Largest tracked array allocation so far:
  |   Minimum:        2.241 MB (hamiltonian_shell on task 1)
  |   Maximum:        2.961 MB (hamiltonian_shell on task 7)
  |   Average:        2.692 MB
  Note:  These values currently only include a subset of arrays which are explicitly tracked.
  The "true" memory usage will be greater.
------------------------------------------------------------

------------------------------------------------------------
          Begin self-consistency iteration #    2

  Date     :  20190817, Time     :  153443.166
------------------------------------------------------------
  Evaluating new KS density using the density matrix
  Evaluating density matrix
  Evaluating density matrix
  Time summed over all CPUs for getting density from density matrix: real work        0.867 s, elapsed        0.907 s
  Integration grid: deviation in total charge (<rho> - N_e) =  -7.176482E-13
  | <rho_up-rho_dn> = N_up-N_dn =      0.0000; <|rho_up-rho_dn|> =      0.0000
  Pulay mixing of updated and previous charge densities.
  Renormalizing the density to the exact electron count on the 3D integration grid.
  | Formal number of electrons (from input files) :      28.0000000000
  | Integrated number of electrons on 3D grid     :      27.9998417471
  | Charge integration error                      :      -0.0001582529
  | Normalization factor for density and gradient :       1.0000056519

  Evaluating partitioned Hartree potential by multipole expansion.
  | Original multipole sum: apparent total charge =  -0.113150E-14
  | Sum of charges compensated after spline to logarithmic grids =  -0.258111E-05
  | Analytical far-field extrapolation by fixed multipoles:
  | Hartree multipole sum: apparent total charge =  -0.983910E-15
  Summing up the Hartree potential.
  Time summed over all CPUs for potential: real work        0.590 s, elapsed        0.616 s
  | RMS charge density error from multipole expansion :   0.956154E-02
  | Average real-space part of the electrostatic potential :      0.49792008 eV

  Integrating Hamiltonian matrix: batch-based integration.
  Time summed over all CPUs for integration: real work        0.817 s, elapsed        0.852 s
  ----------------------------------------------------------------
  Adding Hubbard correction to Hamiltonian
  ----------------------------------------------------------------
  !--Definition for DFT+U occupation matrix is:    'on-site'
  correlated subspace  1      |  U =   5.00 eV
   avg. occ. hubbard projectors:  0.1086  0.1086
   petukhov mixing factor      :  0.0327
  ----------------------------------------------------------------
   occupation matrix (subspace #           1 , spin            1 )
   0.06266   0.00000   0.00000   0.00000  -0.00000
   0.00000   0.06266   0.00000  -0.00000  -0.00000
   0.00000   0.00000   0.17757   0.00000  -0.00000
   0.00000  -0.00000   0.00000   0.06266   0.00000
  -0.00000  -0.00000  -0.00000   0.00000   0.17757
  ----------------------------------------------------------------
   occupation matrix (subspace #           1 , spin            2 )
   0.06266   0.00000   0.00000   0.00000  -0.00000
   0.00000   0.06266   0.00000  -0.00000  -0.00000
   0.00000   0.00000   0.17757   0.00000  -0.00000
   0.00000  -0.00000   0.00000   0.06266   0.00000
  -0.00000  -0.00000  -0.00000   0.00000   0.17757
  ----------------------------------------------------------------

  Updating Kohn-Sham eigenvalues and eigenvectors using ELSI and the (modified) LAPACK eigensolver.
  Starting LAPACK eigensolver
  Finished Cholesky decomposition
  | Time :     0.000 s
  Finished transformation to standard eigenproblem
  | Time :     0.000 s
  Finished solving standard eigenproblem
  | Time :     0.000 s
  Finished back-transformation of eigenvectors
  | Time :     0.000 s

  Obtaining occupation numbers and chemical potential using ELSI.
  | Chemical potential (Fermi level):    -7.26715758 eV
  Current spin moment of the entire structure :
  | N = N_up - N_down (sum over all k points):         0.00000
  | S (sum over all k points)                :         0.00000

  What follows are estimated values for band gap, HOMO, LUMO, etc.
  | They are estimated on a discrete k-point grid and not necessarily exact.
  | For converged numbers, create a DOS and/or band structure plot on a denser k-grid.

  Highest occupied state (VBM) at     -7.31536128 eV (relative to internal zero)
  | Occupation number:      0.75228669
  | K-point:       1 at    0.000000    0.000000    0.000000 (in units of recip. lattice)
  | Spin channel:        1

  Lowest unoccupied state (CBM) at    -7.21895389 eV (relative to internal zero)
  | Occupation number:      0.24771332
  | K-point:      16 at    0.000000    0.500000    0.500000 (in units of recip. lattice)
  | Spin channel:        1

  ESTIMATED overall HOMO-LUMO gap:      0.09640739 eV between HOMO at k-point 1 and LUMO at k-point 16
  | This appears to be an indirect band gap.
  | Smallest direct gap :      1.01350708 eV for k_point 16 at    0.000000    0.500000    0.500000 (in units of recip. lattice)
  | Direct gap HOMO spin channel :     1
  | Direct gap LUMO spin channel :     1
  However, this system has fractional occupation numbers. Since we use a finite k-point grid,
  this material is metallic within the approximate finite broadening function (occupation_type)
  applied to determine the occupation numbers.

  Checking to see if s.c.f. parameters should be adjusted.

  Total energy components:
  | Sum of eigenvalues            :        -483.03917607 Ha      -13144.16474855 eV
  | XC energy correction          :         -43.68216060 Ha       -1188.65206782 eV
  | XC potential correction       :          57.74826367 Ha        1571.41020685 eV
  | Free-atom electrostatic energy:        -344.56666499 Ha       -9376.13600695 eV
  | Hartree energy correction     :           0.16109322 Ha           4.38356959 eV
  | DFT+U energy correction       :           0.00326588 Ha           0.08886916 eV
  | Entropy correction            :          -0.00002283 Ha          -0.00062113 eV
  | ---------------------------
  | Total energy                  :        -813.37537889 Ha      -22133.07017772 eV
  | Total energy, T -> 0          :        -813.37540171 Ha      -22133.07079885 eV  <-- do not rely on this value for anything but (periodic) metals
  | Electronic free energy        :        -813.37542454 Ha      -22133.07141997 eV

  Derived energy quantities:
  | Kinetic energy                :         811.99953678 Ha       22095.63160912 eV
  | Electrostatic energy          :       -1581.69602095 Ha      -43040.13858818 eV
  | Energy correction for multipole
  | error in Hartree potential    :           0.00432331 Ha           0.11764315 eV
  | Sum of eigenvalues per atom                           :       -6572.08237428 eV
  | Total energy (T->0) per atom                          :      -11066.53539942 eV  <-- do not rely on this value for anything but (periodic) metals
  | Electronic free energy per atom                       :      -11066.53570999 eV

  Self-consistency convergence accuracy:
  | Change of charge/spin density :  0.1641E+00  0.0000E+00
  | Change of sum of eigenvalues  :  0.5440E+01 eV
  | Change of total energy        :  0.2555E+00 eV

  End self-consistency iteration #     2       :  max(cpu_time)    wall_clock(cpu1)
  | Time for this iteration                    :        0.355 s           0.355 s
  | Charge density update                      :        0.120 s           0.120 s
  | Density mixing & preconditioning           :        0.022 s           0.022 s
  | Hartree multipole update                   :        0.001 s           0.001 s
  | Hartree multipole summation                :        0.079 s           0.078 s
  | Integration                                :        0.109 s           0.110 s
  | Solution of K.-S. eqns.                    :        0.024 s           0.024 s
  | Total energy evaluation                    :        0.000 s           0.000 s

  Partial memory accounting:
  | Current value for overall tracked memory usage:
  |   Minimum:        1.693 MB (on task 0)
  |   Maximum:        1.693 MB (on task 0)
  |   Average:        1.693 MB
  | Peak value for overall tracked memory usage:
  |   Minimum:        7.148 MB (on task 1 after allocating wave)
  |   Maximum:        8.251 MB (on task 7 after allocating wave)
  |   Average:        7.842 MB
  | Largest tracked array allocation so far:
  |   Minimum:        2.241 MB (hamiltonian_shell on task 1)
  |   Maximum:        2.961 MB (hamiltonian_shell on task 7)
  |   Average:        2.692 MB
  Note:  These values currently only include a subset of arrays which are explicitly tracked.
  The "true" memory usage will be greater.
------------------------------------------------------------

------------------------------------------------------------
          Begin self-consistency iteration #    3

  Date     :  20190817, Time     :  153443.522
------------------------------------------------------------
  Evaluating new KS density using the density matrix
  Evaluating density matrix
  Evaluating density matrix
  Time summed over all CPUs for getting density from density matrix: real work        0.851 s, elapsed        0.891 s
  Integration grid: deviation in total charge (<rho> - N_e) =  -7.247536E-13
  | <rho_up-rho_dn> = N_up-N_dn =      0.0000; <|rho_up-rho_dn|> =      0.0000
  Pulay mixing of updated and previous charge densities.
  Renormalizing the density to the exact electron count on the 3D integration grid.
  | Formal number of electrons (from input files) :      28.0000000000
  | Integrated number of electrons on 3D grid     :      27.9997904645
  | Charge integration error                      :      -0.0002095355
  | Normalization factor for density and gradient :       1.0000074835

  Evaluating partitioned Hartree potential by multipole expansion.
  | Original multipole sum: apparent total charge =   0.944553E-14
  | Sum of charges compensated after spline to logarithmic grids =  -0.364234E-05
  | Analytical far-field extrapolation by fixed multipoles:
  | Hartree multipole sum: apparent total charge =   0.905197E-14
  Summing up the Hartree potential.
  Time summed over all CPUs for potential: real work        0.596 s, elapsed        0.623 s
  | RMS charge density error from multipole expansion :   0.144840E-01
  | Average real-space part of the electrostatic potential :      0.60831520 eV

  Integrating Hamiltonian matrix: batch-based integration.
  Time summed over all CPUs for integration: real work        0.821 s, elapsed        0.856 s
  ----------------------------------------------------------------
  Adding Hubbard correction to Hamiltonian
  ----------------------------------------------------------------
  !--Definition for DFT+U occupation matrix is:    'on-site'
  correlated subspace  1      |  U =   5.00 eV
   avg. occ. hubbard projectors:  0.0944  0.0944
   petukhov mixing factor      :  0.0521
  ----------------------------------------------------------------
   occupation matrix (subspace #           1 , spin            1 )
   0.03990  -0.00000   0.00000   0.00000  -0.00000
  -0.00000   0.03990   0.00000  -0.00000  -0.00000
   0.00000   0.00000   0.17619   0.00000  -0.00000
   0.00000  -0.00000   0.00000   0.03990   0.00000
  -0.00000  -0.00000  -0.00000   0.00000   0.17619
  ----------------------------------------------------------------
   occupation matrix (subspace #           1 , spin            2 )
   0.03990  -0.00000   0.00000   0.00000  -0.00000
  -0.00000   0.03990   0.00000  -0.00000  -0.00000
   0.00000   0.00000   0.17619   0.00000  -0.00000
   0.00000  -0.00000   0.00000   0.03990   0.00000
  -0.00000  -0.00000  -0.00000   0.00000   0.17619
  ----------------------------------------------------------------

  Updating Kohn-Sham eigenvalues and eigenvectors using ELSI and the (modified) LAPACK eigensolver.
  Starting LAPACK eigensolver
  Finished Cholesky decomposition
  | Time :     0.000 s
  Finished transformation to standard eigenproblem
  | Time :     0.000 s
  Finished solving standard eigenproblem
  | Time :     0.001 s
  Finished back-transformation of eigenvectors
  | Time :     0.000 s

  Obtaining occupation numbers and chemical potential using ELSI.
  | Chemical potential (Fermi level):    -7.17269003 eV
  Current spin moment of the entire structure :
  | N = N_up - N_down (sum over all k points):         0.00000
  | S (sum over all k points)                :         0.00000

  What follows are estimated values for band gap, HOMO, LUMO, etc.
  | They are estimated on a discrete k-point grid and not necessarily exact.
  | For converged numbers, create a DOS and/or band structure plot on a denser k-grid.

  Highest occupied state (VBM) at     -7.20845010 eV (relative to internal zero)
  | Occupation number:      0.69347471
  | K-point:      16 at    0.000000    0.500000    0.500000 (in units of recip. lattice)
  | Spin channel:        1

  Lowest unoccupied state (CBM) at    -7.13692995 eV (relative to internal zero)
  | Occupation number:      0.30652524
  | K-point:       1 at    0.000000    0.000000    0.000000 (in units of recip. lattice)
  | Spin channel:        1

  ESTIMATED overall HOMO-LUMO gap:      0.07152015 eV between HOMO at k-point 16 and LUMO at k-point 1
  | This appears to be an indirect band gap.
  | Smallest direct gap :      1.41666605 eV for k_point 57 at    0.000000    0.000000    0.000000 (in units of recip. lattice)
  | Direct gap HOMO spin channel :     1
  | Direct gap LUMO spin channel :     1
  However, this system has fractional occupation numbers. Since we use a finite k-point grid,
  this material is metallic within the approximate finite broadening function (occupation_type)
  applied to determine the occupation numbers.
  WARNING: DFT+U ENERGY (E_U) IS NEGATIVE!!!

  Total energy components:
  | Sum of eigenvalues            :        -483.08565160 Ha      -13145.42941213 eV
  | XC energy correction          :         -43.68165816 Ha       -1188.63839582 eV
  | XC potential correction       :          57.74749448 Ha        1571.38927611 eV
  | Free-atom electrostatic energy:        -344.56666499 Ha       -9376.13600695 eV
  | Hartree energy correction     :           0.20832718 Ha           5.66887107 eV
  | DFT+U energy correction       :           0.00452267 Ha           0.12306805 eV
  | Entropy correction            :          -0.00002534 Ha          -0.00068953 eV
  | ---------------------------
  | Total energy                  :        -813.37363042 Ha      -22133.02259966 eV
  | Total energy, T -> 0          :        -813.37365576 Ha      -22133.02328919 eV  <-- do not rely on this value for anything but (periodic) metals
  | Electronic free energy        :        -813.37368110 Ha      -22133.02397872 eV

  Derived energy quantities:
  | Kinetic energy                :         811.83011659 Ha       22091.02145113 eV
  | Electrostatic energy          :       -1581.52661152 Ha      -43035.52872302 eV
  | Energy correction for multipole
  | error in Hartree potential    :           0.00628257 Ha           0.17095743 eV
  | Sum of eigenvalues per atom                           :       -6572.71470606 eV
  | Total energy (T->0) per atom                          :      -11066.51164459 eV  <-- do not rely on this value for anything but (periodic) metals
  | Electronic free energy per atom                       :      -11066.51198936 eV

  Self-consistency convergence accuracy:
  | Change of charge/spin density :  0.4888E-01  0.0000E+00
  | Change of sum of eigenvalues  : -0.1265E+01 eV
  | Change of total energy        :  0.4758E-01 eV

  End self-consistency iteration #     3       :  max(cpu_time)    wall_clock(cpu1)
  | Time for this iteration                    :        0.353 s           0.353 s
  | Charge density update                      :        0.117 s           0.117 s
  | Density mixing & preconditioning           :        0.021 s           0.021 s
  | Hartree multipole update                   :        0.001 s           0.001 s
  | Hartree multipole summation                :        0.080 s           0.080 s
  | Integration                                :        0.109 s           0.109 s
  | Solution of K.-S. eqns.                    :        0.024 s           0.024 s
  | Total energy evaluation                    :        0.000 s           0.000 s

  Partial memory accounting:
  | Current value for overall tracked memory usage:
  |   Minimum:        1.693 MB (on task 0)
  |   Maximum:        1.693 MB (on task 0)
  |   Average:        1.693 MB
  | Peak value for overall tracked memory usage:
  |   Minimum:        7.148 MB (on task 1 after allocating wave)
  |   Maximum:        8.251 MB (on task 7 after allocating wave)
  |   Average:        7.842 MB
  | Largest tracked array allocation so far:
  |   Minimum:        2.241 MB (hamiltonian_shell on task 1)
  |   Maximum:        2.961 MB (hamiltonian_shell on task 7)
  |   Average:        2.692 MB
  Note:  These values currently only include a subset of arrays which are explicitly tracked.
  The "true" memory usage will be greater.
------------------------------------------------------------

------------------------------------------------------------
          Begin self-consistency iteration #    4

  Date     :  20190817, Time     :  153443.876
------------------------------------------------------------
  Evaluating new KS density using the density matrix
  Evaluating density matrix
  Evaluating density matrix
  Time summed over all CPUs for getting density from density matrix: real work        0.851 s, elapsed        0.893 s
  Integration grid: deviation in total charge (<rho> - N_e) =  -6.110668E-13
  | <rho_up-rho_dn> = N_up-N_dn =      0.0000; <|rho_up-rho_dn|> =      0.0000
  Pulay mixing of updated and previous charge densities.
  Renormalizing the density to the exact electron count on the 3D integration grid.
  | Formal number of electrons (from input files) :      28.0000000000
  | Integrated number of electrons on 3D grid     :      27.9998897156
  | Charge integration error                      :      -0.0001102844
  | Normalization factor for density and gradient :       1.0000039387

  Evaluating partitioned Hartree potential by multipole expansion.
  | Original multipole sum: apparent total charge =   0.271559E-13
  | Sum of charges compensated after spline to logarithmic grids =  -0.346586E-05
  | Analytical far-field extrapolation by fixed multipoles:
  | Hartree multipole sum: apparent total charge =   0.258768E-13
  Summing up the Hartree potential.
  Time summed over all CPUs for potential: real work        0.595 s, elapsed        0.622 s
  | RMS charge density error from multipole expansion :   0.140629E-01
  | Average real-space part of the electrostatic potential :      0.58827159 eV

  Integrating Hamiltonian matrix: batch-based integration.
  Time summed over all CPUs for integration: real work        0.826 s, elapsed        0.865 s
[...]
  | Free-atom electrostatic energy:        -344.56666499 Ha       -9376.13600695 eV
  | Hartree energy correction     :           0.16394966 Ha           4.46129725 eV
  | DFT+U energy correction       :           0.00616530 Ha           0.16776624 eV
  | Entropy correction            :          -0.00002125 Ha          -0.00057829 eV
  | ---------------------------
  | Total energy                  :        -813.37223635 Ha      -22132.98466482 eV
  | Total energy, T -> 0          :        -813.37225760 Ha      -22132.98524311 eV  <-- do not rely on this value for anything but (periodic) metals
  | Electronic free energy        :        -813.37227885 Ha      -22132.98582140 eV

  Derived energy quantities:
  | Kinetic energy                :         811.85431196 Ha       22091.67984066 eV
  | Electrostatic energy          :       -1581.55107447 Ha      -43036.19439370 eV
  | Energy correction for multipole
  | error in Hartree potential    :           0.00621502 Ha           0.16911926 eV
  | Sum of eigenvalues per atom                           :       -6572.11441301 eV
  | Total energy (T->0) per atom                          :      -11066.49262156 eV  <-- do not rely on this value for anything but (periodic) metals
  | Electronic free energy per atom                       :      -11066.49291070 eV

  Self-consistency convergence accuracy:
  | Change of charge/spin density :  0.3303E-05  0.0000E+00
  | Change of sum of eigenvalues  :  0.1076E-03 eV
  | Change of total energy        :  0.5282E-05 eV

  Preliminary charge convergence reached. Turning off preconditioner.

  Writing Kohn-Sham eigenvalues.

  Spin-up eigenvalues:
  K-point:       1 at    0.000000    0.000000    0.000000 (in units of recip. lattice)

  State    Occupation    Eigenvalue [Ha]    Eigenvalue [eV]
      1       1.00000        -160.169876        -4358.44408
      2       1.00000         -17.205282         -468.17954
      3       1.00000         -14.237420         -387.41991
      4       1.00000         -14.237420         -387.41991
      5       1.00000         -14.237420         -387.41991
      6       1.00000         -13.917204         -378.70639
      7       1.00000          -1.993635          -54.24958
      8       1.00000          -1.230106          -33.47289
      9       1.00000          -1.230106          -33.47289
     10       1.00000          -1.230106          -33.47289
     11       1.00000          -0.773256          -21.04138
     12       0.78216          -0.266105           -7.24109
     13       0.78216          -0.266105           -7.24109
     14       0.78216          -0.266105           -7.24109
     15       0.00000          -0.165020           -4.49041
     16       0.00000          -0.165020           -4.49041
     17       0.00000          -0.165020           -4.49041
     18       0.00000          -0.150443           -4.09377
     19       0.00000          -0.150443           -4.09377
     20       0.00000          -0.042254           -1.14980
     21       0.00000           0.307745            8.37416
     22       0.00000           0.507101           13.79891
     23       0.00000           0.507101           13.79891

  Spin-down eigenvalues:
  K-point:       1 at    0.000000    0.000000    0.000000 (in units of recip. lattice)

  State    Occupation    Eigenvalue [Ha]    Eigenvalue [eV]
      1       1.00000        -160.169876        -4358.44408
      2       1.00000         -17.205282         -468.17954
      3       1.00000         -14.237420         -387.41991
      4       1.00000         -14.237420         -387.41991
      5       1.00000         -14.237420         -387.41991
      6       1.00000         -13.917204         -378.70639
      7       1.00000          -1.993635          -54.24958
      8       1.00000          -1.230106          -33.47289
      9       1.00000          -1.230106          -33.47289
     10       1.00000          -1.230106          -33.47289
     11       1.00000          -0.773256          -21.04138
     12       0.78216          -0.266105           -7.24109
     13       0.78216          -0.266105           -7.24109
     14       0.78216          -0.266105           -7.24109
     15       0.00000          -0.165020           -4.49041
     16       0.00000          -0.165020           -4.49041
     17       0.00000          -0.165020           -4.49041
     18       0.00000          -0.150443           -4.09377
     19       0.00000          -0.150443           -4.09377
     20       0.00000          -0.042254           -1.14980
     21       0.00000           0.307745            8.37416
     22       0.00000           0.507101           13.79891
     23       0.00000           0.507101           13.79891

  Current spin moment of the entire structure :
  | N = N_up - N_down (sum over all k points):         0.00000
  | S (sum over all k points)                :         0.00000

  What follows are estimated values for band gap, HOMO, LUMO, etc.
  | They are estimated on a discrete k-point grid and not necessarily exact.
  | For converged numbers, create a DOS and/or band structure plot on a denser k-grid.

  Highest occupied state (VBM) at     -7.24108871 eV (relative to internal zero)
  | Occupation number:      0.78215990
  | K-point:       1 at    0.000000    0.000000    0.000000 (in units of recip. lattice)
  | Spin channel:        1

  Lowest unoccupied state (CBM) at    -7.13084956 eV (relative to internal zero)
  | Occupation number:      0.21784012
  | K-point:      88 at    0.500000    0.500000    0.000000 (in units of recip. lattice)
  | Spin channel:        1

  ESTIMATED overall HOMO-LUMO gap:      0.11023915 eV between HOMO at k-point 1 and LUMO at k-point 88
  | This appears to be an indirect band gap.
  | Smallest direct gap :      1.03177200 eV for k_point 78 at    0.500000    0.500000    0.000000 (in units of recip. lattice)
  | Direct gap HOMO spin channel :     1
  | Direct gap LUMO spin channel :     1
  However, this system has fractional occupation numbers. Since we use a finite k-point grid,
  this material is metallic within the approximate finite broadening function (occupation_type)
  applied to determine the occupation numbers.

  Self-consistency cycle converged.

  End self-consistency iteration #    15       :  max(cpu_time)    wall_clock(cpu1)
  | Time for this iteration                    :        0.368 s           0.368 s
  | Charge density update                      :        0.124 s           0.123 s
  | Density mixing                             :        0.021 s           0.021 s
  | Hartree multipole update                   :        0.001 s           0.001 s
  | Hartree multipole summation                :        0.081 s           0.080 s
  | Integration                                :        0.116 s           0.117 s
  | Solution of K.-S. eqns.                    :        0.025 s           0.024 s
  | Total energy evaluation                    :        0.000 s           0.000 s

  Partial memory accounting:
  | Current value for overall tracked memory usage:
  |   Minimum:        1.693 MB (on task 0)
  |   Maximum:        1.693 MB (on task 0)
  |   Average:        1.693 MB
  | Peak value for overall tracked memory usage:
  |   Minimum:        7.148 MB (on task 1 after allocating wave)
  |   Maximum:        8.251 MB (on task 7 after allocating wave)
  |   Average:        7.842 MB
  | Largest tracked array allocation so far:
  |   Minimum:        2.241 MB (hamiltonian_shell on task 1)
  |   Maximum:        2.961 MB (hamiltonian_shell on task 7)
  |   Average:        2.692 MB
  Note:  These values currently only include a subset of arrays which are explicitly tracked.
  The "true" memory usage will be greater.
------------------------------------------------------------

  Energy and forces in a compact form:
  | Total energy uncorrected      :         -0.221329846648218E+05 eV
  | Total energy corrected        :         -0.221329852431130E+05 eV  <-- do not rely on this value for anything but (periodic) metals
  | Electronic free energy        :         -0.221329858214041E+05 eV

  ------------------------------------ 
  Start decomposition of the XC Energy 
  ------------------------------------ 
  X and C from original XC functional choice 
  Hartree-Fock Energy :          0.000000000 Ha              0.000000000 eV
  X Energy            :        -41.497615927 Ha          -1129.207582816 eV
  C Energy            :         -2.184023206 Ha            -59.430295209 eV
  Total XC Energy     :        -43.681639132 Ha          -1188.637878025 eV
  ------------------------------------ 
  LDA X and C from self-consistent density 
  X Energy LDA        :        -41.497615927 Ha          -1129.207582816 eV
  C Energy LDA        :         -2.184023206 Ha            -59.430295209 eV
  ------------------------------------ 
  End decomposition of the XC Energy 
  ------------------------------------ 

------------------------------------------------------------

  -------------------------------------------------------------------
  Writing the requested band structure output (LAPACK version):
  -------------------------------------------------------------------

  Integrating Hamiltonian matrix: batch-based integration.
  Time summed over all CPUs for integration: real work        0.860 s, elapsed        0.896 s
  ----------------------------------------------------------------
  Adding Hubbard correction to Hamiltonian
  ----------------------------------------------------------------
  !--Definition for DFT+U occupation matrix is:    'on-site'
  correlated subspace  1      |  U =   5.00 eV
   avg. occ. hubbard projectors:  0.1007  0.1007
   petukhov mixing factor      :  0.0667
  ----------------------------------------------------------------
   occupation matrix (subspace #           1 , spin            1 )
   0.03725   0.00000  -0.00000   0.00000  -0.00000
   0.00000   0.03725  -0.00000  -0.00000  -0.00000
  -0.00000  -0.00000   0.19582   0.00000  -0.00000
   0.00000  -0.00000   0.00000   0.03725   0.00000
  -0.00000  -0.00000  -0.00000   0.00000   0.19582
  ----------------------------------------------------------------
   occupation matrix (subspace #           1 , spin            2 )
   0.03725   0.00000  -0.00000   0.00000  -0.00000
   0.00000   0.03725  -0.00000  -0.00000  -0.00000
  -0.00000  -0.00000   0.19582   0.00000  -0.00000
   0.00000  -0.00000   0.00000   0.03725   0.00000
  -0.00000  -0.00000  -0.00000   0.00000   0.19582
  ----------------------------------------------------------------

  Treating all   20 k-points in band plot segment #   1:

  Overlap matrix is not singular
  | Lowest and highest eigenvalues :  0.5597E-02,  0.6837E+01
  Finished singularity check of overlap matrix
  | Time :     0.001 s
  Starting LAPACK eigensolver
  Finished Cholesky decomposition
  | Time :     0.000 s
  Finished transformation to standard eigenproblem
  | Time :     0.000 s
  Finished solving standard eigenproblem
  | Time :     0.001 s
  Finished back-transformation of eigenvectors
  | Time :     0.000 s

  "Band gap" along reciprocal space direction number:    1
  | Lowest unoccupied state:      -7.13084954 eV
  | Highest occupied state :      -7.24108871 eV
  | Energy difference      :       0.11023918 eV


  Treating all   20 k-points in band plot segment #   2:


  "Band gap" along reciprocal space direction number:    2
  | Lowest unoccupied state:      -7.13084954 eV
  | Highest occupied state :      -8.16262156 eV
  | Energy difference      :       1.03177202 eV


  Treating all   20 k-points in band plot segment #   3:


  "Band gap" along reciprocal space direction number:    3
  | Lowest unoccupied state:      -3.34061858 eV
  | Highest occupied state :      -9.65058246 eV
  | Energy difference      :       6.30996388 eV


  Treating all   20 k-points in band plot segment #   4:


  "Band gap" along reciprocal space direction number:    4
  | Lowest unoccupied state:      -4.49041299 eV
  | Highest occupied state :      -7.24108871 eV
  | Energy difference      :       2.75067573 eV


  Treating all   20 k-points in band plot segment #   5:


  "Band gap" along reciprocal space direction number:    5
  | Lowest unoccupied state:      -4.78970874 eV
  | Highest occupied state :      -7.24108871 eV
  | Energy difference      :       2.45137998 eV


  Treating all   20 k-points in band plot segment #   6:


  "Band gap" along reciprocal space direction number:    6
  | Lowest unoccupied state:      -7.13084956 eV
  | Highest occupied state :      -8.16262157 eV
  | Energy difference      :       1.03177200 eV

  "Band gap" of total set of bands:
  | Lowest unoccupied state:      -7.13084956 eV
  | Highest occupied state :      -7.24108871 eV
  | Energy difference      :       0.11023915 eV


  Band Structure                                          :  max(cpu_time) wall_clock(cpu1)
  | Total Time                                            :          0.151            0.163
------------------------------------------------------------

------------------------------------------------------------------------------
  Final output of selected total energy values:

  The following output summarizes some interesting total energy values
  at the end of a run (AFTER all relaxation, molecular dynamics, etc.).

  | Total energy of the DFT / Hartree-Fock s.c.f. calculation      :         -22132.984664822 eV
  | Final zero-broadening corrected energy (caution - metals only) :         -22132.985243113 eV
  | For reference only, the value of 1 Hartree used in FHI-aims is :             27.211384500 eV
  | For reference only, the overall average (free atom contribution
  | + realspace contribution) of the electrostatic potential after
  | s.c.f. convergence is                                          :            -19.337690513 eV

  Before relying on these values, please be sure to understand exactly which
  total energy value is referred to by a given number. Different objects may
  all carry the same name 'total energy'. Definitions:

  Total energy of the DFT / Hartree-Fock s.c.f. calculation:
  | Note that this energy does not include ANY quantities calculated after the
  | s.c.f. cycle, in particular not ANY RPA, MP2, etc. many-body perturbation terms.

  Final zero-broadening corrected energy:
  | For metallic systems only, a broadening of the occupation numbers at the Fermi
  | level can be extrapolated back to zero broadening by an electron-gas inspired
  | formula. For all systems that are not real metals, this value can be
  | meaningless and should be avoided.

------------------------------------------------------------------------------
  Methods described in the following list of references were used in this FHI-aims run.
  If you publish the results, please make sure to cite these reference if they apply.
  FHI-aims is an academic code, and for our developers (often, Ph.D. students
  and postdocs), scientific credit in the community is essential.
  Thank you for helping us!

  For any use of FHI-aims, please cite:

    Volker Blum, Ralf Gehrke, Felix Hanke, Paula Havu, Ville Havu,
    Xinguo Ren, Karsten Reuter, and Matthias Scheffler
    'Ab initio molecular simulations with numeric atom-centered orbitals'
    Computer Physics Communications 180, 2175-2196 (2009)
    http://dx.doi.org/10.1016/j.cpc.2009.06.022


  The provided symmetry information was generated with SPGlib:

    Atsushi Togo, Yusuke Seto, Dimitar Pashov
    SPGlib 1.7.3 obtained from http://spglib.sourceforge.net
    Copyright (C) 2008 Atsushi Togo


 DFT+U infrastructure was used in your run
 please cite:

 Matthias Kick, Karsten Reuter and Harald Oberhofer,
 Intricacies Of DFT+U, not only in a Numeric Atom Centered Orbital Framework

 Journal of Chemical Theory and Computation
 https://


  The ELSI infrastructure was used in your run to solve the Kohn-Sham electronic structure.
  Please check out http://elsi-interchange.org to learn more.
  If scalability is important for your project, please acknowledge ELSI by citing:

    V. W-z. Yu, F. Corsetti, A. Garcia, W. P. Huhn, M. Jacquelin, W. Jia,
    B. Lange, L. Lin, J. Lu, W. Mi, A. Seifitokaldani, A. Vazquez-Mayagoitia,
    C. Yang, H. Yang, and V. Blum
    'ELSI: A unified software interface for Kohn-Sham electronic structure solvers'
    Computer Physics Communications 222, 267-285 (2018).
    http://dx.doi.org/10.1016/j.cpc.2017.09.007


  For the real-space grid partitioning and parallelization used in this calculation, please cite:

    Ville Havu, Volker Blum, Paula Havu, and Matthias Scheffler,
    'Efficient O(N) integration for all-electron electronic structure calculation'
    'using numerically tabulated basis functions'
    Journal of Computational Physics 228, 8367-8379 (2009).
    http://dx.doi.org/10.1016/j.jcp.2009.08.008

  Of course, there are many other important community references, e.g., those cited in the
  above references. Our list is limited to references that describe implementations in the
  FHI-aims code. The reason is purely practical (length of this list) - please credit others as well.

 * A warning was issued further up regarding the accuracy of onsite integrals.
   An integral with a negative eigenvalue was among the flagged integrals.
   In most standard situations, this warning is probably harmless.
   If needed, this can be verified by adjusting the radial_multiplier flag.

------------------------------------------------------------
          Leaving FHI-aims.
          Date     :  20190817, Time     :  153448.400

          Computational steps:
          | Number of self-consistency cycles          :           15
          | Number of SCF (re)initializations          :            1

          Detailed time accounting                     :  max(cpu_time)    wall_clock(cpu1)
          | Total time                                 :        6.369 s           6.452 s
          | Preparation time                           :        0.378 s           0.386 s
          | Boundary condition initalization           :        0.052 s           0.052 s
          | Grid partitioning                          :        0.019 s           0.018 s
          | Preloading free-atom quantities on grid    :        0.003 s           0.003 s
          | Free-atom superposition energy             :        0.006 s           0.006 s
          | Total time for integrations                :        1.860 s           1.863 s
          | Total time for solution of K.-S. equations :        0.395 s           0.393 s
          | Total time for density update              :        1.812 s           1.809 s
          | Total time for mixing & preconditioning    :        0.316 s           0.319 s
          | Total time for Hartree multipole update    :        0.012 s           0.011 s
          | Total time for Hartree multipole sum       :        1.201 s           1.202 s
          | Total time for total energy evaluation     :        0.006 s           0.004 s
          | Total time for band structures, DOS        :        0.158 s           0.163 s

          Partial memory accounting:
          | Residual value for overall tracked memory usage across tasks:     0.000000 MB (should be 0.000000 MB)
          | Peak values for overall tracked memory usage:
          |   Minimum:        7.148 MB (on task 1 after allocating wave)
          |   Maximum:        8.251 MB (on task 7 after allocating wave)
          |   Average:        7.842 MB
          | Largest tracked array allocation:
          |   Minimum:        2.241 MB (hamiltonian_shell on task 1)
          |   Maximum:        2.961 MB (hamiltonian_shell on task 7)
          |   Average:        2.692 MB
          Note:  These values currently only include a subset of arrays which are explicitly tracked.
          The "true" memory usage will be greater.

          Have a nice day.
------------------------------------------------------------
