  MPI-parallelism will be employed.
------------------------------------------------------------
          Invoking FHI-aims ...
          Version 122110
          Git rev.: afd2b8c Merge branch master of fhiaims.rzberlin.mp[...]
          Compiled on 2011/01/02 at 17:36:41

          When using FHI-aims, please cite the following reference:

          Volker Blum, Ralf Gehrke, Felix Hanke, Paula Havu,
          Ville Havu, Xinguo Ren, Karsten Reuter, and Matthias Scheffler,
          'Ab Initio Molecular Simulations with Numeric Atom-Centered Orbitals: FHI-aims',
          Computer Physics Communications 180, 2175-2196 (2009)

------------------------------------------------------------

  Date     :  20110102, Time     :  183116.444
  Time zero on CPU 1             :   0.219960000000000E-01  s.
  Internal wall clock time zero  :            63225076.444  s.

  Using        2 parallel tasks.
  Task        0 on host linux-zwfx reporting.
  Task        1 on host linux-zwfx reporting.
  Obtaining array dimensions for all initial allocations:
  Parsing control.in ...
  Parsing geometry.in ...
 
  Basic array size parameters: 
  | Number of species                 :        2
  | Number of atoms                   :        2
  | Number of lattice vectors         :        3
  | Max. basis fn. angular momentum   :        3
  | Max. atomic/ionic basis occupied n:        4
  | Max. number of basis fn. types    :        3
  | Max. radial fns per species/type  :        7
  | Max. logarithmic grid size        :     1380
  | Max. radial integration grid size :       47
  | Max. angular integration grid size:      302
  | Max. angular grid division number :        8
  | Radial grid for Hartree potential :     1380
  | Number of spin channels           :        2
  | Max. number of (n,l) shells per species with '+U' treatment:        1

------------------------------------------------------------
          Reading file control.in.
------------------------------------------------------------
  XC: Using Perdew-Wang parametrisation of Ceperley-Alder LDA.
  Charge =   0.000000E+00: Neutral system requested explicitly.
  Spin treatment: Spin density functional theory - collinear spins.
  Non-relativistic treatment of kinetic energy.
  override_relativity: Explicitly overriding any built-in relativity checks.
  If you use this flag, you should really know what you are doing.
  Occupation type: Gaussian broadening, width =   0.100000E+00 eV.
  Using pulay charge density mixing.
  Pulay mixing - number of memorized iterations:   10
  Charge density mixing - mixing parameter:     0.5000
  Convergence accuracy of self-consistent charge density: 0.1000E-03
  Convergence accuracy of sum of eigenvalues: 0.1000E-02
  Convergence accuracy of total energy: 0.1000E-04
  Maximum number of s.-c. iterations  :   100
  Found k-point grid:         6         6         6

  Plot band    1
  | begin  0.000000  0.000000  0.000000
  | end    0.000000  0.500000  0.500000
  | number of points:   20

  Plot band    2
  | begin  0.000000  0.500000  0.500000
  | end    0.250000  0.500000  0.750000
  | number of points:   20

  Plot band    3
  | begin  0.250000  0.500000  0.750000
  | end    0.500000  0.500000  0.500000
  | number of points:   20

  Plot band    4
  | begin  0.500000  0.500000  0.500000
  | end    0.000000  0.000000  0.000000
  | number of points:   20

  Plot band    5
  | begin  0.000000  0.000000  0.000000
  | end    0.375000  0.357000  0.750000
  | number of points:   20

  Plot band    6
  | begin  0.375000  0.357000  0.750000
  | end    0.500000  0.500000  1.000000
  | number of points:   20
 
  Reading configuration options for species Sc                  .
  | Found nuclear charge :  21.0000
  | Found atomic mass :    44.9559120000000      amu
  | Found l_max for Hartree potential  :   4
  | Found cutoff potl. onset [A], width [A], scale factor :    3.00000    1.00000    1.00000
  | Threshold for basis-dependent cutoff potential is   0.100000E-03
  | Found data for basic radial integration grid :    47 points, outermost radius =    5.000 A
  | Found multiplier for basic radial grid :   1
  | Found angular grid specification: user-specified.
  | Specified grid contains     5 separate shells.
  | Check grid settings after all constraints further below.
  | Found free-atom valence shell :  4 s   2.000
  | Found free-atom valence shell :  3 p   6.000
  | Found free-atom valence shell :  3 d   1.000
  | Found free-ion valence shell :  4 s   1.000
  | Found free-ion valence shell :  3 p   6.000
  | Found hydrogenic basis function :  4 f   6.800
  | Found ionic basis function :  4 p , default cutoff radius.
  | Found ionic basis function :  4 d , default cutoff radius.
  | Found ionic basis function :  4 s , default cutoff radius.
  | Found request for '+U' treatment for  3 d shell, U =     5.000000 eV.
  Species Sc                  : Missing cutoff potential type.
  Defaulting to exp(1/x)/(1-x)^2 type cutoff potential.
  Species Sc: No 'logarithmic' tag. Using default grid for free atom:
  | Default logarithmic grid data [bohr] : 0.1000E-03 0.1000E+03 0.1012E+01
  | Will include ionic basis functions of  2.0-fold positive Sc                   ion.
  Species Sc: On-site basis accuracy parameter (for Gram-Schmidt orthonormalisation) not specified.
  Using default value basis_acc =  0.1000000E-03.
  Species Sc                  : Using default innermost maximum threshold i_radial=  2 for radial functions.
  Species Sc                  : Default cutoff onset for free atom density etc. : 0.30000000E+01 AA.
  Species Sc                  : Basic radial grid will be enhanced according to radial_multiplier =   1, to contain    47 grid points.
 
  Reading configuration options for species N                   .
  | Found nuclear charge :   7.0000
  | Found atomic mass :    14.0067000000000      amu
  | Found l_max for Hartree potential  :   4
  | Found cutoff potl. onset [A], width [A], scale factor :    3.00000    1.00000    1.00000
  | Threshold for basis-dependent cutoff potential is   0.100000E-03
  | Found data for basic radial integration grid :    35 points, outermost radius =    5.000 A
  | Found multiplier for basic radial grid :   1
  | Found angular grid specification: user-specified.
  | Specified grid contains     5 separate shells.
  | Check grid settings after all constraints further below.
  | Found free-atom valence shell :  2 s   2.000
  | Found free-atom valence shell :  2 p   3.000
  | Found free-ion valence shell :  2 s   1.000
  | Found free-ion valence shell :  2 p   2.000
  | Found hydrogenic basis function :  2 p   1.800
  | Found hydrogenic basis function :  3 d   6.800
  | Found hydrogenic basis function :  3 s   5.800
  Species N                   : Missing cutoff potential type.
  Defaulting to exp(1/x)/(1-x)^2 type cutoff potential.
  Species N : No 'logarithmic' tag. Using default grid for free atom:
  | Default logarithmic grid data [bohr] : 0.1000E-03 0.1000E+03 0.1012E+01
  Species N : On-site basis accuracy parameter (for Gram-Schmidt orthonormalisation) not specified.
  Using default value basis_acc =  0.1000000E-03.
  Species N                   : Using default innermost maximum threshold i_radial=  2 for radial functions.
  Species N                   : Default cutoff onset for free atom density etc. : 0.30000000E+01 AA.
  Species N                   : Basic radial grid will be enhanced according to radial_multiplier =   1, to contain    35 grid points.
 
  Finished reading input file 'control.in'. Consistency checks are next.
 
  Target number of points in a grid batch is not set. Defaulting to  100
  Method for grid partitioning is not set. Defaulting to parallel hash+maxmin partitioning.
  Batch size limit is not set. Defaulting to    200
  By default, will store active basis functions for each batch.
  If in need of memory, prune_basis_once .false. can be used to disable this option.
  communication_type for Hartree potential was not specified.
  Defaulting to calc_hartree .
  Note that you may want to use 'communication_type shmem' instead,
  but only if you have built a code version with shared memory support.
  Pulay mixer: Number of initial linear mixing iterations not set.
  Defaulting to    0 iterations.
  Work space size for distributed Hartree potential not set.
  Defaulting to   0.200000E+03 MB.
  Mixing parameter for spin density mixing has not been set.
  Using charge_mix_param as default:     0.5000.
  Algorithm-dependent basis array size parameters:
  | n_max_pulay                         :       10
  Calculation of forces was not defined in control.in. No forces will be calculated.
  Geometry relaxation not requested: no relaxation will be performed.
  No accuracy limit for integral partition fn. given. Defaulting to 0.1000E-14.
  No threshold value for u(r) in integrations given. Defaulting to 0.1000E-05.
  No accuracy for occupation numbers given. Defaulting to 0.1000E-07.
  No threshold value for occupation numbers given. Defaulting to 0.0000E+00.
  No accuracy for fermi level given. Defaulting to 0.1000E-19.
  Maximum # of iterations to find E_F not set. Defaulting to  200.
  Preferred method for the eigenvalue solver ('KS_method') not specified in 'control.in'.
  Defaulting to serial version, 'lapack_fast', since more k-points than CPUs available.
  Threshold for basis singularities not set.
  Default threshold for basis singularities: 0.1000E-04
  Partitioning for integrals was not defined. Using the partition function of Stratmann and coworkers.
  Partitioning for Hartree potential was not defined. Using partition_type for integrals.
  Angular momentum expansion for Kerker preconditioner not set explicitly.
  | Using default value of   0
  No explicit requirement for turning off preconditioner.
  | By default, it will be turned off when the charge convergence reaches
  | 100 * sc_accuracy_rho =   0.100000E-01
  No special mixing parameter while Kerker preconditioner is on.
  Using default: charge_mix_param =     0.5000.
  No q(lm)/r^(l+1) cutoff set for long-range Hartree potential.
  | Using default value of  0.100000E-09 .
  | Verify using the multipole_threshold keyword.
  DFT+U requires using density matrix based charge density update.
  Using density matrix based charge density update.
  Using packed matrix style: index .
------------------------------------------------------------


------------------------------------------------------------
          Reading geometry description geometry.in.
------------------------------------------------------------
 * Warning! You are trying to treat an element beyond Ca (Z=20) without
 * accounting for relativity. This may lead to physically incorrect results.
 * If you know what you are doing, you may override this warning using the
 * flag override_relativity in control.in.
 * Else, please use the keyword 'relativistic atomic_zora scalar' (for relaxation) or
 * 'relativistic zora scalar 1e-12' as described in the documentation.
 *
 * Additional information about a change made 04/05/2010 (will be removed 2011):
 * Since there is no harm in using atomic_zora, we now mandate relativity also
 * for the 3d elements. Apologies to all those whom this affects for the first time.
 * Of course, any older nonrelativistic total energies for these elements must never
 * be compared (added or subtracted) directly to atomic_zora results.
  Input structure read successfully. 
  The structure contains    2 atoms,  and a total of     28.000 electrons.
 
  Input geometry:
  | Unit cell: 
  |         0.000000         2.249000         2.249000
  |         2.249000         0.000000         2.249000
  |         2.249000         2.249000         0.000000
  | Atomic structure: 
  |       Atom                x [A]            y [A]            z [A]
  |    1: Species Sc         0.000000         0.000000         0.000000
  |    2: Species N          2.249000         0.000000         0.000000
 
  Initial moments and charges:
  |  Atom   Moment         Charge        Species
  |     1   0.000000E+00   0.000000E+00   Sc
  |     2   0.000000E+00   0.000000E+00   N 
 
  Number of empty states per atom not set in control.in - providing a guess from actual geometry.
  | Total number of empty states used during s.c.f. cycle:        9
  If you use a very high smearing, use empty_states (per atom!) in control.in to increase this value.

  Structure-dependent array size parameters: 
  | Number of distinct atom types in initial rho :        2
  | Maximum number of distinct radial functions  :       17
  | Maximum number of basis functions            :       45
  | Number of Kohn-Sham states (occupied + empty):       23
------------------------------------------------------------
  | Super cell volume                              :   0.227509E+02  A^3
  | Reciprocal lattice vector 1: -1.396884  1.396884  1.396884
  | Reciprocal lattice vector 2:  1.396884 -1.396884  1.396884
  | Reciprocal lattice vector 3:  1.396884  1.396884 -1.396884

------------------------------------------------------------
          Preparing all fixed parts of the calculation.
------------------------------------------------------------
  Determining machine precision:
    2.225073858507201E-308
  Setting up grids for atomic and cluster calculations.

  Creating wave function, potential, and density for free atoms.

  Species: Sc

  List of occupied orbitals and eigenvalues:
    n    l              occ      energy [Ha]    energy [eV]
    1    0           2.0000      -160.120041     -4357.0880
    2    0           2.0000       -17.143661      -466.5027
    3    0           2.0000        -1.928724       -52.4832
    4    0           2.0000        -0.100474        -2.7340
    2    1           6.0000       -14.177086      -385.7781
    3    1           6.0000        -1.174319       -31.9548
    3    2           1.0000        -0.077157        -2.0995


  Species: N

  List of occupied orbitals and eigenvalues:
    n    l              occ      energy [Ha]    energy [eV]
    1    0           2.0000       -14.005670      -381.1137
    2    0           2.0000        -0.672097       -18.2887
    2    1           3.0000        -0.261978        -7.1288

  Spin-polarized or charged system:
  Charge density initialized according to selected moments and charges.

  Creating spin-polarized density from free atoms.

  Species: Sc
  Charge:   0.000000
  Moment:   0.000000

  List of occupied orbitals and eigenvalues:
    n    l      energy [Ha]    energy [eV]    occupation
  Spin-up
    1    0      -160.120041     -4357.0880     1.00000000
    2    0       -17.143661      -466.5027     1.00000000
    3    0        -1.928724       -52.4832     1.00000000
    4    0        -0.100474        -2.7340     1.00000000
    2    1       -14.177086      -385.7781     3.00000000
    3    1        -1.174319       -31.9548     3.00000000
    3    2        -0.077157        -2.0995     0.50000000
  Spin-down
    1    0      -160.120041     -4357.0880     1.00000000
    2    0       -17.143661      -466.5027     1.00000000
    3    0        -1.928724       -52.4832     1.00000000
    4    0        -0.100474        -2.7340     1.00000000
    2    1       -14.177086      -385.7781     3.00000000
    3    1        -1.174319       -31.9548     3.00000000
    3    2        -0.077157        -2.0995     0.50000000


  Species: N
  Charge:   0.000000
  Moment:   0.000000

  List of occupied orbitals and eigenvalues:
    n    l      energy [Ha]    energy [eV]    occupation
  Spin-up
    1    0       -14.005670      -381.1137     1.00000000
    2    0        -0.672097       -18.2887     1.00000000
    2    1        -0.261978        -7.1288     1.50000000
  Spin-down
    1    0       -14.005670      -381.1137     1.00000000
    2    0        -0.672097       -18.2887     1.00000000
    2    1        -0.261978        -7.1288     1.50000000

  Creating fixed part of basis set: Ionic, confined, hydrogenic.
 
  Sc                   ion:

  List of free ionic orbitals and eigenvalues:
    n    l      energy [Ha]    energy [eV]
    1    0      -161.001309     -4381.0685
    2    0       -18.052843      -491.2428
    3    0        -2.778761       -75.6139
    4    0        -0.668098       -18.1799
    2    1       -15.083623      -410.4463
    3    1        -2.011903       -54.7467


  List of ionic basis orbitals and eigenvalues:
    n    l      energy [Ha]    energy [eV]    wfn radius [A]
    4    1        -0.491818       -13.3831       3.000000
    4    2        -0.223537        -6.0827       3.000000
    4    0        -0.663246       -18.0478       3.000000

 
  Sc                   hydrogenic:
 
  List of hydrogenic basis orbitals: 
    n    l      effective z      eigenvalue [eV]  inner max. [A]     outer max. [A]     cutoff onset [A]   
    4    3         6.800000       -39.2767           1.238484           1.238484           3.000000
 
 
  N                    hydrogenic:
 
  List of hydrogenic basis orbitals: 
    n    l      effective z      eigenvalue [eV]  inner max. [A]     outer max. [A]     cutoff onset [A]   
    2    1         1.800000       -10.8065           1.149011           1.149011           3.000000
    3    2         6.800000       -69.9018           0.704619           0.704619           2.512557
    3    0         5.800000       -50.8498           0.067388           1.191934           3.000000
 

  Adding cutoff potential to free-atom effective potential.
  Creating atomic-like basis functions for current effective potential.
  Assembling full basis from fixed parts.
 * Warning - Since '+U' treatment was requested,
 * the basis-dependent cutoff is turned off automatically.
  | Species Sc :   atomic orbital   1 s accepted.
  | Species Sc :   atomic orbital   2 s accepted.
  | Species Sc :   atomic orbital   3 s accepted.
  | Species Sc :   atomic orbital   4 s accepted.
  | Species Sc :    ionic orbital   4 s accepted.
  | Species Sc :   atomic orbital   2 p accepted.
  | Species Sc :   atomic orbital   3 p accepted.
  | Species Sc :    ionic orbital   4 p accepted.
  | Species Sc :   atomic orbital   3 d accepted.
  | Species Sc :    ionic orbital   4 d accepted.
  | Species Sc :    hydro orbital   4 f accepted.
 * Warning - Since '+U' treatment was requested,
 * the basis-dependent cutoff is turned off automatically.
  | Species N :   atomic orbital   1 s accepted.
  | Species N :   atomic orbital   2 s accepted.
  | Species N :    hydro orbital   3 s accepted.
  | Species N :   atomic orbital   2 p accepted.
  | Species N :    hydro orbital   2 p accepted.
  | Species N :    hydro orbital   3 d accepted.
 
  Basis size parameters after reduction:
  | Total number of radial functions:       17
  | Total number of basis functions :       45
 
  Preparing densities etc. for the partition functions (integrals / Hartree potential).

  Preparations completed.
  max(cpu_time)          :      0.174 s.
  Wall clock time (cpu1) :      0.528 s.
------------------------------------------------------------

------------------------------------------------------------
          Begin self-consistency loop: Initialization.

          Date     :  20110102, Time     :  183116.977
------------------------------------------------------------

  Initializing index lists of integration centers etc. from given atomic structure:
  Mapping all atomic coordinates to central unit cell.

  Initializing the k-points
  | Number of k-points                             :       216
  The eigenvectors in the calculations are COMPLEX.
  | K-points in task   0:       108
  | K-points in task   1:       108
  | Number of basis functions in the Hamiltonian integrals :      1933
  | Number of basis functions in a single unit cell        :        45
  | Number of centers in hamiltonian partition_tab :         2
  | Number of centers in hartree potential         :       708
  | Number of centers in hartree multipole         :       296
  | Number of centers in electron density summation:       208
  | Number of centers in basis integrals           :       216
  | Number of centers in integrals                 :        95
  | Number of super-cells :                 130
  | Size of matrix packed + index :       71168
  Partitioning the integration grid into batches with parallel hashing+maxmin method.
  | Number of batches:      130
  | Maximal batch size:     105
  | Minimal batch size:      50
  | Average batch size:      92.554
  | Standard deviation of batch sizes:      10.938

  Integration load balanced across     2 MPI tasks.
  Work distribution over tasks is as follows:
  Task     0 has       6060 integration points.
  Task     1 has       5972 integration points.
  Initializing partition tables, free-atom densities, potentials, etc.
  across the integration grid (initialize_grid_storage).
  | Net number of integration points:    12032
  | of which are non-zero points    :     9604
  | Average free-atom electrostatic potential              :    -19.93395972 eV
  Obtaining max. number of non-zero basis functions in each batch (get_n_compute_maxes).
  | Maximal number of non-zero basis functions:      606 in task     0
  | Maximal number of non-zero basis functions:      608 in task     1
  For each atomic center, finding distance to closest integration grid point.
  Integrating overlap matrix.
  Integrating Hamiltonian matrix: batch-based integration.
 Decreasing sparse matrix size
   Tolerance:  9.999999824516700E-014
   Hamiltonian matrix
  | Array has    46332 nonzero elements out of    71168 elements
  | Sparsity factor is 0.349
   Overlap matrix
  | Array has    40294 nonzero elements out of    71168 elements
  | Sparsity factor is 0.434
  New size of hamiltonian matrix:       46842
  Transforming overlap matrix and checking for singularities.
  Overlap matrix is nonsingular at first k-point:
  | Lowest eigenvalue:  0.103504E-01

  Updating Kohn-Sham eigenvalues, eigenvectors, occupation numbers, and Fermi level.
  Solving generalized eigenproblem
  Determining occupation numbers for Kohn-Sham eigenstates.
  | Chemical potential (Fermi level) in eV                 : -.90776947E+01
  | Error in electron count due to remaining E_F inaccuracy: -.40500936E-12
  | Maximum occupation number of highest empty state:  0.00E+00

  Writing Kohn-Sham eigenvalues.

  Spin-up eigenvalues:
  K-point:       1 at    0.000000    0.000000    0.000000 (in units of recip. lattice)

  State    Occupation    Eigenvalue [Ha]    Eigenvalue [eV]
      1       1.00000        -160.123185        -4357.17355
      2       1.00000         -17.147442         -466.60565
      3       1.00000         -14.180750         -385.87783
      4       1.00000         -14.180750         -385.87783
      5       1.00000         -14.180750         -385.87783
      6       1.00000         -14.062050         -382.64784
      7       1.00000          -1.949710          -53.05431
      8       1.00000          -1.188351          -32.33667
      9       1.00000          -1.188351          -32.33667
     10       1.00000          -1.188351          -32.33667
     11       1.00000          -0.841000          -22.88477
     12       1.00000          -0.350486           -9.53720
     13       1.00000          -0.350486           -9.53720
     14       1.00000          -0.350486           -9.53720
     15       0.00000          -0.154313           -4.19908
     16       0.00000          -0.154313           -4.19908
     17       0.00000          -0.154313           -4.19908
     18       0.00000          -0.107180           -2.91653
     19       0.00000          -0.107180           -2.91653
     20       0.00000          -0.069250           -1.88438
     21       0.00000           0.314842            8.56730
     22       0.00000           0.521004           14.17725
     23       0.00000           0.521004           14.17725

  Spin-down eigenvalues:
  K-point:       1 at    0.000000    0.000000    0.000000 (in units of recip. lattice)

  State    Occupation    Eigenvalue [Ha]    Eigenvalue [eV]
      1       1.00000        -160.123185        -4357.17355
      2       1.00000         -17.147442         -466.60565
      3       1.00000         -14.180750         -385.87783
      4       1.00000         -14.180750         -385.87783
      5       1.00000         -14.180750         -385.87783
      6       1.00000         -14.062050         -382.64784
      7       1.00000          -1.949710          -53.05431
      8       1.00000          -1.188351          -32.33667
      9       1.00000          -1.188351          -32.33667
     10       1.00000          -1.188351          -32.33667
     11       1.00000          -0.841000          -22.88477
     12       1.00000          -0.350486           -9.53720
     13       1.00000          -0.350486           -9.53720
     14       1.00000          -0.350486           -9.53720
     15       0.00000          -0.154313           -4.19908
     16       0.00000          -0.154313           -4.19908
     17       0.00000          -0.154313           -4.19908
     18       0.00000          -0.107180           -2.91653
     19       0.00000          -0.107180           -2.91653
     20       0.00000          -0.069250           -1.88438
     21       0.00000           0.314842            8.56730
     22       0.00000           0.521004           14.17725
     23       0.00000           0.521004           14.17725

  Current spin moment of the entire structure :
  | N = N_up - N_down (sum over all k points):         0.00000
  | S (sum over all k points)                :         0.00000

  Highest occupied state (VBM) at     -9.53720115 eV (relative to internal zero)
  | Occupation number:      1.00000000
  | K-point:       1 at    0.000000    0.000000    0.000000 (in units of recip. lattice)
  | Spin channel:        1

  Lowest unoccupied state (CBM) at    -6.90211816 eV (relative to internal zero)
  | Occupation number:      0.00000000
  | K-point:     112 at    0.500000    0.000000    0.500000 (in units of recip. lattice)
  | Spin channel:        1

  Calculating total energy contributions from superposition of free atom densities.

  Total energy components:
  | Sum of eigenvalues            :        -482.93205225 Ha      -13141.24976114 eV
  | XC energy correction          :         -43.62996485 Ha       -1187.23174936 eV
  | XC potential correction       :          57.67949733 Ha        1569.53897962 eV
  | Free-atom electrostatic energy:        -344.56652684 Ha       -9376.13224764 eV
  | Hartree energy correction     :           0.00000000 Ha           0.00000000 eV
  | Entropy correction            :           0.00000000 Ha           0.00000000 eV
  | ---------------------------
  | Total energy                  :        -813.44904661 Ha      -22135.07477852 eV
  | Total energy, T -> 0          :        -813.44904661 Ha      -22135.07477852 eV
  | Free energy                   :        -813.44904661 Ha      -22135.07477852 eV

  Derived energy quantities:
  | Kinetic energy                :         811.87550261 Ha       22092.25646769 eV
  | Electrostatic energy          :       -1581.69458437 Ha      -43040.09949685 eV
  | Energy correction for multipole
  | error in Hartree potential    :           0.00000000 Ha           0.00000000 eV
  | Sum of eigenvalues per atom                       :       -6570.62488057 eV
  | Total energy (T->0) per atom                      :      -11067.53738926 eV
  | Free energy per atom                              :      -11067.53738926 eV

  End scf initialization - timings             :  max(cpu_time)    wall_clock(cpu1)
  | Time for scf. initialization               :        1.849 s           3.702 s
  | Integration                                :        1.064 s           2.303 s
  | Solution of K.-S. eqns.                    :        0.420 s           0.642 s
  | Grid partitioning                          :        0.044 s           0.084 s
  | Preloading free-atom quantities on grid    :        0.146 s           0.316 s
  | Free-atom superposition energy             :        0.014 s           0.032 s
  | Total energy evaluation                    :        0.000 s           0.001 s
------------------------------------------------------------

------------------------------------------------------------
          Begin self-consistency iteration #    1

  Date     :  20110102, Time     :  183120.679
------------------------------------------------------------
  Evaluating new KS density using the density matrix
  Evaluating density matrix
 DFT+U: occupation matrix (orb #           1 , spin            1 )
   0.5432500549442781E-01   0.1558128298702603E-10   0.1924763916127609E-10  -0.1558110051339052E-10   0.1470787635428459E-16
   0.1558128298702603E-10   0.5432500549446043E-01  -0.9624174588707203E-11  -0.1558253997038836E-10   0.1665882263077065E-10
   0.1924763916127609E-10  -0.9624174588707203E-11   0.1422922388180661       0.9624013753778165E-11   0.8238318651693943E-15
  -0.1558110051339052E-10  -0.1558253997038836E-10   0.9624013753778165E-11   0.5432500549445918E-01   0.1665877390206040E-10
   0.1470787635428459E-16   0.1665882263077065E-10   0.8238318651693943E-15   0.1665877390206040E-10   0.1422922388181087    
  Evaluating density matrix
 DFT+U: occupation matrix (orb #           1 , spin            2 )
   0.5432500549442781E-01   0.1558128298702603E-10   0.1924763916127609E-10  -0.1558110051339052E-10   0.1470787635428459E-16
   0.1558128298702603E-10   0.5432500549446043E-01  -0.9624174588707203E-11  -0.1558253997038836E-10   0.1665882263077065E-10
   0.1924763916127609E-10  -0.9624174588707203E-11   0.1422922388180661       0.9624013753778165E-11   0.8238318651693943E-15
  -0.1558110051339052E-10  -0.1558253997038836E-10   0.9624013753778165E-11   0.5432500549445918E-01   0.1665877390206040E-10
   0.1470787635428459E-16   0.1665882263077065E-10   0.8238318651693943E-15   0.1665877390206040E-10   0.1422922388181087    
  Pulay mixing of updated and previous charge densities.

  Evaluating partitioned Hartree potential by multipole expansion.
  | Analytical far-field extrapolation by fixed multipoles:
  | Hartree multipole sum: apparent total charge =   0.117768E-02
  Summing up the Hartree potential.
  | Estimated reciprocal-space cutoff momentum G_max:         3.15033928 bohr^-1 .
  | Reciprocal lattice points for long-range Hartree potential:      64
  | RMS charge density error from multipole expansion :   0.868708E-02
  | Average real-space part of the electrostatic potential :      0.53705411 eV

  Integrating Hamiltonian matrix: batch-based integration.
 DFT+U: occupation matrix (orb #           1 , spin            1 )
   0.5432500549442781E-01   0.1558128298702603E-10   0.1924763916127609E-10  -0.1558110051339052E-10   0.1470787635428459E-16
   0.1558128298702603E-10   0.5432500549446043E-01  -0.9624174588707203E-11  -0.1558253997038836E-10   0.1665882263077065E-10
   0.1924763916127609E-10  -0.9624174588707203E-11   0.1422922388180661       0.9624013753778165E-11   0.8238318651693943E-15
  -0.1558110051339052E-10  -0.1558253997038836E-10   0.9624013753778165E-11   0.5432500549445918E-01   0.1665877390206040E-10
   0.1470787635428459E-16   0.1665882263077065E-10   0.8238318651693943E-15   0.1665877390206040E-10   0.1422922388181087    
 DFT+U: occupation matrix (orb #           1 , spin            2 )
   0.5432500549442781E-01   0.1558128298702603E-10   0.1924763916127609E-10  -0.1558110051339052E-10   0.1470787635428459E-16
   0.1558128298702603E-10   0.5432500549446043E-01  -0.9624174588707203E-11  -0.1558253997038836E-10   0.1665882263077065E-10
   0.1924763916127609E-10  -0.9624174588707203E-11   0.1422922388180661       0.9624013753778165E-11   0.8238318651693943E-15
  -0.1558110051339052E-10  -0.1558253997038836E-10   0.9624013753778165E-11   0.5432500549445918E-01   0.1665877390206040E-10
   0.1470787635428459E-16   0.1665882263077065E-10   0.8238318651693943E-15   0.1665877390206040E-10   0.1422922388181087    
 DFT+U: (orb #           1 ):
 DFT+U:   average occupation:  8.951189882390445E-002  8.951189882390445E-002
 DFT+U:   Petukhov mixing factor:  2.278757250074434E-002

  Updating Kohn-Sham eigenvalues, eigenvectors, occupation numbers, and Fermi level.
  Solving generalized eigenproblem
  Determining occupation numbers for Kohn-Sham eigenstates.
  | Chemical potential (Fermi level) in eV                 : -.71365084E+01
  | Error in electron count due to remaining E_F inaccuracy: -.23215918E-09
  | Maximum occupation number of highest empty state:  0.00E+00

  Writing Kohn-Sham eigenvalues.

  Spin-up eigenvalues:
  K-point:       1 at    0.000000    0.000000    0.000000 (in units of recip. lattice)

  State    Occupation    Eigenvalue [Ha]    Eigenvalue [eV]
      1       1.00000        -160.221295        -4359.84326
      2       1.00000         -17.241927         -469.17672
      3       1.00000         -14.275857         -388.46582
      4       1.00000         -14.275857         -388.46582
      5       1.00000         -14.275857         -388.46582
      6       1.00000         -13.807707         -375.72682
      7       1.00000          -2.010754          -54.71541
      8       1.00000          -1.246265          -33.91260
      9       1.00000          -1.246265          -33.91260
     10       1.00000          -1.246265          -33.91260
     11       1.00000          -0.758893          -20.65054
     12       0.00000          -0.244664           -6.65764
     13       0.00000          -0.244664           -6.65764
     14       0.00000          -0.244664           -6.65764
     15       0.00000          -0.182360           -4.96226
     16       0.00000          -0.182360           -4.96226
     17       0.00000          -0.182360           -4.96226
     18       0.00000          -0.152933           -4.16152
     19       0.00000          -0.152933           -4.16152
     20       0.00000          -0.034297           -0.93326
     21       0.00000           0.302787            8.23926
     22       0.00000           0.499120           13.58174
     23       0.00000           0.499120           13.58174

  Spin-down eigenvalues:
  K-point:       1 at    0.000000    0.000000    0.000000 (in units of recip. lattice)

  State    Occupation    Eigenvalue [Ha]    Eigenvalue [eV]
      1       1.00000        -160.221295        -4359.84326
      2       1.00000         -17.241927         -469.17672
      3       1.00000         -14.275857         -388.46582
      4       1.00000         -14.275857         -388.46582
      5       1.00000         -14.275857         -388.46582
      6       1.00000         -13.807707         -375.72682
      7       1.00000          -2.010754          -54.71541
      8       1.00000          -1.246265          -33.91260
      9       1.00000          -1.246265          -33.91260
     10       1.00000          -1.246265          -33.91260
     11       1.00000          -0.758893          -20.65054
     12       0.00000          -0.244664           -6.65764
     13       0.00000          -0.244664           -6.65764
     14       0.00000          -0.244664           -6.65764
     15       0.00000          -0.182360           -4.96226
     16       0.00000          -0.182360           -4.96226
     17       0.00000          -0.182360           -4.96226
     18       0.00000          -0.152933           -4.16152
     19       0.00000          -0.152933           -4.16152
     20       0.00000          -0.034297           -0.93326
     21       0.00000           0.302787            8.23926
     22       0.00000           0.499120           13.58174
     23       0.00000           0.499120           13.58174

  Current spin moment of the entire structure :
  | N = N_up - N_down (sum over all k points):         0.00000
  | S (sum over all k points)                :         0.00000

  Highest occupied state (VBM) at     -7.38463710 eV (relative to internal zero)
  | Occupation number:      0.99977516
  | K-point:     127 at    0.500000    0.500000    0.000000 (in units of recip. lattice)
  | Spin channel:        1

  Lowest unoccupied state (CBM) at    -6.89222276 eV (relative to internal zero)
  | Occupation number:      0.00027543
  | K-point:      29 at    0.000000    0.666667    0.666667 (in units of recip. lattice)
  | Spin channel:        1


  Total energy components:
  | Sum of eigenvalues            :        -483.26208793 Ha      -13150.23048886 eV
  | XC energy correction          :         -43.69956995 Ha       -1189.12580051 eV
  | XC potential correction       :          57.77127086 Ha        1572.03626439 eV
  | Free-atom electrostatic energy:        -344.56652684 Ha       -9376.13224764 eV
  | Hartree energy correction     :           0.37018743 Ha          10.07331253 eV
  | Entropy correction            :          -0.00000015 Ha          -0.00000412 eV
  | ---------------------------
  | Total energy                  :        -813.38672643 Ha      -22133.37896010 eV
  | Total energy, T -> 0          :        -813.38672658 Ha      -22133.37896422 eV
  | Free energy                   :        -813.38672673 Ha      -22133.37896834 eV

  Derived energy quantities:
  | Kinetic energy                :         811.99795650 Ha       22095.58860757 eV
  | Electrostatic energy          :       -1581.68511298 Ha      -43039.84176716 eV
  | Energy correction for multipole
  | error in Hartree potential    :           0.00391224 Ha           0.10645739 eV
  | Sum of eigenvalues per atom                       :       -6575.11524443 eV
  | Total energy (T->0) per atom                      :      -11066.68948211 eV
  | Free energy per atom                              :      -11066.68948417 eV

  Self-consistency convergence accuracy:
  | Change of charge/spin density : 0.3223E+00 0.0000E+00
  | Change of sum of eigenvalues  : -.8981E+01 eV
  | Change of total energy        : 0.1696E+01 eV

  End self-consistency iteration #     1       :  max(cpu_time)    wall_clock(cpu1)
  | Time for this iteration                    :        1.928 s           4.297 s
  | Charge density update                      :        0.893 s           1.699 s
  | Density mixing & preconditioning           :        0.032 s           0.151 s
  | Hartree multipole update                   :        0.005 s           0.003 s
  | Hartree multipole summation                :        0.143 s           0.429 s
  | Integration                                :        0.574 s           1.628 s
  | Solution of K.-S. eqns.                    :        0.268 s           0.382 s
  | Total energy evaluation                    :        0.000 s           0.000 s
------------------------------------------------------------

------------------------------------------------------------
          Begin self-consistency iteration #    2

  Date     :  20110102, Time     :  183124.976
------------------------------------------------------------
  Evaluating new KS density using the density matrix
  Evaluating density matrix
 DFT+U: occupation matrix (orb #           1 , spin            1 )
   0.1151682888844774       0.3465333610780181E-10   0.5687638616377361E-10  -0.3451123981495217E-10  -0.1036410047683171E-12
   0.3465333610780181E-10   0.1151921111907767      -0.2869352439382213E-10  -0.3455126198025361E-10   0.4917406927750036E-10
   0.5687638616377361E-10  -0.2869352439382213E-10   0.2766745584406178       0.2912951025797550E-10  -0.1581951839499896E-09
  -0.3451123981495217E-10  -0.3455126198025361E-10   0.2912951025797550E-10   0.1151921066494587       0.4915870531824157E-10
  -0.1036410047683171E-12   0.4917406927750036E-10  -0.1581951839499896E-09   0.4915870531824157E-10   0.2765126367051711    
  Evaluating density matrix
 DFT+U: occupation matrix (orb #           1 , spin            2 )
   0.1151682888844774       0.3465333610780181E-10   0.5687638616377361E-10  -0.3451123981495217E-10  -0.1036410047683171E-12
   0.3465333610780181E-10   0.1151921111907767      -0.2869352439382213E-10  -0.3455126198025361E-10   0.4917406927750036E-10
   0.5687638616377361E-10  -0.2869352439382213E-10   0.2766745584406178       0.2912951025797550E-10  -0.1581951839499896E-09
  -0.3451123981495217E-10  -0.3455126198025361E-10   0.2912951025797550E-10   0.1151921066494587       0.4915870531824157E-10
  -0.1036410047683171E-12   0.4917406927750036E-10  -0.1581951839499896E-09   0.4915870531824157E-10   0.2765126367051711    
  Pulay mixing of updated and previous charge densities.

  Evaluating partitioned Hartree potential by multipole expansion.
  | Analytical far-field extrapolation by fixed multipoles:
  | Hartree multipole sum: apparent total charge =   0.183892E-02
  Summing up the Hartree potential.
  | RMS charge density error from multipole expansion :   0.993434E-02
  | Average real-space part of the electrostatic potential :      0.49280767 eV

  Integrating Hamiltonian matrix: batch-based integration.
 DFT+U: occupation matrix (orb #           1 , spin            1 )
   0.1151682888844774       0.3465333610780181E-10   0.5687638616377361E-10  -0.3451123981495217E-10  -0.1036410047683171E-12
   0.3465333610780181E-10   0.1151921111907767      -0.2869352439382213E-10  -0.3455126198025361E-10   0.4917406927750036E-10
   0.5687638616377361E-10  -0.2869352439382213E-10   0.2766745584406178       0.2912951025797550E-10  -0.1581951839499896E-09
  -0.3451123981495217E-10  -0.3455126198025361E-10   0.2912951025797550E-10   0.1151921066494587       0.4915870531824157E-10
  -0.1036410047683171E-12   0.4917406927750036E-10  -0.1581951839499896E-09   0.4915870531824157E-10   0.2765126367051711    
 DFT+U: occupation matrix (orb #           1 , spin            2 )
   0.1151682888844774       0.3465333610780181E-10   0.5687638616377361E-10  -0.3451123981495217E-10  -0.1036410047683171E-12
   0.3465333610780181E-10   0.1151921111907767      -0.2869352439382213E-10  -0.3455126198025361E-10   0.4917406927750036E-10
   0.5687638616377361E-10  -0.2869352439382213E-10   0.2766745584406178       0.2912951025797550E-10  -0.1581951839499896E-09
  -0.3451123981495217E-10  -0.3455126198025361E-10   0.2912951025797550E-10   0.1151921066494587       0.4915870531824157E-10
  -0.1036410047683171E-12   0.4917406927750036E-10  -0.1581951839499896E-09   0.4915870531824157E-10   0.2765126367051711    
 DFT+U: (orb #           1 ):
 DFT+U:   average occupation:  0.179747940374100       0.179747940374100     
 DFT+U:   Petukhov mixing factor:  4.240899465980629E-002

  Updating Kohn-Sham eigenvalues, eigenvectors, occupation numbers, and Fermi level.
  Solving generalized eigenproblem
  Determining occupation numbers for Kohn-Sham eigenstates.
  | Chemical potential (Fermi level) in eV                 : -.71557811E+01
  | Error in electron count due to remaining E_F inaccuracy: 0.37801833E-08
  | Maximum occupation number of highest empty state:  0.00E+00

  Current spin moment of the entire structure :
  | N = N_up - N_down (sum over all k points):         0.00000
  | S (sum over all k points)                :         0.00000

  Highest occupied state (VBM) at     -7.29813142 eV (relative to internal zero)
  | Occupation number:      0.97794994

  Lowest unoccupied state (CBM) at    -7.01346030 eV (relative to internal zero)
  | Occupation number:      0.02207207


  Total energy components:
  | Sum of eigenvalues            :        -483.06971996 Ha      -13144.99589022 eV
  | XC energy correction          :         -43.68526785 Ha       -1188.73662042 eV
  | XC potential correction       :          57.75236472 Ha        1571.52180230 eV
  | Free-atom electrostatic energy:        -344.56652684 Ha       -9376.13224764 eV
  | Hartree energy correction     :           0.18563318 Ha           5.05133585 eV
  | Entropy correction            :          -0.00000380 Ha          -0.00010328 eV
  | ---------------------------
  | Total energy                  :        -813.38351675 Ha      -22133.29162013 eV
  | Total energy, T -> 0          :        -813.38352054 Ha      -22133.29172341 eV
  | Free energy                   :        -813.38352434 Ha      -22133.29182668 eV

  Derived energy quantities:
  | Kinetic energy                :         811.90660212 Ha       22093.10272830 eV
  | Electrostatic energy          :       -1581.60485101 Ha      -43037.65772802 eV
  | Energy correction for multipole
  | error in Hartree potential    :           0.00430732 Ha           0.11720805 eV
  | Sum of eigenvalues per atom                       :       -6572.49794511 eV
  | Total energy (T->0) per atom                      :      -11066.64586170 eV
  | Free energy per atom                              :      -11066.64591334 eV

  Self-consistency convergence accuracy:
  | Change of charge/spin density : 0.1631E+00 0.0000E+00
  | Change of sum of eigenvalues  : 0.5235E+01 eV
  | Change of total energy        : 0.8734E-01 eV

  End self-consistency iteration #     2       :  max(cpu_time)    wall_clock(cpu1)
  | Time for this iteration                    :        2.219 s           4.574 s
  | Charge density update                      :        1.005 s           1.780 s
  | Density mixing & preconditioning           :        0.060 s           0.159 s
  | Hartree multipole update                   :        0.002 s           0.003 s
  | Hartree multipole summation                :        0.207 s           0.470 s
  | Integration                                :        0.666 s           1.773 s
  | Solution of K.-S. eqns.                    :        0.271 s           0.388 s
  | Total energy evaluation                    :        0.000 s           0.001 s
------------------------------------------------------------

------------------------------------------------------------
          Begin self-consistency iteration #    3

  Date     :  20110102, Time     :  183129.550
------------------------------------------------------------
  Evaluating new KS density using the density matrix
  Evaluating density matrix
 DFT+U: occupation matrix (orb #           1 , spin            1 )
   0.7361674183003150E-01   0.2309322866411566E-10   0.5464665287511559E-10  -0.2280314869489734E-10  -0.1449369652136012E-12
   0.2309322866411566E-10   0.7369197483565100E-01  -0.2772774677842118E-10  -0.2283127951934001E-10   0.4724132400304665E-10
   0.5464665287511559E-10  -0.2772774677842118E-10   0.2678882653414248       0.2851778299732617E-10  -0.8448011473387336E-09
  -0.2280314869489734E-10  -0.2283127951934001E-10   0.2851778299732617E-10   0.7369196929046763E-01   0.4764011839287016E-10
  -0.1449369652136012E-12   0.4724132400304665E-10  -0.8448011473387336E-09   0.4764011839287016E-10   0.2675025592097536    
  Evaluating density matrix
 DFT+U: occupation matrix (orb #           1 , spin            2 )
   0.7361674183003150E-01   0.2309322866411566E-10   0.5464665287511559E-10  -0.2280314869489734E-10  -0.1449369652136012E-12
   0.2309322866411566E-10   0.7369197483565100E-01  -0.2772774677842118E-10  -0.2283127951934001E-10   0.4724132400304665E-10
   0.5464665287511559E-10  -0.2772774677842118E-10   0.2678882653414248       0.2851778299732617E-10  -0.8448011473387336E-09
  -0.2280314869489734E-10  -0.2283127951934001E-10   0.2851778299732617E-10   0.7369196929046763E-01   0.4764011839287016E-10
  -0.1449369652136012E-12   0.4724132400304665E-10  -0.8448011473387336E-09   0.4764011839287016E-10   0.2675025592097536    
  Pulay mixing of updated and previous charge densities.

  Evaluating partitioned Hartree potential by multipole expansion.
  | Analytical far-field extrapolation by fixed multipoles:
  | Hartree multipole sum: apparent total charge =   0.347169E-02
  Summing up the Hartree potential.
  | RMS charge density error from multipole expansion :   0.158187E-01
  | Average real-space part of the electrostatic potential :      0.62586516 eV

  Integrating Hamiltonian matrix: batch-based integration.
 DFT+U: occupation matrix (orb #           1 , spin            1 )
   0.7361674183003150E-01   0.2309322866411566E-10   0.5464665287511559E-10  -0.2280314869489734E-10  -0.1449369652136012E-12
   0.2309322866411566E-10   0.7369197483565100E-01  -0.2772774677842118E-10  -0.2283127951934001E-10   0.4724132400304665E-10
   0.5464665287511559E-10  -0.2772774677842118E-10   0.2678882653414248       0.2851778299732617E-10  -0.8448011473387336E-09
  -0.2280314869489734E-10  -0.2283127951934001E-10   0.2851778299732617E-10   0.7369196929046763E-01   0.4764011839287016E-10
  -0.1449369652136012E-12   0.4724132400304665E-10  -0.8448011473387336E-09   0.4764011839287016E-10   0.2675025592097536    
 DFT+U: occupation matrix (orb #           1 , spin            2 )
   0.7361674183003150E-01   0.2309322866411566E-10   0.5464665287511559E-10  -0.2280314869489734E-10  -0.1449369652136012E-12
   0.2309322866411566E-10   0.7369197483565100E-01  -0.2772774677842118E-10  -0.2283127951934001E-10   0.4724132400304665E-10
   0.5464665287511559E-10  -0.2772774677842118E-10   0.2678882653414248       0.2851778299732617E-10  -0.8448011473387336E-09
  -0.2280314869489734E-10  -0.2283127951934001E-10   0.2851778299732617E-10   0.7369196929046763E-01   0.4764011839287016E-10
  -0.1449369652136012E-12   0.4724132400304665E-10  -0.8448011473387336E-09   0.4764011839287016E-10   0.2675025592097536    
 DFT+U: (orb #           1 ):
 DFT+U:   average occupation:  0.151278302101466       0.151278302101466     
 DFT+U:   Petukhov mixing factor:  7.037220752425130E-002

  Updating Kohn-Sham eigenvalues, eigenvectors, occupation numbers, and Fermi level.
  Solving generalized eigenproblem
  Determining occupation numbers for Kohn-Sham eigenstates.
  | Chemical potential (Fermi level) in eV                 : -.69918946E+01
  | Error in electron count due to remaining E_F inaccuracy: 0.60474505E-08
  | Maximum occupation number of highest empty state:  0.00E+00

  Current spin moment of the entire structure :
  | N = N_up - N_down (sum over all k points):         0.00000
  | S (sum over all k points)                :         0.00000

  Highest occupied state (VBM) at     -7.03873189 eV (relative to internal zero)
  | Occupation number:      0.74613610

  Lowest unoccupied state (CBM) at    -6.94512510 eV (relative to internal zero)
  | Occupation number:      0.25417150


  Total energy components:
  | Sum of eigenvalues            :        -483.10770064 Ha      -13146.02939716 eV
  | XC energy correction          :         -43.68672715 Ha       -1188.77633013 eV
  | XC potential correction       :          57.75417201 Ha        1571.57098102 eV
  | Free-atom electrostatic energy:        -344.56652684 Ha       -9376.13224764 eV
  | Hartree energy correction     :           0.22426128 Ha           6.10245981 eV
  | Entropy correction            :          -0.00002312 Ha          -0.00062919 eV
  | ---------------------------
  | Total energy                  :        -813.38252135 Ha      -22133.26453409 eV
  | Total energy, T -> 0          :        -813.38254447 Ha      -22133.26516328 eV
  | Free energy                   :        -813.38256760 Ha      -22133.26579247 eV

  Derived energy quantities:
  | Kinetic energy                :         811.69917604 Ha       22087.45837751 eV
  | Electrostatic energy          :       -1581.39497024 Ha      -43031.94658148 eV
  | Energy correction for multipole
  | error in Hartree potential    :           0.00656046 Ha           0.17851926 eV
  | Sum of eigenvalues per atom                       :       -6573.01469858 eV
  | Total energy (T->0) per atom                      :      -11066.63258164 eV
  | Free energy per atom                              :      -11066.63289624 eV

  Self-consistency convergence accuracy:
  | Change of charge/spin density : 0.5198E-01 0.0000E+00
  | Change of sum of eigenvalues  : -.1034E+01 eV
  | Change of total energy        : 0.2709E-01 eV

  End self-consistency iteration #     3       :  max(cpu_time)    wall_clock(cpu1)
  | Time for this iteration                    :        1.843 s           4.277 s
  | Charge density update                      :        0.830 s           1.681 s
  | Density mixing & preconditioning           :        0.055 s           0.139 s
  | Hartree multipole update                   :        0.003 s           0.002 s
  | Hartree multipole summation                :        0.124 s           0.440 s
  | Integration                                :        0.591 s           1.648 s
  | Solution of K.-S. eqns.                    :        0.233 s           0.366 s
  | Total energy evaluation                    :        0.001 s           0.000 s
------------------------------------------------------------

------------------------------------------------------------
          Begin self-consistency iteration #    4

  Date     :  20110102, Time     :  183133.827
------------------------------------------------------------
  Evaluating new KS density using the density matrix
  Evaluating density matrix
 DFT+U: occupation matrix (orb #           1 , spin            1 )
   0.7156802802181658E-01   0.1871033319767716E-10   0.5713095576715543E-10  -0.1838043887754125E-10  -0.1249760135183699E-12
   0.1871033319767716E-10   0.7168841690168541E-01  -0.2887889410240719E-10  -0.1843179806830201E-10   0.4946505030867252E-10
   0.5713095576715543E-10  -0.2887889410240719E-10   0.2875699698584729       0.2985702145094411E-10  -0.1938756506486804E-08
  -0.1838043887754125E-10  -0.1843179806830201E-10   0.2985702145094411E-10   0.7168841144919509E-01   0.5000446296925708E-10
  -0.1249760135183699E-12   0.4946505030867252E-10  -0.1938756506486804E-08   0.5000446296925708E-10   0.2870427877250891    
  Evaluating density matrix
 DFT+U: occupation matrix (orb #           1 , spin            2 )
   0.7156802802181658E-01   0.1871033319767716E-10   0.5713095576715543E-10  -0.1838043887754125E-10  -0.1249760135183699E-12
   0.1871033319767716E-10   0.7168841690168541E-01  -0.2887889410240719E-10  -0.1843179806830201E-10   0.4946505030867252E-10
   0.5713095576715543E-10  -0.2887889410240719E-10   0.2875699698584729       0.2985702145094411E-10  -0.1938756506486804E-08
  -0.1838043887754125E-10  -0.1843179806830201E-10   0.2985702145094411E-10   0.7168841144919509E-01   0.5000446296925708E-10
  -0.1249760135183699E-12   0.4946505030867252E-10  -0.1938756506486804E-08   0.5000446296925708E-10   0.2870427877250891    
  Pulay mixing of updated and previous charge densities.

  Evaluating partitioned Hartree potential by multipole expansion.
  | Analytical far-field extrapolation by fixed multipoles:
  | Hartree multipole sum: apparent total charge =   0.362931E-02
  Summing up the Hartree potential.
  | RMS charge density error from multipole expansion :   0.150742E-01
  | Average real-space part of the electrostatic potential :      0.59610941 eV

  Integrating Hamiltonian matrix: batch-based integration.
 DFT+U: occupation matrix (orb #           1 , spin            1 )
   0.7156802802181658E-01   0.1871033319767716E-10   0.5713095576715543E-10  -0.1838043887754125E-10  -0.1249760135183699E-12
   0.1871033319767716E-10   0.7168841690168541E-01  -0.2887889410240719E-10  -0.1843179806830201E-10   0.4946505030867252E-10
   0.5713095576715543E-10  -0.2887889410240719E-10   0.2875699698584729       0.2985702145094411E-10  -0.1938756506486804E-08
  -0.1838043887754125E-10  -0.1843179806830201E-10   0.2985702145094411E-10   0.7168841144919509E-01   0.5000446296925708E-10
  -0.1249760135183699E-12   0.4946505030867252E-10  -0.1938756506486804E-08   0.5000446296925708E-10   0.2870427877250891    
 DFT+U: occupation matrix (orb #           1 , spin            2 )
   0.7156802802181658E-01   0.1871033319767716E-10   0.5713095576715543E-10  -0.1838043887754125E-10  -0.1249760135183699E-12
   0.1871033319767716E-10   0.7168841690168541E-01  -0.2887889410240719E-10  -0.1843179806830201E-10   0.4946505030867252E-10
   0.5713095576715543E-10  -0.2887889410240719E-10   0.2875699698584729       0.2985702145094411E-10  -0.1938756506486804E-08
  -0.1838043887754125E-10  -0.1843179806830201E-10   0.2985702145094411E-10   0.7168841144919509E-01   0.5000446296925708E-10
  -0.1249760135183699E-12   0.4946505030867252E-10  -0.1938756506486804E-08   0.5000446296925708E-10   0.2870427877250891    
 DFT+U: (orb #           1 ):
 DFT+U:   average occupation:  0.157911522791252       0.157911522791252     
 DFT+U:   Petukhov mixing factor:  8.394065899303056E-002

  Updating Kohn-Sham eigenvalues, eigenvectors, occupation numbers, and Fermi level.
  Solving generalized eigenproblem
  Determining occupation numbers for Kohn-Sham eigenstates.
  | Chemical potential (Fermi level) in eV                 : -.70142303E+01
  | Error in electron count due to remaining E_F inaccuracy: 0.57021055E-11
  | Maximum occupation number of highest empty state:  0.00E+00

  Current spin moment of the entire structure :
  | N = N_up - N_down (sum over all k points):         0.00000
  | S (sum over all k points)                :         0.00000

  Highest occupied state (VBM) at     -7.19069999 eV (relative to internal zero)
  | Occupation number:      0.99371382

  Lowest unoccupied state (CBM) at    -6.83790350 eV (relative to internal zero)
  | Occupation number:      0.00632208


  Total energy components:
  | Sum of eigenvalues            :        -483.06296591 Ha      -13144.81210304 eV
  | XC energy correction          :         -43.68486720 Ha       -1188.72571831 eV
  | XC potential correction       :          57.75173994 Ha        1571.50480105 eV
  | Free-atom electrostatic energy:        -344.56652684 Ha       -9376.13224764 eV
  | Hartree energy correction     :           0.17941488 Ha           4.88212723 eV
  | Entropy correction            :          -0.00000128 Ha          -0.00003479 eV
  | ---------------------------
  | Total energy                  :        -813.38320513 Ha      -22133.28314071 eV
  | Total energy, T -> 0          :        -813.38320641 Ha      -22133.28317551 eV
  | Free energy                   :        -813.38320769 Ha      -22133.28321030 eV

  Derived energy quantities:
  | Kinetic energy                :         811.73181399 Ha       22088.34650126 eV
  | Electrostatic energy          :       -1581.43015192 Ha      -43032.90392366 eV
  | Energy correction for multipole
  | error in Hartree potential    :           0.00626658 Ha           0.17052236 eV
  | Sum of eigenvalues per atom                       :       -6572.40605152 eV
  | Total energy (T->0) per atom                      :      -11066.64158775 eV
  | Free energy per atom                              :      -11066.64160515 eV

  Self-consistency convergence accuracy:
  | Change of charge/spin density : 0.2508E-01 0.0000E+00
  | Change of sum of eigenvalues  : 0.1217E+01 eV
  | Change of total energy        : -.1861E-01 eV

  End self-consistency iteration #     4       :  max(cpu_time)    wall_clock(cpu1)
  | Time for this iteration                    :        2.163 s           4.748 s
  | Charge density update                      :        0.937 s           1.722 s
  | Density mixing & preconditioning           :        0.062 s           0.173 s
  | Hartree multipole update                   :        0.002 s           0.002 s
  | Hartree multipole summation                :        0.221 s           0.475 s
  | Integration                                :        0.611 s           1.928 s
  | Solution of K.-S. eqns.                    :        0.323 s           0.447 s
  | Total energy evaluation                    :        0.000 s           0.001 s
------------------------------------------------------------

------------------------------------------------------------
          Begin self-consistency iteration #    5

  Date     :  20110102, Time     :  183138.575
------------------------------------------------------------
  Evaluating new KS density using the density matrix
  Evaluating density matrix
 DFT+U: occupation matrix (orb #           1 , spin            1 )
   0.6018822772043149E-01   0.1382117286629563E-10   0.5313896152970877E-10  -0.1357854174290796E-10  -0.9291428738344813E-13
   0.1382117286629563E-10   0.6034083976465135E-01  -0.2675738281398021E-10  -0.1360169921765829E-10   0.4608794558127405E-10
   0.5313896152970877E-10  -0.2675738281398021E-10   0.2851724276438823       0.2764717702458370E-10  -0.2434364497213914E-08
  -0.1357854174290796E-10  -0.1360169921765829E-10   0.2764717702458370E-10   0.6034083520429450E-01   0.4683421062013717E-10
  -0.9291428738344813E-13   0.4608794558127405E-10  -0.2434364497213914E-08   0.4683421062013717E-10   0.2845461819620274    
  Evaluating density matrix
 DFT+U: occupation matrix (orb #           1 , spin            2 )
   0.6018822772043149E-01   0.1382117286629563E-10   0.5313896152970877E-10  -0.1357854174290796E-10  -0.9291428738344813E-13
   0.1382117286629563E-10   0.6034083976465135E-01  -0.2675738281398021E-10  -0.1360169921765829E-10   0.4608794558127405E-10
   0.5313896152970877E-10  -0.2675738281398021E-10   0.2851724276438823       0.2764717702458370E-10  -0.2434364497213914E-08
  -0.1357854174290796E-10  -0.1360169921765829E-10   0.2764717702458370E-10   0.6034083520429450E-01   0.4683421062013717E-10
  -0.9291428738344813E-13   0.4608794558127405E-10  -0.2434364497213914E-08   0.4683421062013717E-10   0.2845461819620274    
  Pulay mixing of updated and previous charge densities.

  Evaluating partitioned Hartree potential by multipole expansion.
  | Analytical far-field extrapolation by fixed multipoles:
  | Hartree multipole sum: apparent total charge =   0.404164E-02
  Summing up the Hartree potential.
  | RMS charge density error from multipole expansion :   0.154121E-01
  | Average real-space part of the electrostatic potential :      0.60579051 eV

  Integrating Hamiltonian matrix: batch-based integration.
 DFT+U: occupation matrix (orb #           1 , spin            1 )
   0.6018822772043149E-01   0.1382117286629563E-10   0.5313896152970877E-10  -0.1357854174290796E-10  -0.9291428738344813E-13
   0.1382117286629563E-10   0.6034083976465135E-01  -0.2675738281398021E-10  -0.1360169921765829E-10   0.4608794558127405E-10
   0.5313896152970877E-10  -0.2675738281398021E-10   0.2851724276438823       0.2764717702458370E-10  -0.2434364497213914E-08
  -0.1357854174290796E-10  -0.1360169921765829E-10   0.2764717702458370E-10   0.6034083520429450E-01   0.4683421062013717E-10
  -0.9291428738344813E-13   0.4608794558127405E-10  -0.2434364497213914E-08   0.4683421062013717E-10   0.2845461819620274    
 DFT+U: occupation matrix (orb #           1 , spin            2 )
   0.6018822772043149E-01   0.1382117286629563E-10   0.5313896152970877E-10  -0.1357854174290796E-10  -0.9291428738344813E-13
   0.1382117286629563E-10   0.6034083976465135E-01  -0.2675738281398021E-10  -0.1360169921765829E-10   0.4608794558127405E-10
   0.5313896152970877E-10  -0.2675738281398021E-10   0.2851724276438823       0.2764717702458370E-10  -0.2434364497213914E-08
  -0.1357854174290796E-10  -0.1360169921765829E-10   0.2764717702458370E-10   0.6034083520429450E-01   0.4683421062013717E-10
  -0.9291428738344813E-13   0.4608794558127405E-10  -0.2434364497213914E-08   0.4683421062013717E-10   0.2845461819620274    
 DFT+U: (orb #           1 ):
 DFT+U:   average occupation:  0.150117702459057       0.150117702459057     
 DFT+U:   Petukhov mixing factor:  9.486870726800196E-002

  Updating Kohn-Sham eigenvalues, eigenvectors, occupation numbers, and Fermi level.
  Solving generalized eigenproblem
  Determining occupation numbers for Kohn-Sham eigenstates.
  | Chemical potential (Fermi level) in eV                 : -.69795412E+01
  | Error in electron count due to remaining E_F inaccuracy: 0.94004804E-11
  | Maximum occupation number of highest empty state:  0.00E+00

  Current spin moment of the entire structure :
  | N = N_up - N_down (sum over all k points):         0.00000
  | S (sum over all k points)                :         0.00000

  Highest occupied state (VBM) at     -7.15560551 eV (relative to internal zero)
  | Occupation number:      0.99361152

  Lowest unoccupied state (CBM) at    -6.80366029 eV (relative to internal zero)
  | Occupation number:      0.00643528


  Total energy components:
  | Sum of eigenvalues            :        -483.05725122 Ha      -13144.65659852 eV
  | XC energy correction          :         -43.68664096 Ha       -1188.77398468 eV
  | XC potential correction       :          57.75408346 Ha        1571.56857157 eV
  | Free-atom electrostatic energy:        -344.56652684 Ha       -9376.13224764 eV
  | Hartree energy correction     :           0.17371243 Ha           4.72695562 eV
  | Entropy correction            :          -0.00000130 Ha          -0.00003530 eV
  | ---------------------------
  | Total energy                  :        -813.38262313 Ha      -22133.26730365 eV
  | Total energy, T -> 0          :        -813.38262443 Ha      -22133.26733895 eV
  | Free energy                   :        -813.38262573 Ha      -22133.26737425 eV

  Derived energy quantities:
  | Kinetic energy                :         811.74211989 Ha       22088.62693904 eV
  | Electrostatic energy          :       -1581.43810206 Ha      -43033.12025801 eV
  | Energy correction for multipole
  | error in Hartree potential    :           0.00639994 Ha           0.17415122 eV
  | Sum of eigenvalues per atom                       :       -6572.32829926 eV
  | Total energy (T->0) per atom                      :      -11066.63366947 eV
  | Free energy per atom                              :      -11066.63368712 eV

  Self-consistency convergence accuracy:
  | Change of charge/spin density : 0.3968E-02 0.0000E+00
  | Change of sum of eigenvalues  : 0.1555E+00 eV
  | Change of total energy        : 0.1584E-01 eV

  End self-consistency iteration #     5       :  max(cpu_time)    wall_clock(cpu1)
  | Time for this iteration                    :        2.337 s           4.896 s
  | Charge density update                      :        0.990 s           1.896 s
  | Density mixing & preconditioning           :        0.070 s           0.188 s
  | Hartree multipole update                   :        0.001 s           0.002 s
  | Hartree multipole summation                :        0.202 s           0.540 s
  | Integration                                :        0.714 s           1.828 s
  | Solution of K.-S. eqns.                    :        0.353 s           0.441 s
  | Total energy evaluation                    :        0.000 s           0.000 s
------------------------------------------------------------

------------------------------------------------------------
          Begin self-consistency iteration #    6

  Date     :  20110102, Time     :  183143.471
------------------------------------------------------------
  Evaluating new KS density using the density matrix
  Evaluating density matrix
 DFT+U: occupation matrix (orb #           1 , spin            1 )
   0.5729261723246407E-01   0.1197519919418570E-10   0.5137834311802575E-10  -0.1179876990397648E-10  -0.6838410044472441E-13
   0.1197519919418570E-10   0.5746669915110447E-01  -0.2578824861563800E-10  -0.1181281557719813E-10   0.4461785980176040E-10
   0.5137834311802575E-10  -0.2578824861563800E-10   0.2880360997973165       0.2658919925918245E-10  -0.2727941206294083E-08
  -0.1179876990397648E-10  -0.1181281557719813E-10   0.2658919925918245E-10   0.5746669515267080E-01   0.4542620827006599E-10
  -0.6838410044472441E-13   0.4461785980176040E-10  -0.2727941206294083E-08   0.4542620827006599E-10   0.2873577248984078    
  Evaluating density matrix
 DFT+U: occupation matrix (orb #           1 , spin            2 )
   0.5729261723246407E-01   0.1197519919418570E-10   0.5137834311802575E-10  -0.1179876990397648E-10  -0.6838410044472441E-13
   0.1197519919418570E-10   0.5746669915110447E-01  -0.2578824861563800E-10  -0.1181281557719813E-10   0.4461785980176040E-10
   0.5137834311802575E-10  -0.2578824861563800E-10   0.2880360997973165       0.2658919925918245E-10  -0.2727941206294083E-08
  -0.1179876990397648E-10  -0.1181281557719813E-10   0.2658919925918245E-10   0.5746669515267080E-01   0.4542620827006599E-10
  -0.6838410044472441E-13   0.4461785980176040E-10  -0.2727941206294083E-08   0.4542620827006599E-10   0.2873577248984078    
  Pulay mixing of updated and previous charge densities.

  Evaluating partitioned Hartree potential by multipole expansion.
  | Analytical far-field extrapolation by fixed multipoles:
  | Hartree multipole sum: apparent total charge =   0.397220E-02
  Summing up the Hartree potential.
  | RMS charge density error from multipole expansion :   0.153534E-01
  | Average real-space part of the electrostatic potential :      0.60365743 eV

  Integrating Hamiltonian matrix: batch-based integration.
 DFT+U: occupation matrix (orb #           1 , spin            1 )
   0.5729261723246407E-01   0.1197519919418570E-10   0.5137834311802575E-10  -0.1179876990397648E-10  -0.6838410044472441E-13
   0.1197519919418570E-10   0.5746669915110447E-01  -0.2578824861563800E-10  -0.1181281557719813E-10   0.4461785980176040E-10
   0.5137834311802575E-10  -0.2578824861563800E-10   0.2880360997973165       0.2658919925918245E-10  -0.2727941206294083E-08
  -0.1179876990397648E-10  -0.1181281557719813E-10   0.2658919925918245E-10   0.5746669515267080E-01   0.4542620827006599E-10
  -0.6838410044472441E-13   0.4461785980176040E-10  -0.2727941206294083E-08   0.4542620827006599E-10   0.2873577248984078    
 DFT+U: occupation matrix (orb #           1 , spin            2 )
   0.5729261723246407E-01   0.1197519919418570E-10   0.5137834311802575E-10  -0.1179876990397648E-10  -0.6838410044472441E-13
   0.1197519919418570E-10   0.5746669915110447E-01  -0.2578824861563800E-10  -0.1181281557719813E-10   0.4461785980176040E-10
   0.5137834311802575E-10  -0.2578824861563800E-10   0.2880360997973165       0.2658919925918245E-10  -0.2727941206294083E-08
  -0.1179876990397648E-10  -0.1181281557719813E-10   0.2658919925918245E-10   0.5746669515267080E-01   0.4542620827006599E-10
  -0.6838410044472441E-13   0.4461785980176040E-10  -0.2727941206294083E-08   0.4542620827006599E-10   0.2873577248984078    
 DFT+U: (orb #           1 ):
 DFT+U:   average occupation:  0.149523967246393       0.149523967246393     
 DFT+U:   Petukhov mixing factor:  0.100088363267423     

  Updating Kohn-Sham eigenvalues, eigenvectors, occupation numbers, and Fermi level.
  Solving generalized eigenproblem
  Determining occupation numbers for Kohn-Sham eigenstates.
  | Chemical potential (Fermi level) in eV                 : -.69715740E+01
  | Error in electron count due to remaining E_F inaccuracy: 0.62220096E-09
  | Maximum occupation number of highest empty state:  0.00E+00

  Current spin moment of the entire structure :
  | N = N_up - N_down (sum over all k points):         0.00000
  | S (sum over all k points)                :         0.00000

  Highest occupied state (VBM) at     -7.16043402 eV (relative to internal zero)
  | Occupation number:      0.99621741

  Lowest unoccupied state (CBM) at    -6.78293441 eV (relative to internal zero)
  | Occupation number:      0.00381786


  Total energy components:
  | Sum of eigenvalues            :        -483.05908288 Ha      -13144.70644044 eV
  | XC energy correction          :         -43.68634287 Ha       -1188.76587326 eV
  | XC potential correction       :          57.75369018 Ha        1571.55786987 eV
  | Free-atom electrostatic energy:        -344.56652684 Ha       -9376.13224764 eV
  | Hartree energy correction     :           0.17561352 Ha           4.77868694 eV
  | Entropy correction            :          -0.00000081 Ha          -0.00002213 eV
  | ---------------------------
  | Total energy                  :        -813.38264889 Ha      -22133.26800453 eV
  | Total energy, T -> 0          :        -813.38264970 Ha      -22133.26802666 eV
  | Free energy                   :        -813.38265051 Ha      -22133.26804879 eV

  Derived energy quantities:
  | Kinetic energy                :         811.74149217 Ha       22088.60985812 eV
  | Electrostatic energy          :       -1581.43779819 Ha      -43033.11198939 eV
  | Energy correction for multipole
  | error in Hartree potential    :           0.00637495 Ha           0.17347129 eV
  | Sum of eigenvalues per atom                       :       -6572.35322022 eV
  | Total energy (T->0) per atom                      :      -11066.63401333 eV
  | Free energy per atom                              :      -11066.63402440 eV

  Self-consistency convergence accuracy:
  | Change of charge/spin density : 0.3763E-03 0.0000E+00
  | Change of sum of eigenvalues  : -.4984E-01 eV
  | Change of total energy        : -.7009E-03 eV

  Preliminary charge convergence reached. Turning off preconditioner.

  End self-consistency iteration #     6       :  max(cpu_time)    wall_clock(cpu1)
  | Time for this iteration                    :        2.221 s           4.592 s
  | Charge density update                      :        1.033 s           1.895 s
  | Density mixing                             :        0.047 s           0.149 s
  | Hartree multipole update                   :        0.002 s           0.003 s
  | Hartree multipole summation                :        0.189 s           0.480 s
  | Integration                                :        0.655 s           1.684 s
  | Solution of K.-S. eqns.                    :        0.287 s           0.379 s
  | Total energy evaluation                    :        0.000 s           0.000 s
------------------------------------------------------------

------------------------------------------------------------
          Begin self-consistency iteration #    7

  Date     :  20110102, Time     :  183148.063
------------------------------------------------------------
  Evaluating new KS density using the density matrix
  Evaluating density matrix
 DFT+U: occupation matrix (orb #           1 , spin            1 )
   0.5518139107845648E-01   0.1099808607946451E-10   0.5023680433616940E-10  -0.1086322151139122E-10  -0.5269833629214645E-13
   0.1099808607946451E-10   0.5537017018122289E-01  -0.2516361374624197E-10  -0.1087398295678174E-10   0.4365279196210010E-10
   0.5023680433616940E-10  -0.2516361374624197E-10   0.2890018695096792       0.2588908347754432E-10  -0.2885037905528360E-08
  -0.1086322151139122E-10  -0.1087398295678174E-10   0.2588908347754432E-10   0.5537016629063064E-01   0.4448777352360999E-10
  -0.5269833629214645E-13   0.4365279196210010E-10  -0.2885037905528360E-08   0.4448777352360999E-10   0.2882916393407799    
  Evaluating density matrix
 DFT+U: occupation matrix (orb #           1 , spin            2 )
   0.5518139107845648E-01   0.1099808607946451E-10   0.5023680433616940E-10  -0.1086322151139122E-10  -0.5269833629214645E-13
   0.1099808607946451E-10   0.5537017018122289E-01  -0.2516361374624197E-10  -0.1087398295678174E-10   0.4365279196210010E-10
   0.5023680433616940E-10  -0.2516361374624197E-10   0.2890018695096792       0.2588908347754432E-10  -0.2885037905528360E-08
  -0.1086322151139122E-10  -0.1087398295678174E-10   0.2588908347754432E-10   0.5537016629063064E-01   0.4448777352360999E-10
  -0.5269833629214645E-13   0.4365279196210010E-10  -0.2885037905528360E-08   0.4448777352360999E-10   0.2882916393407799    
  Pulay mixing of updated and previous charge densities.

  Evaluating partitioned Hartree potential by multipole expansion.
  | Analytical far-field extrapolation by fixed multipoles:
  | Hartree multipole sum: apparent total charge =   0.403786E-02
  Summing up the Hartree potential.
  | RMS charge density error from multipole expansion :   0.153762E-01
  | Average real-space part of the electrostatic potential :      0.60374825 eV

  Integrating Hamiltonian matrix: batch-based integration.
 DFT+U: occupation matrix (orb #           1 , spin            1 )
   0.5518139107845648E-01   0.1099808607946451E-10   0.5023680433616940E-10  -0.1086322151139122E-10  -0.5269833629214645E-13
   0.1099808607946451E-10   0.5537017018122289E-01  -0.2516361374624197E-10  -0.1087398295678174E-10   0.4365279196210010E-10
   0.5023680433616940E-10  -0.2516361374624197E-10   0.2890018695096792       0.2588908347754432E-10  -0.2885037905528360E-08
  -0.1086322151139122E-10  -0.1087398295678174E-10   0.2588908347754432E-10   0.5537016629063064E-01   0.4448777352360999E-10
  -0.5269833629214645E-13   0.4365279196210010E-10  -0.2885037905528360E-08   0.4448777352360999E-10   0.2882916393407799    
 DFT+U: occupation matrix (orb #           1 , spin            2 )
   0.5518139107845648E-01   0.1099808607946451E-10   0.5023680433616940E-10  -0.1086322151139122E-10  -0.5269833629214645E-13
   0.1099808607946451E-10   0.5537017018122289E-01  -0.2516361374624197E-10  -0.1087398295678174E-10   0.4365279196210010E-10
   0.5023680433616940E-10  -0.2516361374624197E-10   0.2890018695096792       0.2588908347754432E-10  -0.2885037905528360E-08
  -0.1086322151139122E-10  -0.1087398295678174E-10   0.2588908347754432E-10   0.5537016629063064E-01   0.4448777352360999E-10
  -0.5269833629214645E-13   0.4365279196210010E-10  -0.2885037905528360E-08   0.4448777352360999E-10   0.2882916393407799    
 DFT+U: (orb #           1 ):
 DFT+U:   average occupation:  0.148643047280154       0.148643047280154     
 DFT+U:   Petukhov mixing factor:  0.103260294447097     

  Updating Kohn-Sham eigenvalues, eigenvectors, occupation numbers, and Fermi level.
  Solving generalized eigenproblem
  Determining occupation numbers for Kohn-Sham eigenstates.
  | Chemical potential (Fermi level) in eV                 : -.69645691E+01
  | Error in electron count due to remaining E_F inaccuracy: -.47606363E-11
  | Maximum occupation number of highest empty state:  0.00E+00

  Current spin moment of the entire structure :
  | N = N_up - N_down (sum over all k points):         0.00000
  | S (sum over all k points)                :         0.00000

  Highest occupied state (VBM) at     -7.15725480 eV (relative to internal zero)
  | Occupation number:      0.99678480

  Lowest unoccupied state (CBM) at    -6.77212662 eV (relative to internal zero)
  | Occupation number:      0.00324885


  Total energy components:
  | Sum of eigenvalues            :        -483.06028497 Ha      -13144.73915098 eV
  | XC energy correction          :         -43.68632535 Ha       -1188.76539644 eV
  | XC potential correction       :          57.75366710 Ha        1571.55724178 eV
  | Free-atom electrostatic energy:        -344.56652684 Ha       -9376.13224764 eV
  | Hartree energy correction     :           0.17687365 Ha           4.81297702 eV
  | Entropy correction            :          -0.00000070 Ha          -0.00001913 eV
  | ---------------------------
  | Total energy                  :        -813.38259640 Ha      -22133.26657627 eV
  | Total energy, T -> 0          :        -813.38259710 Ha      -22133.26659539 eV
  | Free energy                   :        -813.38259781 Ha      -22133.26661452 eV

  Derived energy quantities:
  | Kinetic energy                :         811.74109265 Ha       22088.59898643 eV
  | Electrostatic energy          :       -1581.43736370 Ha      -43033.10016625 eV
  | Energy correction for multipole
  | error in Hartree potential    :           0.00638214 Ha           0.17366693 eV
  | Sum of eigenvalues per atom                       :       -6572.36957549 eV
  | Total energy (T->0) per atom                      :      -11066.63329770 eV
  | Free energy per atom                              :      -11066.63330726 eV

  Self-consistency convergence accuracy:
  | Change of charge/spin density : 0.1025E-02 0.0000E+00
  | Change of sum of eigenvalues  : -.3271E-01 eV
  | Change of total energy        : 0.1428E-02 eV

  End self-consistency iteration #     7       :  max(cpu_time)    wall_clock(cpu1)
[...]


  Treating all   20 k-points in band plot segment #   4:

  Overlap matrix is nonsingular at first k-point:
  | Lowest eigenvalue:  0.104955E-02
  Transforming overlap matrix and checking for singularities.
  Transforming overlap matrix and checking for singularities.
  Overlap matrix is nonsingular at first k-point:
  | Lowest eigenvalue:  0.104955E-02
  Overlap matrix is nonsingular at first k-point:
  | Lowest eigenvalue:  0.108573E-02
  Transforming overlap matrix and checking for singularities.
  Overlap matrix is nonsingular at first k-point:
  | Lowest eigenvalue:  0.108573E-02
  Transforming overlap matrix and checking for singularities.
  Transforming overlap matrix and checking for singularities.
  Overlap matrix is nonsingular at first k-point:
  | Lowest eigenvalue:  0.119338E-02
  Overlap matrix is nonsingular at first k-point:
  | Lowest eigenvalue:  0.137024E-02
  Transforming overlap matrix and checking for singularities.
  Overlap matrix is nonsingular at first k-point:
  | Lowest eigenvalue:  0.119338E-02
  Transforming overlap matrix and checking for singularities.
  Overlap matrix is nonsingular at first k-point:
  | Lowest eigenvalue:  0.161391E-02
  Transforming overlap matrix and checking for singularities.
  Overlap matrix is nonsingular at first k-point:
  | Lowest eigenvalue:  0.161391E-02
  Transforming overlap matrix and checking for singularities.
  Transforming overlap matrix and checking for singularities.
  Overlap matrix is nonsingular at first k-point:
  | Lowest eigenvalue:  0.230042E-02
  Overlap matrix is nonsingular at first k-point:
  | Lowest eigenvalue:  0.137024E-02
  Transforming overlap matrix and checking for singularities.
  Overlap matrix is nonsingular at first k-point:
  | Lowest eigenvalue:  0.230042E-02
  Transforming overlap matrix and checking for singularities.
  Overlap matrix is nonsingular at first k-point:
  | Lowest eigenvalue:  0.192337E-02
  Transforming overlap matrix and checking for singularities.
  Transforming overlap matrix and checking for singularities.
  Overlap matrix is nonsingular at first k-point:
  | Lowest eigenvalue:  0.328156E-02
  Overlap matrix is nonsingular at first k-point:
  | Lowest eigenvalue:  0.192337E-02
  Transforming overlap matrix and checking for singularities.
  Transforming overlap matrix and checking for singularities.
  Overlap matrix is nonsingular at first k-point:
  | Lowest eigenvalue:  0.275044E-02
  Overlap matrix is nonsingular at first k-point:
  | Lowest eigenvalue:  0.328156E-02
  Transforming overlap matrix and checking for singularities.
  Overlap matrix is nonsingular at first k-point:
  | Lowest eigenvalue:  0.275044E-02
  Transforming overlap matrix and checking for singularities.
  Overlap matrix is nonsingular at first k-point:
  | Lowest eigenvalue:  0.461247E-02
  Transforming overlap matrix and checking for singularities.
  Transforming overlap matrix and checking for singularities.
  Overlap matrix is nonsingular at first k-point:
  | Lowest eigenvalue:  0.390165E-02
  Overlap matrix is nonsingular at first k-point:
  | Lowest eigenvalue:  0.461247E-02
  Transforming overlap matrix and checking for singularities.
  Transforming overlap matrix and checking for singularities.
  Overlap matrix is nonsingular at first k-point:
  | Lowest eigenvalue:  0.390165E-02
  Overlap matrix is nonsingular at first k-point:
  | Lowest eigenvalue:  0.624285E-02
  Transforming overlap matrix and checking for singularities.
  Transforming overlap matrix and checking for singularities.
  Overlap matrix is nonsingular at first k-point:
  | Lowest eigenvalue:  0.540243E-02
  Transforming overlap matrix and checking for singularities.
  Overlap matrix is nonsingular at first k-point:
  | Lowest eigenvalue:  0.624285E-02
  Overlap matrix is nonsingular at first k-point:
  | Lowest eigenvalue:  0.540243E-02
  Transforming overlap matrix and checking for singularities.
  Overlap matrix is nonsingular at first k-point:
  | Lowest eigenvalue:  0.791581E-02
  Transforming overlap matrix and checking for singularities.
  Overlap matrix is nonsingular at first k-point:
  | Lowest eigenvalue:  0.791581E-02
  Transforming overlap matrix and checking for singularities.
  Overlap matrix is nonsingular at first k-point:
  | Lowest eigenvalue:  0.934414E-02
  Transforming overlap matrix and checking for singularities.
  Overlap matrix is nonsingular at first k-point:
  | Lowest eigenvalue:  0.934414E-02
  Transforming overlap matrix and checking for singularities.
  Transforming overlap matrix and checking for singularities.
  Overlap matrix is nonsingular at first k-point:
  | Lowest eigenvalue:  0.102277E-01
  Overlap matrix is nonsingular at first k-point:
  | Lowest eigenvalue:  0.709371E-02
  Transforming overlap matrix and checking for singularities.
  Transforming overlap matrix and checking for singularities.
  Overlap matrix is nonsingular at first k-point:
  | Lowest eigenvalue:  0.102277E-01
  Overlap matrix is nonsingular at first k-point:
  | Lowest eigenvalue:  0.709371E-02
  Transforming overlap matrix and checking for singularities.
  Overlap matrix is nonsingular at first k-point:
  | Lowest eigenvalue:  0.867665E-02
  Transforming overlap matrix and checking for singularities.
  Overlap matrix is nonsingular at first k-point:
  | Lowest eigenvalue:  0.867665E-02
  Transforming overlap matrix and checking for singularities.
  Overlap matrix is nonsingular at first k-point:
  | Lowest eigenvalue:  0.987756E-02
  Transforming overlap matrix and checking for singularities.
  Overlap matrix is nonsingular at first k-point:
  | Lowest eigenvalue:  0.987756E-02
  Transforming overlap matrix and checking for singularities.
  Overlap matrix is nonsingular at first k-point:
  | Lowest eigenvalue:  0.103504E-01
  Transforming overlap matrix and checking for singularities.
  Overlap matrix is nonsingular at first k-point:
  | Lowest eigenvalue:  0.103504E-01
  Transforming overlap matrix and checking for singularities.

  "Band gap" along reciprocal space direction number:    4
  | Lowest unoccupied state:      -4.27856620 eV
  | Highest occupied state :      -7.14912988 eV


  Treating all   20 k-points in band plot segment #   5:

  Transforming overlap matrix and checking for singularities.
  Overlap matrix is nonsingular at first k-point:
  | Lowest eigenvalue:  0.103504E-01
  Overlap matrix is nonsingular at first k-point:
  Transforming overlap matrix and checking for singularities.
  | Lowest eigenvalue:  0.100944E-01
  Transforming overlap matrix and checking for singularities.
  Overlap matrix is nonsingular at first k-point:
  Overlap matrix is nonsingular at first k-point:
  | Lowest eigenvalue:  0.100944E-01
  | Lowest eigenvalue:  0.103504E-01
  Transforming overlap matrix and checking for singularities.
  Transforming overlap matrix and checking for singularities.
  Overlap matrix is nonsingular at first k-point:
  Overlap matrix is nonsingular at first k-point:
  | Lowest eigenvalue:  0.856972E-02
  | Lowest eigenvalue:  0.943436E-02
  Transforming overlap matrix and checking for singularities.
  Transforming overlap matrix and checking for singularities.
  Overlap matrix is nonsingular at first k-point:
  | Lowest eigenvalue:  0.943436E-02
  Overlap matrix is nonsingular at first k-point:
  | Lowest eigenvalue:  0.856972E-02
  Transforming overlap matrix and checking for singularities.
  Overlap matrix is nonsingular at first k-point:
  | Lowest eigenvalue:  0.764251E-02
  Transforming overlap matrix and checking for singularities.
  Overlap matrix is nonsingular at first k-point:
  | Lowest eigenvalue:  0.764251E-02
  Transforming overlap matrix and checking for singularities.
  Overlap matrix is nonsingular at first k-point:
  | Lowest eigenvalue:  0.576923E-02
  Transforming overlap matrix and checking for singularities.
  Transforming overlap matrix and checking for singularities.
  Overlap matrix is nonsingular at first k-point:
  | Lowest eigenvalue:  0.670932E-02
  Overlap matrix is nonsingular at first k-point:
  | Lowest eigenvalue:  0.576923E-02
  Transforming overlap matrix and checking for singularities.
  Transforming overlap matrix and checking for singularities.
  Overlap matrix is nonsingular at first k-point:
  | Lowest eigenvalue:  0.670932E-02
  Overlap matrix is nonsingular at first k-point:
  | Lowest eigenvalue:  0.388109E-02
  Transforming overlap matrix and checking for singularities.
  Transforming overlap matrix and checking for singularities.
  Overlap matrix is nonsingular at first k-point:
  | Lowest eigenvalue:  0.388109E-02
  Overlap matrix is nonsingular at first k-point:
  | Lowest eigenvalue:  0.481364E-02
  Transforming overlap matrix and checking for singularities.
  Transforming overlap matrix and checking for singularities.
  Overlap matrix is nonsingular at first k-point:
  | Lowest eigenvalue:  0.481364E-02
  Transforming overlap matrix and checking for singularities.
  Overlap matrix is nonsingular at first k-point:
  | Lowest eigenvalue:  0.240905E-02
  Overlap matrix is nonsingular at first k-point:
  | Lowest eigenvalue:  0.305569E-02
  Transforming overlap matrix and checking for singularities.
  Overlap matrix is nonsingular at first k-point:
  Transforming overlap matrix and checking for singularities.
  Overlap matrix is nonsingular at first k-point:
  | Lowest eigenvalue:  0.305569E-02
  | Lowest eigenvalue:  0.240905E-02
  Transforming overlap matrix and checking for singularities.
  Overlap matrix is nonsingular at first k-point:
  | Lowest eigenvalue:  0.196830E-02
  Transforming overlap matrix and checking for singularities.
  Overlap matrix is nonsingular at first k-point:
  | Lowest eigenvalue:  0.171770E-02
  Transforming overlap matrix and checking for singularities.
  Overlap matrix is nonsingular at first k-point:
  | Lowest eigenvalue:  0.171770E-02
  Transforming overlap matrix and checking for singularities.
  Overlap matrix is nonsingular at first k-point:
  | Lowest eigenvalue:  0.155078E-02
  Transforming overlap matrix and checking for singularities.
  Overlap matrix is nonsingular at first k-point:
  | Lowest eigenvalue:  0.155078E-02
  Transforming overlap matrix and checking for singularities.
  Overlap matrix is nonsingular at first k-point:
  | Lowest eigenvalue:  0.196830E-02
  Transforming overlap matrix and checking for singularities.
  Overlap matrix is nonsingular at first k-point:
  | Lowest eigenvalue:  0.141059E-02
  Transforming overlap matrix and checking for singularities.
  Transforming overlap matrix and checking for singularities.
  Overlap matrix is nonsingular at first k-point:
  Overlap matrix is nonsingular at first k-point:
  | Lowest eigenvalue:  0.160391E-02
  | Lowest eigenvalue:  0.141059E-02
  Transforming overlap matrix and checking for singularities.
  Transforming overlap matrix and checking for singularities.
  Overlap matrix is nonsingular at first k-point:
  | Lowest eigenvalue:  0.160391E-02
  Overlap matrix is nonsingular at first k-point:
  | Lowest eigenvalue:  0.120620E-02
  Transforming overlap matrix and checking for singularities.
  Transforming overlap matrix and checking for singularities.
  Overlap matrix is nonsingular at first k-point:
  | Lowest eigenvalue:  0.120620E-02
  Overlap matrix is nonsingular at first k-point:
  | Lowest eigenvalue:  0.149436E-02
  Transforming overlap matrix and checking for singularities.
  Overlap matrix is nonsingular at first k-point:
  | Lowest eigenvalue:  0.149436E-02
  Transforming overlap matrix and checking for singularities.
  Overlap matrix is nonsingular at first k-point:
  | Lowest eigenvalue:  0.130828E-02
  Transforming overlap matrix and checking for singularities.
  Overlap matrix is nonsingular at first k-point:
  | Lowest eigenvalue:  0.130828E-02
  Transforming overlap matrix and checking for singularities.
  Overlap matrix is nonsingular at first k-point:
  | Lowest eigenvalue:  0.111921E-02
  Transforming overlap matrix and checking for singularities.
  Overlap matrix is nonsingular at first k-point:
  | Lowest eigenvalue:  0.111921E-02
  Transforming overlap matrix and checking for singularities.

  Overlap matrix is nonsingular at first k-point:
  | Lowest eigenvalue:  0.111921E-02
  "Band gap" along reciprocal space direction number:    5
  | Lowest unoccupied state:      -4.65916588 eV
  | Highest occupied state :      -7.14912988 eV


  Treating all   20 k-points in band plot segment #   6:

  Transforming overlap matrix and checking for singularities.
  Overlap matrix is nonsingular at first k-point:
  Transforming overlap matrix and checking for singularities.
  | Lowest eigenvalue:  0.109568E-02
  Transforming overlap matrix and checking for singularities.
  Overlap matrix is nonsingular at first k-point:
  Overlap matrix is nonsingular at first k-point:
  | Lowest eigenvalue:  0.109568E-02
  | Lowest eigenvalue:  0.111921E-02
  Transforming overlap matrix and checking for singularities.
  Transforming overlap matrix and checking for singularities.
  Overlap matrix is nonsingular at first k-point:
  | Lowest eigenvalue:  0.105658E-02
  Overlap matrix is nonsingular at first k-point:
  Transforming overlap matrix and checking for singularities.
  | Lowest eigenvalue:  0.107478E-02
  Overlap matrix is nonsingular at first k-point:
  | Lowest eigenvalue:  0.105658E-02
  Transforming overlap matrix and checking for singularities.
  Overlap matrix is nonsingular at first k-point:
  | Lowest eigenvalue:  0.107478E-02
  Transforming overlap matrix and checking for singularities.
  Transforming overlap matrix and checking for singularities.
  Overlap matrix is nonsingular at first k-point:
  | Lowest eigenvalue:  0.102827E-02
  Overlap matrix is nonsingular at first k-point:
  | Lowest eigenvalue:  0.104109E-02
  Transforming overlap matrix and checking for singularities.
  Overlap matrix is nonsingular at first k-point:
  | Lowest eigenvalue:  0.104109E-02
  Transforming overlap matrix and checking for singularities.
  Overlap matrix is nonsingular at first k-point:
  | Lowest eigenvalue:  0.101802E-02
  Transforming overlap matrix and checking for singularities.
  Overlap matrix is nonsingular at first k-point:
  | Lowest eigenvalue:  0.101802E-02
  Transforming overlap matrix and checking for singularities.
  Transforming overlap matrix and checking for singularities.
  Overlap matrix is nonsingular at first k-point:
  | Lowest eigenvalue:  0.102827E-02
  Overlap matrix is nonsingular at first k-point:
  | Lowest eigenvalue:  0.100460E-02
  Transforming overlap matrix and checking for singularities.
  Transforming overlap matrix and checking for singularities.
  Overlap matrix is nonsingular at first k-point:
  | Lowest eigenvalue:  0.101019E-02
  Transforming overlap matrix and checking for singularities.
  Overlap matrix is nonsingular at first k-point:
  | Lowest eigenvalue:  0.100460E-02
  Transforming overlap matrix and checking for singularities.
  Overlap matrix is nonsingular at first k-point:
  | Lowest eigenvalue:  0.101019E-02
  Overlap matrix is nonsingular at first k-point:
  | Lowest eigenvalue:  0.999160E-03
  Transforming overlap matrix and checking for singularities.
  Transforming overlap matrix and checking for singularities.
  Overlap matrix is nonsingular at first k-point:
  | Lowest eigenvalue:  0.100101E-02
  Overlap matrix is nonsingular at first k-point:
  Transforming overlap matrix and checking for singularities.
  | Lowest eigenvalue:  0.999160E-03
  Overlap matrix is nonsingular at first k-point:
  | Lowest eigenvalue:  0.100101E-02
  Transforming overlap matrix and checking for singularities.
  Overlap matrix is nonsingular at first k-point:
  | Lowest eigenvalue:  0.999471E-03
  Transforming overlap matrix and checking for singularities.
  Transforming overlap matrix and checking for singularities.
  Overlap matrix is nonsingular at first k-point:
  | Lowest eigenvalue:  0.998754E-03
  Overlap matrix is nonsingular at first k-point:
  | Lowest eigenvalue:  0.999471E-03
  Transforming overlap matrix and checking for singularities.
  Overlap matrix is nonsingular at first k-point:
  | Lowest eigenvalue:  0.998754E-03
  Transforming overlap matrix and checking for singularities.
  Overlap matrix is nonsingular at first k-point:
  | Lowest eigenvalue:  0.100295E-02
  Transforming overlap matrix and checking for singularities.
  Overlap matrix is nonsingular at first k-point:
  | Lowest eigenvalue:  0.100295E-02
  Transforming overlap matrix and checking for singularities.
  Overlap matrix is nonsingular at first k-point:
  | Lowest eigenvalue:  0.100705E-02
  Transforming overlap matrix and checking for singularities.
  Overlap matrix is nonsingular at first k-point:
  | Lowest eigenvalue:  0.100705E-02
  Transforming overlap matrix and checking for singularities.
  Transforming overlap matrix and checking for singularities.
  Overlap matrix is nonsingular at first k-point:
  | Lowest eigenvalue:  0.100968E-02
  Overlap matrix is nonsingular at first k-point:
  | Lowest eigenvalue:  0.100098E-02
  Transforming overlap matrix and checking for singularities.
  Overlap matrix is nonsingular at first k-point:
  | Lowest eigenvalue:  0.100968E-02
  Transforming overlap matrix and checking for singularities.
  Overlap matrix is nonsingular at first k-point:
  | Lowest eigenvalue:  0.100098E-02
  Transforming overlap matrix and checking for singularities.
  Overlap matrix is nonsingular at first k-point:
  | Lowest eigenvalue:  0.100507E-02
  Transforming overlap matrix and checking for singularities.
  Overlap matrix is nonsingular at first k-point:
  | Lowest eigenvalue:  0.100507E-02
  Transforming overlap matrix and checking for singularities.
  Overlap matrix is nonsingular at first k-point:
  | Lowest eigenvalue:  0.100864E-02
  Transforming overlap matrix and checking for singularities.
  Overlap matrix is nonsingular at first k-point:
  | Lowest eigenvalue:  0.100864E-02
  Transforming overlap matrix and checking for singularities.
  Overlap matrix is nonsingular at first k-point:
  | Lowest eigenvalue:  0.101004E-02
  Transforming overlap matrix and checking for singularities.
  Overlap matrix is nonsingular at first k-point:
  | Lowest eigenvalue:  0.101004E-02

  "Band gap" along reciprocal space direction number:    6
  | Lowest unoccupied state:      -6.75633902 eV
  | Highest occupied state :      -8.08300947 eV


------------------------------------------------------------
          Leaving FHI-aims.
          Date     :  20110102, Time     :  183231.235

          Computational steps:
          | Number of self-consistency cycles          :           16

          Detailed time accounting                     :  max(cpu_time)    wall_clock(cpu1)
          | Total time                                 :       34.436 s          74.791 s
          | Preparation time                           :        0.174 s           0.528 s
          | Grid partitioning                          :        0.044 s           0.084 s
          | Preloading free-atom quantities on grid    :        0.146 s           0.316 s
          | Free-atom superposition energy             :        0.014 s           0.032 s
          | Total time for integrations                :       10.510 s          28.690 s
          | Total time for solution of K.-S. equations :        4.769 s           6.659 s
          | Total time for density update              :       14.338 s          27.320 s
          | Total time for mixing & preconditioning    :        0.336 s           0.991 s
          | Total time for Hartree multipole update    :        0.030 s           0.031 s
          | Total time for Hartree multipole sum       :        2.430 s           7.096 s
          | Total time for total energy evaluation     :        0.005 s           0.006 s

          Have a nice day.
------------------------------------------------------------
