  MPI-parallelism will be employed.
------------------------------------------------------------
          Invoking FHI-aims ...

          When using FHI-aims, please cite the following reference:

          Volker Blum, Ralf Gehrke, Felix Hanke, Paula Havu,
          Ville Havu, Xinguo Ren, Karsten Reuter, and Matthias Scheffler,
          'Ab Initio Molecular Simulations with Numeric Atom-Centered Orbitals',
          Computer Physics Communications 180, 2175-2196 (2009)

          For any questions about FHI-aims, please visit the aimsclub website
          with its forums and wiki. Contributions to both the forums and the
          wiki are warmly encouraged - they are for you, and everyone is welcome there.

------------------------------------------------------------



  Date     :  20190817, Time     :  154033.861
  Time zero on CPU 1             :   0.243480000000000E-01  s.
  Internal wall clock time zero  :           335288433.861  s.

  FHI-aims created a unique identifier for this run for later identification
  aims_uuid : 85481015-3082-476A-A4B3-8E8667ADB0E8

  Build configuration of the current instance of FHI-aims
  -------------------------------------------------------
  FHI-aims version      : 190813
  Commit number         : 3da7baeb3
  CMake host system     : Linux-4.4.180-94.97-default
  CMake version         : 3.5.2
  Fortran compiler      : /mpcdf/soft/SLE_12_SP3/packages/x86_64/intel_parallel_studio/2018.4/compilers_and_libraries_2018.5.274/linux/mpi/bin64/mpiifort (Intel) version 18.0.5.20180823
  Fortran compiler flags: -O3 -ip -fp-model precise
  C compiler            : /mpcdf/soft/SLE_12_SP3/packages/skylake/intel/18.0.5/bin/icc (Intel) version 18.0.5.20180823
  C compiler flags      : -O3 -ip -fp-model precise
  Architecture          :
  Using MPI
  Using Scalapack
  Using C files
  Using SPGlib
  Using i-PI
  Linking against: /mpcdf/soft/SLE_12_SP3/packages/x86_64/anaconda/3.5.1.0/lib/libmkl_intel_lp64.so
                   /mpcdf/soft/SLE_12_SP3/packages/x86_64/anaconda/3.5.1.0/lib/libmkl_sequential.so
                   /mpcdf/soft/SLE_12_SP3/packages/x86_64/anaconda/3.5.1.0/lib/libmkl_core.so
                   /mpcdf/soft/SLE_12_SP3/packages/x86_64/anaconda/3.5.1.0/lib/libmkl_blacs_intelmpi_lp64.so
                   /mpcdf/soft/SLE_12_SP3/packages/x86_64/anaconda/3.5.1.0/lib/libmkl_scalapack_lp64.so

  Using        8 parallel tasks.
  Task        0 on host co1631 reporting.
  Task        1 on host co1631 reporting.
  Task        2 on host co1631 reporting.
  Task        3 on host co1631 reporting.
  Task        4 on host co1631 reporting.
  Task        5 on host co1631 reporting.
  Task        6 on host co1631 reporting.
  Task        7 on host co1631 reporting.

  Performing system and environment tests:
  | Environment variable OMP_NUM_THREADS correctly set to 1.
  | Maximum stacksize for task 0: unlimited
  | Maximum stacksize for task 1: unlimited
  | Maximum stacksize for task 2: unlimited
  | Maximum stacksize for task 3: unlimited
  | Maximum stacksize for task 4: unlimited
  | Maximum stacksize for task 5: unlimited
  | Maximum stacksize for task 6: unlimited
  | Maximum stacksize for task 7: unlimited
  | Current stacksize for task 0: unlimited
  | Current stacksize for task 1: unlimited
  | Current stacksize for task 2: unlimited
  | Current stacksize for task 3: unlimited
  | Current stacksize for task 4: unlimited
  | Current stacksize for task 5: unlimited
  | Current stacksize for task 6: unlimited
  | Current stacksize for task 7: unlimited
  | Checking for scalapack...
  | Testing pdtran()...
  | All pdtran() tests passed.

  Obtaining array dimensions for all initial allocations:
  
  -----------------------------------------------------------------------
  Parsing control.in (first pass over file, find array dimensions only).
  The contents of control.in will be repeated verbatim below
  unless switched off by setting 'verbatim_writeout .false.' .
  in the first line of control.in .
  -----------------------------------------------------------------------
  
  #########################################################################################
  #
  #  Test run input file control.in
  #
  #########################################################################################
  
  #  Physical model
    qpe_calc gw
    xc               pbe
    spin             collinear
    default_initial_moment 0.01
    relativistic     none
    anacon_type      pade
    contour_def_gw   6 7  4 5
    contour_eta      0.001
    contour_restart  read_and_write
    frequency_points 100
    print_self_energy 5 -20.0 -19.8
  
    state_upper_limit 40
    occupation_type    gaussian 0.01
    mixer              pulay
      n_max_pulay        10
      charge_mix_param   0.2
    sc_accuracy_rho    1E-5
    sc_accuracy_eev    1E-4
    sc_accuracy_etot   1E-6
    sc_iter_limit      100
    prodbas_threshold  1.e-4
  ################################################################################
  #
  #  FHI-aims code project
  #  VB, Fritz-Haber Institut, 2009
  #
  #  Suggested "light" defaults for H atom (to be pasted into control.in file)
  #  Be sure to double-check any results obtained with these settings for post-processing,
  #  e.g., with the "tight" defaults and larger basis sets.
  #
  ################################################################################
    species        H
  #     global species definitions
      nucleus             1
      mass                1.00794
  #
      l_hartree           4
  #
      cut_pot             3.5  1.5  1.0
      basis_dep_cutoff    1e-4
  #
      radial_base         24 5.0
      radial_multiplier   1
      angular_grids       specified
        division   0.2421   50
        division   0.3822  110
        division   0.4799  194
        division   0.5341  302
  #      division   0.5626  434
  #      division   0.5922  590
  #      division   0.6542  770
  #      division   0.6868 1202
  #      outer_grid  770
        outer_grid  302
  ################################################################################
  #
  #  Definition of "minimal" basis
  #
  ################################################################################
  #     valence basis states
      valence      1  s   1.
  #     ion occupancy
      ion_occ      1  s   0.5
  ################################################################################
  #
  #  Suggested additional basis functions. For production calculations,
  #  uncomment them one after another (the most important basis functions are
  #  listed first).
  #
  #  Basis constructed for dimers: 0.5 A, 0.7 A, 1.0 A, 1.5 A, 2.5 A
  #
  ################################################################################
  #  "First tier" - improvements: -1014.90 meV to -62.69 meV
       hydro 2 s 2.1
       hydro 2 p 3.5
  #  "Second tier" - improvements: -12.89 meV to -1.83 meV
  #     hydro 1 s 0.85
  #     hydro 2 p 3.7
  #     hydro 2 s 1.2
  #     hydro 3 d 7
  #  "Third tier" - improvements: -0.25 meV to -0.12 meV
  #     hydro 4 f 11.2
  #     hydro 3 p 4.8
  #     hydro 4 d 9
  #     hydro 3 s 3.2
  ################################################################################
  #
  #  FHI-aims code project
  #  VB, Fritz-Haber Institut, 2009
  #
  #  Suggested "light" defaults for C atom (to be pasted into control.in file)
  #  Be sure to double-check any results obtained with these settings for post-processing,
  #  e.g., with the "tight" defaults and larger basis sets.
  #
  ################################################################################
    species        C
  #     global species definitions
      nucleus             6
      mass                12.0107
  #
      l_hartree           4
  #
      cut_pot             3.5  1.5  1.0
      basis_dep_cutoff    1e-4
  #
      radial_base         34 5.0
      radial_multiplier   1
      angular_grids specified
        division   0.3326   50
        division   0.5710  110
        division   0.7727  194
        division   0.8772  302
  #      division   0.9334  434
  #      division   0.9625  590
  #      division   0.9924  770
  #      division   1.0230  974
  #      division   1.4589 1202
  #     outer_grid  974
       outer_grid 302
  ################################################################################
  #
  #  Definition of "minimal" basis
  #
  ################################################################################
  #     valence basis states
      valence      2  s   2.
      valence      2  p   2.
  #     ion occupancy
      ion_occ      2  s   1.
      ion_occ      2  p   1.
  ################################################################################
  #
  #  Suggested additional basis functions. For production calculations,
  #  uncomment them one after another (the most important basis functions are
  #  listed first).
  #
  #  Constructed for dimers: 1.0 A, 1.25 A, 1.5 A, 2.0 A, 3.0 A
  #
  ################################################################################
  #  "First tier" - improvements: -1214.57 meV to -155.61 meV
       hydro 2 p 1.7
       hydro 3 d 6
       hydro 2 s 4.9
  #  "Second tier" - improvements: -67.75 meV to -5.23 meV
  #     hydro 4 f 9.8
  #     hydro 3 p 5.2
  #     hydro 3 s 4.3
  #     hydro 5 g 14.4
  #     hydro 3 d 6.2
  #  "Third tier" - improvements: -2.43 meV to -0.60 meV
  #     hydro 2 p 5.6
  #     hydro 2 s 1.4
  #     hydro 3 d 4.9
  #     hydro 4 f 11.2
  #  "Fourth tier" - improvements: -0.39 meV to -0.18 meV
  #     hydro 2 p 2.1
  #     hydro 5 g 16.4
  #     hydro 4 d 13.2
  #     hydro 3 s 13.6
  #     hydro 4 f 17.6
  #  Further basis functions - improvements: -0.08 meV and below
  #     hydro 3 s 2
  #     hydro 3 p 6
  #     hydro 4 d 20
  
  -----------------------------------------------------------------------
  Completed first pass over input file control.in .
  -----------------------------------------------------------------------
  
  
  -----------------------------------------------------------------------
  Parsing geometry.in (first pass over file, find array dimensions only).
  The contents of geometry.in will be repeated verbatim below
  unless switched off by setting 'verbatim_writeout .false.' .
  in the first line of geometry.in .
  -----------------------------------------------------------------------
  
              atom         0.00000016        0.00001918        0.00000016  C
              atom         0.63232625       -0.63226771        0.63232625  H
              atom        -0.63232571        0.63233315        0.63230028  H
              atom        -0.63230098       -0.63231778       -0.63230098  H
              atom         0.63230028        0.63233315       -0.63232571  H
  
  -----------------------------------------------------------------------
  Completed first pass over input file geometry.in .
  -----------------------------------------------------------------------
  

  Basic array size parameters:
  | Number of species                 :        2
  | Number of atoms                   :        5
  | Max. basis fn. angular momentum   :        2
  | Max. atomic/ionic basis occupied n:        2
  | Max. number of basis fn. types    :        2
  | Max. radial fns per species/type  :        3
  | Max. logarithmic grid size        :     1277
  | Max. radial integration grid size :       34
  | Max. angular integration grid size:      302
  | Max. angular grid division number :        8
  | Radial grid for Hartree potential :     1277
  | Number of spin channels           :        2

------------------------------------------------------------
          Reading file control.in.
------------------------------------------------------------
  GW quasiparticle calculation of excited states will be started after the DFT/HF calculation.
  XC: Using PBE gradient-corrected functionals.
  Spin treatment: Spin density functional theory - collinear spins.
  Initial spin moment per atom:   0.0100
  Non-relativistic treatment of kinetic energy.
  Using Pade approximation for analytical continuation.
  Contour deformation in GW for the levels:      6     to       7
  Contour deformation in GW for the levels:      4     to       5
  Broadening parameter eta:       0.001000
  Use restart option for GW calculation with contour deformation
  Number of frequency points used for the self-energy calculation:    100
  Upper limit of the eigenstates for the self-energy correction :     40
  Occupation type: Gaussian broadening, width =   0.100000E-01 eV.
  Using pulay charge density mixing.
  Pulay mixing - number of memorized iterations:   10
  Charge density mixing - mixing parameter:     0.2000
  Convergence accuracy of self-consistent charge density:  0.1000E-04
  Convergence accuracy of sum of eigenvalues:  0.1000E-03
  Convergence accuracy of total energy:  0.1000E-05
  Maximum number of s.-c. iterations  :   100
  Threshold for auxiliary basis singularities:  0.1000E-03
 
  Reading configuration options for species H                   .
  | Found nuclear charge :   1.0000
  | Found atomic mass :    1.00794000000000      amu
  | Found l_max for Hartree potential  :   4
  | Found cutoff potl. onset [A], width [A], scale factor :    3.50000    1.50000    1.00000
  | Threshold for basis-dependent cutoff potential is   0.100000E-03
  | Found data for basic radial integration grid :    24 points, outermost radius =    5.000 A
  | Found multiplier for basic radial grid :   1
  | Found angular grid specification: user-specified.
  | Specified grid contains     5 separate shells.
  | Check grid settings after all constraints further below.
  | Found free-atom valence shell :  1 s   1.000
  | No ionic wave fns used. Skipping ion_occ.
  | Found hydrogenic basis function :  2 s   2.100
  | Found hydrogenic basis function :  2 p   3.500
  Species H                   : Missing cutoff potential type.
  Defaulting to exp(1/x)/(1-x)^2 type cutoff potential.
  Species H : No 'logarithmic' tag. Using default grid for free atom:
  | Default logarithmic grid data [bohr] : 0.1000E-03 0.1000E+03 0.1012E+01
  Species H : On-site basis accuracy parameter (for Gram-Schmidt orthonormalisation) not specified.
  Using default value basis_acc =  0.1000000E-03.
  Species H                   : Using default innermost maximum threshold i_radial=  2 for radial functions.
  Species H                   : Default cutoff onset for free atom density etc. is infinite
  since the product basis is used (hybrid functionals, Hartree-Fock, GW etc.).
  Species H                   : Basic radial grid will be enhanced according to radial_multiplier =   1, to contain    24 grid points.
 
  Reading configuration options for species C                   .
  | Found nuclear charge :   6.0000
  | Found atomic mass :    12.0107000000000      amu
  | Found l_max for Hartree potential  :   4
  | Found cutoff potl. onset [A], width [A], scale factor :    3.50000    1.50000    1.00000
  | Threshold for basis-dependent cutoff potential is   0.100000E-03
  | Found data for basic radial integration grid :    34 points, outermost radius =    5.000 A
  | Found multiplier for basic radial grid :   1
  | Found angular grid specification: user-specified.
  | Specified grid contains     5 separate shells.
  | Check grid settings after all constraints further below.
  | Found free-atom valence shell :  2 s   2.000
  | Found free-atom valence shell :  2 p   2.000
  | No ionic wave fns used. Skipping ion_occ.
  | No ionic wave fns used. Skipping ion_occ.
  | Found hydrogenic basis function :  2 p   1.700
  | Found hydrogenic basis function :  3 d   6.000
  | Found hydrogenic basis function :  2 s   4.900
  Species C                   : Missing cutoff potential type.
  Defaulting to exp(1/x)/(1-x)^2 type cutoff potential.
  Species C : No 'logarithmic' tag. Using default grid for free atom:
  | Default logarithmic grid data [bohr] : 0.1000E-03 0.1000E+03 0.1012E+01
  Species C : On-site basis accuracy parameter (for Gram-Schmidt orthonormalisation) not specified.
  Using default value basis_acc =  0.1000000E-03.
  Species C                   : Using default innermost maximum threshold i_radial=  2 for radial functions.
  Species C                   : Default cutoff onset for free atom density etc. is infinite
  since the product basis is used (hybrid functionals, Hartree-Fock, GW etc.).
  Species C                   : Basic radial grid will be enhanced according to radial_multiplier =   1, to contain    34 grid points.
 
  Finished reading input file 'control.in'. Consistency checks are next.
 
  MPI_IN_PLACE appears to work with this MPI implementation.
  | Keeping use_mpi_in_place .true. (see manual).
  Explicit treatment of the Coulomb operator is needed, but the RI method is not specified.
  Coulomb operator: Defaulting to 'RI-V' resolution of identity - RI_type = V 
  Species H: Using default value for prodbas_acc =   1.000000E-02.
  Species H: Using default value max_l_prodbas =     5.
  Explicit treatment of the Coulomb operator is needed, but the RI method is not specified.
  Coulomb operator: Defaulting to 'RI-V' resolution of identity - RI_type = V 
  Species C: Using default value for prodbas_acc =   1.000000E-02.
  Species C: Using default value max_l_prodbas =     5.
 * Species C: Specified min. number of angular integration points is    50
 * The angular momenta for this species require   110 for RI_type 'V'. Increasing angular_min to   110.
 * Species C: Grid shell     1 contains only    50 angular integration points.
 * Increasing to angular_min =   110 integration points.
 * This change is related to the three-center integrals used in RI_method 'V'.
  Target number of points in a grid batch is not set. Defaulting to  100
  Method for grid partitioning is not set. Defaulting to parallel hash+maxmin partitioning.
  Batch size limit is not set. Defaulting to    200
  By default, will store active basis functions for each batch.
  If in need of memory, prune_basis_once .false. can be used to disable this option.
  communication_type for Hartree potential was not specified.
  Defaulting to calc_hartree .
  Pulay mixer: Number of initial linear mixing iterations not set.
  Defaulting to    0 iterations.
  Work space size for distributed Hartree potential not set.
  Defaulting to   0.200000E+03 MB.
  Mixing parameter for spin density mixing has not been set.
  Using charge_mix_param as default:     0.2000.
  Algorithm-dependent basis array size parameters:
  | n_max_pulay                         :       10
  Presetting      1001 iterations before the initial mixing cycle
  is restarted anyway using the sc_init_iter criterion / keyword.
  Presetting a factor      1.000 between actual scf density residual
  and density convergence criterion sc_accuracy_rho below which sc_init_iter
  takes no effect.
  Calculation of forces was not defined in control.in. No forces will be calculated.
  Geometry relaxation not requested: no relaxation will be performed.
  No accuracy limit for integral partition fn. given. Defaulting to  0.1000E-14.
  No threshold value for u(r) in integrations given. Defaulting to  0.1000E-05.
  No accuracy for occupation numbers given. Defaulting to  0.1000E-12.
  No threshold value for occupation numbers given. Defaulting to  0.0000E+00.
  No accuracy for fermi level given. Defaulting to  0.1000E-19.
  Maximum # of iterations to find E_F not set. Defaulting to  200.
  Preferred method for the eigenvalue solver ('KS_method') not specified in 'control.in'.
  Calling BLACS routine to test compilation state
  Since ScaLAPACK support is enabled, defaulting to ELPA (via ELSI).
  Will not use alltoall communication since running on < 1024 CPUs.
  Threshold for basis singularities not set.
  Default threshold for basis singularities:  0.1000E-04
  partition_type (choice of integration weights) for integrals was not specified.
  | Using a version of the partition function of Stratmann and coworkers ('stratmann_sparse').
  | At each grid point, the set of atoms used to build the partition table is smoothly restricted to
  | only those atoms whose free-atom density would be non-zero at that grid point.
  Partitioning for Hartree potential was not defined. Using partition_type for integrals.
  | Adjusted default value of keyword multip_moments_threshold to:       0.10000000E-11
  | This value may affect high angular momentum components of the Hartree potential in periodic systems.
  No q(lm)/r^(l+1) cutoff set for long-range Hartree potential.
  | Using default value of  0.100000E-09 .
  | Verify using the multipole_threshold keyword.
  Defaulting to new monopole extrapolation.
  Density update method: automatic selection selected.
  Charge integration errors on the 3D integration grid will be compensated
  by explicit normalization and distribution of residual charges.
  Use the "compensate_multipole_errors" flag to change this behaviour.
  Default to 1D ("use_logsbt") integrations for auxiliary 2-center integrals.
  Default onset of logarithmic r-grid for SBT is-38.000000000000
  Default onset of logarithmic k-grid for SBT is-25.000000000000
  Default range of logarithmic r- and k-grid for SBT is 45.000000000000
  Default number of logarithmic r- and k-grid for SBT is  4096
  Default of use_2d_corr is to use the efficient 2D distribution where possible
------------------------------------------------------------


------------------------------------------------------------
          Reading geometry description geometry.in.
------------------------------------------------------------
  Input structure read successfully.
  The structure contains        5 atoms,  and a total of         10.000 electrons.

  Input geometry:
  | No unit cell requested.
  | Atomic structure:
  |       Atom                x [A]            y [A]            z [A]
  |    1: Species C             0.00000016        0.00001918        0.00000016
  |    2: Species H             0.63232625       -0.63226771        0.63232625
  |    3: Species H            -0.63232571        0.63233315        0.63230028
  |    4: Species H            -0.63230098       -0.63231778       -0.63230098
  |    5: Species H             0.63230028        0.63233315       -0.63232571
  | The smallest distance between any two atoms is         1.09519828 AA.
  | The first atom of this pair is atom number                      1 .
  | The second atom of this pair is atom number                     2 .

  Initial moments and charges:
  |  Atom   Moment         Charge        Species
  |     1   0.100000E-01   0.000000E+00   C
  |     2   0.100000E-01   0.000000E+00   H
  |     3   0.100000E-01   0.000000E+00   H
  |     4   0.100000E-01   0.000000E+00   H
  |     5   0.100000E-01   0.000000E+00   H

  Number of empty states per atom not set in control.in .
  | Since you are using a method that relies on the unoccupied spectrum
  | (MP2,GW,RPA et al.), will use the full Hamiltonian size (see below)
  | as the max. possible number of states (occupied plus empty).

  Structure-dependent array size parameters: 
  | Number of distinct atom types in initial rho :        2
  | Maximum number of distinct radial functions  :        9
  | Maximum number of basis functions            :       34
  | Number of Kohn-Sham states (occupied + empty):       34
------------------------------------------------------------

------------------------------------------------------------
          Preparing all fixed parts of the calculation.
------------------------------------------------------------
  Determining machine precision:
    2.225073858507201E-308
  Setting up grids for atomic and cluster calculations.

  Creating wave function, potential, and density for free atoms.

  Species: H

  List of occupied orbitals and eigenvalues:
    n    l              occ      energy [Ha]    energy [eV]
    1    0           1.0000        -0.238600        -6.4926


  Species: C

  List of occupied orbitals and eigenvalues:
    n    l              occ      energy [Ha]    energy [eV]
    1    0           2.0000       -10.042041      -273.2578
    2    0           2.0000        -0.504901       -13.7390
    2    1           2.0000        -0.194353        -5.2886

  Spin-polarized or charged system:
  Charge density initialized according to selected moments and charges.

  Creating spin-polarized density from free atoms.

  Species: C
  Charge:   0.000000
  Moment:   0.010000

  List of occupied orbitals and eigenvalues:
    n    l      energy [Ha]    energy [eV]    occupation
  Spin-up
    1    0       -10.038910      -273.1726     1.00000000
    2    0        -0.502946       -13.6859     1.00000000
    2    1        -0.192198        -5.2300     1.00500000
  Spin-down
    1    0       -10.038758      -273.1685     1.00000000
    2    0        -0.502446       -13.6722     1.00000000
    2    1        -0.191743        -5.2176     0.99500000


  Species: H
  Charge:   0.000000
  Moment:   0.010000

  List of occupied orbitals and eigenvalues:
    n    l      energy [Ha]    energy [eV]    occupation
  Spin-up
    1    0        -0.238303        -6.4846     0.50500000
  Spin-down
    1    0        -0.236869        -6.4455     0.49500000

  Creating fixed part of basis set: Ionic, confined, hydrogenic.
 
  H                    hydrogenic:
 
  List of hydrogenic basis orbitals: 
    n    l      effective z      eigenvalue [eV]  inner max. [A]     outer max. [A]     outer radius [A]   
    2    0         2.100000       -14.9728           0.193243           1.317208           4.583499
    2    1         3.500000       -41.6669           0.602369           0.602369           3.723403
 
 
  C                    hydrogenic:
 
  List of hydrogenic basis orbitals: 
    n    l      effective z      eigenvalue [eV]  inner max. [A]     outer max. [A]     outer radius [A]   
    2    1         1.700000        -9.7616           1.230570           1.230570           4.607917
    3    2         6.000000       -54.4224           0.792453           0.792453           3.883070
    2    0         4.900000       -81.6679           0.082559           0.562749           3.078220
 

  Adding cutoff potential to free-atom effective potential.
  Creating atomic-like basis functions for current effective potential.

  Species H                   :

  List of atomic basis orbitals and eigenvalues:
    n    l      energy [Ha]    energy [eV]    outer radius [A]
    1    0        -0.238398        -6.4871       4.527807


  Species C                   :

  List of atomic basis orbitals and eigenvalues:
    n    l      energy [Ha]    energy [eV]    outer radius [A]
    1    0       -10.042041      -273.2578       1.934409
    2    0        -0.504890       -13.7387       4.496620
    2    1        -0.194033        -5.2799       4.551928

  Assembling full basis from fixed parts.
  | Species H :   atomic orbital   1 s accepted.
  | Species H :    hydro orbital   2 s accepted.
  | Species H :    hydro orbital   2 p accepted.
  | Species C :   atomic orbital   1 s accepted.
  | Species C :    hydro orbital   2 s accepted.
  | Species C :   atomic orbital   2 s accepted.
  | Species C :   atomic orbital   2 p accepted.
  | Species C :    hydro orbital   2 p accepted.
  | Species C :    hydro orbital   3 d accepted.
 
  Basis size parameters after reduction:
  | Total number of radial functions:        9
  | Total number of basis functions :       34
 
  Per-task memory consumption for arrays in subroutine allocate_ext:
  |           2.208148MB.
  Testing on-site integration grid accuracy.
  |  Species  Function  <phi|h_atom|phi> (log., in eV)  <phi|h_atom|phi> (rad., in eV)
           1        1                 -6.4883250361                 -6.4871241952
           1        2                 13.6853472746                 13.6912335226
           1        3                 25.2448325417                 25.2449751640
           2        4               -273.2578369873               -273.2578073891
           2        5                -10.7790773512                -10.7788537933
           2        6                 17.4521145986                 17.4491821702
           2        7                 -5.2816627288                 -5.2831743667
           2        8                  8.6304345568                  8.6073785542
           2        9                 27.4404183943                 27.4405132909

  Preparing densities etc. for the partition functions (integrals / Hartree potential).

  Preparations completed.
  max(cpu_time)          :      0.194 s.
  Wall clock time (cpu1) :      0.194 s.
------------------------------------------------------------

------------------------------------------------------------
          Begin self-consistency loop: Initialization.

          Date     :  20190817, Time     :  154034.116
------------------------------------------------------------

  Initializing index lists of integration centers etc. from given atomic structure:
  | Number of centers in hartree potential         :         5
  | Number of centers in hartree multipole         :         5
  | Number of centers in electron density summation:         5
  | Number of centers in basis integrals           :         5
  | Number of centers in integrals                 :         5
  | Number of centers in hamiltonian               :         5
  * Using 8 tasks for Scalapack Eigenvalue solver.
  Detailed listing of tasks and assigned k-points:
  (for non-periodic systems, the "k-point" denotes an internal label only)
   Task     0 k-point     1 on co1631
   Task     1 k-point     1 on co1631
   Task     2 k-point     1 on co1631
   Task     3 k-point     1 on co1631
   Task     4 k-point     1 on co1631
   Task     5 k-point     1 on co1631
   Task     6 k-point     1 on co1631
   Task     7 k-point     1 on co1631
  Tasks:     8 split into      4 X      2 BLACS grid
  Calculating block size based on n_basis =           34  max_nprow =            4  max_npcol =            2
  ScaLAPACK block size set to:            8
  Allocating        0.001 MB for ovlp
  Allocating        0.003 MB for ham
  Allocating        0.003 MB for eigenvec
  Required Scalapack workspace - INTEGER:            1  REAL:             1
  Partitioning the integration grid into batches with parallel hashing+maxmin method.
  | Number of batches:      384
  | Maximal batch size:      84
  | Minimal batch size:      58
  | Average batch size:      66.552
  | Standard deviation of batch sizes:       6.256

  Integration load balanced across     8 MPI tasks.
  Work distribution over tasks is as follows:
  Task     0 has       3233 integration points.
  Task     1 has       3181 integration points.
  Task     2 has       3191 integration points.
  Task     3 has       3193 integration points.
  Task     4 has       3179 integration points.
  Task     5 has       3210 integration points.
  Task     6 has       3210 integration points.
  Task     7 has       3159 integration points.
  Initializing partition tables, free-atom densities, potentials, etc. across the integration grid (initialize_grid_storage).
  | Species        1: outer_partition_radius set to             16.344003741102970 AA .
  | Species        2: outer_partition_radius set to             17.044868804081489 AA .
  | The sparse table of interatomic distances needs          0.26 kbyte instead of         0.20 kbyte of memory.
  | Using the partition_type stratmann_smoother will reduce your memory usage.
  | Net number of integration points:    25556
  | of which are non-zero points    :    22580
  Renormalizing the initial density to the exact electron count on the 3D integration grid.
  | Initial density: Formal number of electrons (from input files) :      10.0000000000
  | Integrated number of electrons on 3D grid     :       9.9999962580
  | Charge integration error                      :      -0.0000037420
  | Normalization factor for density and gradient :       1.0000003742
  Renormalizing the free-atom superposition density to the exact electron count on the 3D integration grid.
  | Formal number of electrons (from input files) :      10.0000000000
  | Integrated number of electrons on 3D grid     :      10.0000295327
  | Charge integration error                      :       0.0000295327
  | Normalization factor for density and gradient :       0.9999970467
  Obtaining max. number of non-zero basis functions in each batch (get_n_compute_maxes).
  | Maximal number of non-zero basis functions:       34 in task     0
  | Maximal number of non-zero basis functions:       34 in task     1
  | Maximal number of non-zero basis functions:       34 in task     2
  | Maximal number of non-zero basis functions:       34 in task     3
  | Maximal number of non-zero basis functions:       34 in task     4
  | Maximal number of non-zero basis functions:       34 in task     5
  | Maximal number of non-zero basis functions:       34 in task     6
  | Maximal number of non-zero basis functions:       34 in task     7
  Selecting the method for density update.
  Loop over occupied states selected for charge density update.
  Allocating        0.018 MB for KS_eigenvector
  Integrating Hamiltonian matrix: batch-based integration.
  Time summed over all CPUs for integration: real work        0.262 s, elapsed        0.264 s
  Integrating overlap matrix.
  Time summed over all CPUs for integration: real work        0.025 s, elapsed        0.026 s
  Deallocating overlap matrix.

  Updating Kohn-Sham eigenvalues and eigenvectors using ELSI and the ELPA eigensolver.
  Overlap matrix is not singular
  | Lowest and highest eigenvalues :  0.1609E-01,  0.3913E+01
  Finished singularity check of overlap matrix
  | Time :     0.001 s
  Starting ELPA eigensolver
  Finished Cholesky decomposition
  | Time :     0.001 s
  Finished transformation to standard eigenproblem
  | Time :     0.000 s
  Finished solving standard eigenproblem
  | Time :     0.001 s
  Finished back-transformation of eigenvectors
  | Time :     0.000 s
  Starting ELPA eigensolver
  Finished transformation to standard eigenproblem
  | Time :     0.000 s
  Finished solving standard eigenproblem
  | Time :     0.000 s
  Finished back-transformation of eigenvectors
  | Time :     0.000 s

  Obtaining occupation numbers and chemical potential using ELSI.
  | Chemical potential (Fermi level):    -5.65135121 eV
  Writing Kohn-Sham eigenvalues.

  Spin-up eigenvalues:

  State    Occupation    Eigenvalue [Ha]    Eigenvalue [eV]
      1       1.00000         -10.180993         -277.03891
      2       1.00000          -0.831930          -22.63796
      3       1.00000          -0.537482          -14.62564
      4       1.00000          -0.537482          -14.62563
      5       1.00000          -0.537482          -14.62563
      6       0.00000          -0.025714           -0.69970
      7       0.00000           0.021214            0.57727
      8       0.00000           0.021214            0.57727
      9       0.00000           0.021215            0.57728
     10       0.00000           0.186685            5.07997
     11       0.00000           0.186685            5.07997
     12       0.00000           0.186685            5.07997
     13       0.00000           0.511525           13.91929
     14       0.00000           0.511525           13.91930
     15       0.00000           0.573731           15.61202
     16       0.00000           0.643300           17.50509
     17       0.00000           0.643300           17.50509
     18       0.00000           0.643301           17.50510
     19       0.00000           1.164242           31.68065
     20       0.00000           1.164243           31.68066
     21       0.00000           1.164243           31.68067
     22       0.00000           1.366732           37.19068
     23       0.00000           1.366733           37.19070
     24       0.00000           1.366733           37.19071
     25       0.00000           1.822360           49.58893
     26       0.00000           1.837854           50.01055
     27       0.00000           1.837856           50.01060
     28       0.00000           1.837857           50.01065
     29       0.00000           2.219077           60.38416
     30       0.00000           2.219077           60.38417
     31       0.00000           2.316275           63.02906
     32       0.00000           2.583483           70.30015
     33       0.00000           2.583483           70.30015
     34       0.00000           2.583484           70.30017

  Spin-down eigenvalues:

  State    Occupation    Eigenvalue [Ha]    Eigenvalue [eV]
      1       1.00000         -10.180799         -277.03365
      2       1.00000          -0.830723          -22.60514
      3       1.00000          -0.536167          -14.58983
      4       1.00000          -0.536166          -14.58982
      5       1.00000          -0.536166          -14.58982
      6       0.00000          -0.024953           -0.67901
      7       0.00000           0.022272            0.60606
      8       0.00000           0.022272            0.60606
      9       0.00000           0.022273            0.60607
     10       0.00000           0.187361            5.09834
     11       0.00000           0.187361            5.09835
     12       0.00000           0.187361            5.09835
     13       0.00000           0.512731           13.95213
     14       0.00000           0.512732           13.95214
     15       0.00000           0.575366           15.65651
     16       0.00000           0.644349           17.53362
     17       0.00000           0.644349           17.53362
     18       0.00000           0.644349           17.53363
     19       0.00000           1.165845           31.72425
     20       0.00000           1.165845           31.72426
     21       0.00000           1.165845           31.72427
     22       0.00000           1.368137           37.22890
     23       0.00000           1.368138           37.22892
     24       0.00000           1.368138           37.22893
     25       0.00000           1.823251           49.61319
     26       0.00000           1.839326           50.05060
     27       0.00000           1.839328           50.05066
     28       0.00000           1.839330           50.05070
     29       0.00000           2.220334           60.41836
     30       0.00000           2.220334           60.41837
     31       0.00000           2.317887           63.07291
     32       0.00000           2.584843           70.33715
     33       0.00000           2.584843           70.33715
     34       0.00000           2.584843           70.33717

  Current spin moment of the entire structure :
  | N = N_up - N_down :    0.00
  | S                 :    0.00
  | J                 :    1.00

  Highest occupied state (VBM) at    -14.58981923 eV
  | Occupation number:      1.00000000
  | Spin channel:        2

  Lowest unoccupied state (CBM) at    -0.69970477 eV
  | Occupation number:      0.00000000
  | Spin channel:        1

  Overall HOMO-LUMO gap:     13.89011446 eV.
  Calculating total energy contributions from superposition of free atom densities.

  Total energy components:
  | Sum of eigenvalues            :         -25.24539047 Ha        -686.96202700 eV
  | XC energy correction          :          -6.49303258 Ha        -176.68440608 eV
  | XC potential correction       :           8.34049816 Ha         226.95650247 eV
  | Free-atom electrostatic energy:         -17.19600716 Ha        -467.92716267 eV
  | Hartree energy correction     :           0.00000000 Ha           0.00000000 eV
  | Entropy correction            :           0.00000000 Ha           0.00000000 eV
  | ---------------------------
  | Total energy                  :         -40.59393205 Ha       -1104.61709328 eV
  | Total energy, T -> 0          :         -40.59393205 Ha       -1104.61709328 eV  <-- do not rely on this value for anything but (periodic) metals
  | Electronic free energy        :         -40.59393205 Ha       -1104.61709328 eV

  Derived energy quantities:
  | Kinetic energy                :          39.16162238 Ha        1065.64196419 eV
  | Electrostatic energy          :         -73.26252185 Ha       -1993.57465138 eV
  | Energy correction for multipole
  | error in Hartree potential    :           0.00000000 Ha           0.00000000 eV
  | Sum of eigenvalues per atom                           :        -137.39240540 eV
  | Total energy (T->0) per atom                          :        -220.92341866 eV  <-- do not rely on this value for anything but (periodic) metals
  | Electronic free energy per atom                       :        -220.92341866 eV
  Initialize hartree_potential_storage
  Max. number of atoms included in rho_multipole:            5

  End scf initialization - timings             :  max(cpu_time)    wall_clock(cpu1)
  | Time for scf. initialization               :        0.045 s           0.063 s
  | Boundary condition initialization          :        0.000 s           0.000 s
  | Integration                                :        0.021 s           0.039 s
  | Solution of K.-S. eqns.                    :        0.005 s           0.005 s
  | Grid partitioning                          :        0.007 s           0.007 s
  | Preloading free-atom quantities on grid    :        0.002 s           0.002 s
  | Free-atom superposition energy             :        0.003 s           0.003 s
  | Total energy evaluation                    :        0.000 s           0.000 s

  Partial memory accounting:
  | Current value for overall tracked memory usage:
  |   Minimum:        0.032 MB (on task 3)
  |   Maximum:        0.034 MB (on task 0)
  |   Average:        0.033 MB
  | Peak value for overall tracked memory usage:
  |   Minimum:        0.155 MB (on task 3 after allocating wave)
  |   Maximum:        0.157 MB (on task 0 after allocating wave)
  |   Average:        0.156 MB
  | Largest tracked array allocation so far:
  |   Minimum:        0.053 MB (all_coords on task 1)
  |   Maximum:        0.093 MB (all_coords on task 0)
  |   Average:        0.073 MB
  Note:  These values currently only include a subset of arrays which are explicitly tracked.
  The "true" memory usage will be greater.
------------------------------------------------------------

------------------------------------------------------------
          Begin self-consistency iteration #    1

  Date     :  20190817, Time     :  154034.179
------------------------------------------------------------
  Evaluating new KS density.
  Integration grid: deviation in total charge (<rho> - N_e) =   0.000000E+00
  | <rho_up-rho_dn> = N_up-N_dn =     -0.0000; <|rho_up-rho_dn|> =      0.0041
  Pulay mixing of updated and previous charge densities.
  Renormalizing the density to the exact electron count on the 3D integration grid.
  | Formal number of electrons (from input files) :      10.0000000000
  | Integrated number of electrons on 3D grid     :      10.0000000000
  | Charge integration error                      :       0.0000000000
  | Normalization factor for density and gradient :       1.0000000000

  Evaluating partitioned Hartree potential by multipole expansion.
  | Original multipole sum: apparent total charge =  -0.716409E-14
  | Sum of charges compensated after spline to logarithmic grids =   0.500123E-03
  | Analytical far-field extrapolation by fixed multipoles:
  | Hartree multipole sum: apparent total charge =  -0.732398E-14
  Summing up the Hartree potential.
  Time summed over all CPUs for potential: real work        0.058 s, elapsed        0.059 s
  | RMS charge density error from multipole expansion :   0.222960E-02

  Integrating Hamiltonian matrix: batch-based integration.
  Time summed over all CPUs for integration: real work        0.079 s, elapsed        0.081 s

  Updating Kohn-Sham eigenvalues and eigenvectors using ELSI and the ELPA eigensolver.
  Starting ELPA eigensolver
  Finished transformation to standard eigenproblem
  | Time :     0.000 s
  Finished solving standard eigenproblem
  | Time :     0.001 s
  Finished back-transformation of eigenvectors
  | Time :     0.000 s
  Starting ELPA eigensolver
  Finished transformation to standard eigenproblem
  | Time :     0.000 s
  Finished solving standard eigenproblem
  | Time :     0.000 s
  Finished back-transformation of eigenvectors
  | Time :     0.000 s

  Obtaining occupation numbers and chemical potential using ELSI.
  | Chemical potential (Fermi level):    -3.10605702 eV
  Writing Kohn-Sham eigenvalues.

  Spin-up eigenvalues:

  State    Occupation    Eigenvalue [Ha]    Eigenvalue [eV]
      1       1.00000         -10.015976         -272.54858
      2       1.00000          -0.750694          -20.42742
      3       1.00000          -0.463235          -12.60525
      4       1.00000          -0.463234          -12.60524
      5       1.00000          -0.463234          -12.60524
      6       0.00000           0.007061            0.19215
      7       0.00000           0.065858            1.79209
      8       0.00000           0.065858            1.79209
      9       0.00000           0.065859            1.79210
     10       0.00000           0.224368            6.10537
     11       0.00000           0.224368            6.10537
     12       0.00000           0.224368            6.10537
     13       0.00000           0.567362           15.43869
     14       0.00000           0.567362           15.43870
     15       0.00000           0.616654           16.78001
     16       0.00000           0.691931           18.82841
     17       0.00000           0.691931           18.82841
     18       0.00000           0.691932           18.82842
     19       0.00000           1.205921           32.81478
     20       0.00000           1.205922           32.81480
     21       0.00000           1.205922           32.81480
     22       0.00000           1.418852           38.60894
     23       0.00000           1.418853           38.60896
     24       0.00000           1.418854           38.60897
     25       0.00000           1.885450           51.30570
     26       0.00000           1.891904           51.48134
     27       0.00000           1.891907           51.48140
     28       0.00000           1.891908           51.48144
     29       0.00000           2.290788           62.33552
     30       0.00000           2.290789           62.33553
     31       0.00000           2.369010           64.46405
     32       0.00000           2.657297           72.30873
     33       0.00000           2.657297           72.30873
     34       0.00000           2.657298           72.30875

  Spin-down eigenvalues:

  State    Occupation    Eigenvalue [Ha]    Eigenvalue [eV]
      1       1.00000         -10.015836         -272.54477
      2       1.00000          -0.749740          -20.40145
      3       1.00000          -0.462171          -12.57631
      4       1.00000          -0.462171          -12.57630
      5       1.00000          -0.462171          -12.57630
      6       0.00000           0.007671            0.20874
      7       0.00000           0.066699            1.81496
      8       0.00000           0.066699            1.81497
      9       0.00000           0.066699            1.81497
     10       0.00000           0.224919            6.12035
     11       0.00000           0.224919            6.12035
     12       0.00000           0.224919            6.12036
     13       0.00000           0.568347           15.46551
     14       0.00000           0.568347           15.46552
     15       0.00000           0.618035           16.81759
     16       0.00000           0.692805           18.85219
     17       0.00000           0.692806           18.85220
     18       0.00000           0.692806           18.85221
     19       0.00000           1.207249           32.85091
     20       0.00000           1.207249           32.85092
     21       0.00000           1.207249           32.85093
     22       0.00000           1.420020           38.64071
     23       0.00000           1.420021           38.64073
     24       0.00000           1.420021           38.64074
     25       0.00000           1.886160           51.32503
     26       0.00000           1.893110           51.51416
     27       0.00000           1.893112           51.51421
     28       0.00000           1.893114           51.51426
     29       0.00000           2.291802           62.36311
     30       0.00000           2.291803           62.36312
     31       0.00000           2.370285           64.49874
     32       0.00000           2.658366           72.33783
     33       0.00000           2.658366           72.33783
     34       0.00000           2.658367           72.33785

  Current spin moment of the entire structure :
  | N = N_up - N_down :    0.00
  | S                 :    0.00
  | J                 :    1.00

  Highest occupied state (VBM) at    -12.57630005 eV
  | Occupation number:      1.00000000
  | Spin channel:        2

  Lowest unoccupied state (CBM) at     0.19214922 eV
  | Occupation number:      0.00000000
  | Spin channel:        1

  Overall HOMO-LUMO gap:     12.76844926 eV.

  Total energy components:
  | Sum of eigenvalues            :         -24.30846091 Ha        -661.46687641 eV
  | XC energy correction          :          -6.60150609 Ha        -179.63612051 eV
  | XC potential correction       :           8.48117216 Ha         230.78443653 eV
  | Free-atom electrostatic energy:         -17.19600716 Ha        -467.92716267 eV
  | Hartree energy correction     :          -0.88596328 Ha         -24.10828758 eV
  | Entropy correction            :           0.00000000 Ha           0.00000000 eV
  | ---------------------------
  | Total energy                  :         -40.51076529 Ha       -1102.35401065 eV
  | Total energy, T -> 0          :         -40.51076529 Ha       -1102.35401065 eV  <-- do not rely on this value for anything but (periodic) metals
  | Electronic free energy        :         -40.51076529 Ha       -1102.35401065 eV

  Derived energy quantities:
  | Kinetic energy                :          39.74959853 Ha        1081.64160941 eV
  | Electrostatic energy          :         -73.65885773 Ha       -2004.35949955 eV
  | Energy correction for multipole
  | error in Hartree potential    :           0.00123513 Ha           0.03360947 eV
  | Sum of eigenvalues per atom                           :        -132.29337528 eV
  | Total energy (T->0) per atom                          :        -220.47080213 eV  <-- do not rely on this value for anything but (periodic) metals
  | Electronic free energy per atom                       :        -220.47080213 eV

  Self-consistency convergence accuracy:
  | Change of charge/spin density :  0.3239E+00  0.4960E-02
  | Change of sum of eigenvalues  :  0.2550E+02 eV
  | Change of total energy        :  0.2263E+01 eV

  End self-consistency iteration #     1       :  max(cpu_time)    wall_clock(cpu1)
  | Time for this iteration                    :        0.040 s           0.053 s
  | Charge density update                      :        0.015 s           0.028 s
  | Density mixing                             :        0.002 s           0.002 s
  | Hartree multipole update                   :        0.001 s           0.001 s
  | Hartree multipole summation                :        0.009 s           0.009 s
  | Integration                                :        0.010 s           0.011 s
  | Solution of K.-S. eqns.                    :        0.002 s           0.001 s
  | Total energy evaluation                    :        0.000 s           0.000 s

  Partial memory accounting:
  | Current value for overall tracked memory usage:
  |   Minimum:        0.032 MB (on task 3)
  |   Maximum:        0.034 MB (on task 0)
  |   Average:        0.033 MB
  | Peak value for overall tracked memory usage:
  |   Minimum:        0.155 MB (on task 3 after allocating wave)
  |   Maximum:        0.157 MB (on task 0 after allocating wave)
  |   Average:        0.156 MB
  | Largest tracked array allocation so far:
  |   Minimum:        0.065 MB (gradient_basis_wave on task 1)
  |   Maximum:        0.093 MB (gradient_basis_wave on task 0)
  |   Average:        0.079 MB
  Note:  These values currently only include a subset of arrays which are explicitly tracked.
  The "true" memory usage will be greater.
------------------------------------------------------------

------------------------------------------------------------
          Begin self-consistency iteration #    2

  Date     :  20190817, Time     :  154034.233
------------------------------------------------------------
  Evaluating new KS density.
  Integration grid: deviation in total charge (<rho> - N_e) =   5.329071E-15
  | <rho_up-rho_dn> = N_up-N_dn =      0.0000; <|rho_up-rho_dn|> =      0.0037
  Pulay mixing of updated and previous charge densities.
  Renormalizing the density to the exact electron count on the 3D integration grid.
  | Formal number of electrons (from input files) :      10.0000000000
  | Integrated number of electrons on 3D grid     :      10.0000000000
  | Charge integration error                      :       0.0000000000
  | Normalization factor for density and gradient :       1.0000000000

  Evaluating partitioned Hartree potential by multipole expansion.
  | Original multipole sum: apparent total charge =  -0.966076E-14
  | Sum of charges compensated after spline to logarithmic grids =   0.342480E-03
  | Analytical far-field extrapolation by fixed multipoles:
  | Hartree multipole sum: apparent total charge =  -0.982065E-14
  Summing up the Hartree potential.
  Time summed over all CPUs for potential: real work        0.057 s, elapsed        0.059 s
  | RMS charge density error from multipole expansion :   0.551595E-02

  Integrating Hamiltonian matrix: batch-based integration.
  Time summed over all CPUs for integration: real work        0.077 s, elapsed        0.080 s

  Updating Kohn-Sham eigenvalues and eigenvectors using ELSI and the ELPA eigensolver.
  Starting ELPA eigensolver
  Finished transformation to standard eigenproblem
  | Time :     0.000 s
  Finished solving standard eigenproblem
  | Time :     0.001 s
  Finished back-transformation of eigenvectors
  | Time :     0.000 s
  Starting ELPA eigensolver
  Finished transformation to standard eigenproblem
  | Time :     0.000 s
  Finished solving standard eigenproblem
  | Time :     0.000 s
  Finished back-transformation of eigenvectors
  | Time :     0.000 s

  Obtaining occupation numbers and chemical potential using ELSI.
  | Chemical potential (Fermi level):    -0.37139420 eV
  Current spin moment of the entire structure :
  | N = N_up - N_down :    0.00
  | S                 :    0.00
  | J                 :    1.00

  Highest occupied state (VBM) at    -10.41104168 eV
  | Occupation number:      1.00000000
  | Spin channel:        2

  Lowest unoccupied state (CBM) at     1.21768807 eV
  | Occupation number:      0.00000000
  | Spin channel:        1

  Overall HOMO-LUMO gap:     11.62872975 eV.

  Checking to see if s.c.f. parameters should be adjusted.

  Total energy components:
  | Sum of eigenvalues            :         -23.33212628 Ha        -634.89945951 eV
  | XC energy correction          :          -6.74305104 Ha        -183.48775463 eV
  | XC potential correction       :           8.66411105 Ha         235.76245714 eV
  | Free-atom electrostatic energy:         -17.19600716 Ha        -467.92716267 eV
  | Hartree energy correction     :          -1.86546204 Ha         -50.76180482 eV
  | Entropy correction            :           0.00000000 Ha           0.00000000 eV
  | ---------------------------
  | Total energy                  :         -40.47253547 Ha       -1101.31372449 eV
  | Total energy, T -> 0          :         -40.47253547 Ha       -1101.31372449 eV  <-- do not rely on this value for anything but (periodic) metals
  | Electronic free energy        :         -40.47253547 Ha       -1101.31372449 eV

  Derived energy quantities:
  | Kinetic energy                :          40.27956253 Ha        1096.06266360 eV
  | Electrostatic energy          :         -74.00904697 Ha       -2013.88863346 eV
  | Energy correction for multipole
  | error in Hartree potential    :           0.00319418 Ha           0.08691811 eV
  | Sum of eigenvalues per atom                           :        -126.97989190 eV
  | Total energy (T->0) per atom                          :        -220.26274490 eV  <-- do not rely on this value for anything but (periodic) metals
  | Electronic free energy per atom                       :        -220.26274490 eV

  Self-consistency convergence accuracy:
  | Change of charge/spin density :  0.2113E+00  0.3983E-02
  | Change of sum of eigenvalues  :  0.2657E+02 eV
  | Change of total energy        :  0.1040E+01 eV

  End self-consistency iteration #     2       :  max(cpu_time)    wall_clock(cpu1)
  | Time for this iteration                    :        0.029 s           0.030 s
  | Charge density update                      :        0.007 s           0.007 s
  | Density mixing                             :        0.002 s           0.002 s
  | Hartree multipole update                   :        0.001 s           0.001 s
  | Hartree multipole summation                :        0.008 s           0.008 s
  | Integration                                :        0.010 s           0.010 s
  | Solution of K.-S. eqns.                    :        0.002 s           0.001 s
  | Total energy evaluation                    :        0.000 s           0.000 s

  Partial memory accounting:
  | Current value for overall tracked memory usage:
  |   Minimum:        0.033 MB (on task 3)
  |   Maximum:        0.035 MB (on task 0)
  |   Average:        0.033 MB
  | Peak value for overall tracked memory usage:
  |   Minimum:        0.155 MB (on task 3 after allocating wave)
  |   Maximum:        0.157 MB (on task 0 after allocating wave)
  |   Average:        0.156 MB
  | Largest tracked array allocation so far:
  |   Minimum:        0.065 MB (gradient_basis_wave on task 1)
  |   Maximum:        0.093 MB (gradient_basis_wave on task 0)
  |   Average:        0.079 MB
  Note:  These values currently only include a subset of arrays which are explicitly tracked.
  The "true" memory usage will be greater.
------------------------------------------------------------

------------------------------------------------------------
          Begin self-consistency iteration #    3

  Date     :  20190817, Time     :  154034.263
------------------------------------------------------------
  Evaluating new KS density.
  Integration grid: deviation in total charge (<rho> - N_e) =   3.552714E-15
  | <rho_up-rho_dn> = N_up-N_dn =     -0.0000; <|rho_up-rho_dn|> =      0.0027
  Pulay mixing of updated and previous charge densities.
  Renormalizing the density to the exact electron count on the 3D integration grid.
  | Formal number of electrons (from input files) :      10.0000000000
  | Integrated number of electrons on 3D grid     :      10.0000000000
  | Charge integration error                      :       0.0000000000
  | Normalization factor for density and gradient :       1.0000000000

  Evaluating partitioned Hartree potential by multipole expansion.
  | Original multipole sum: apparent total charge =  -0.664139E-15
  | Sum of charges compensated after spline to logarithmic grids =   0.193592E-03
  | Analytical far-field extrapolation by fixed multipoles:
  | Hartree multipole sum: apparent total charge =  -0.221380E-15
  Summing up the Hartree potential.
  Time summed over all CPUs for potential: real work        0.056 s, elapsed        0.058 s
  | RMS charge density error from multipole expansion :   0.909457E-02

  Integrating Hamiltonian matrix: batch-based integration.
  Time summed over all CPUs for integration: real work        0.076 s, elapsed        0.078 s

  Updating Kohn-Sham eigenvalues and eigenvectors using ELSI and the ELPA eigensolver.
  Starting ELPA eigensolver
  Finished transformation to standard eigenproblem
  | Time :     0.000 s
  Finished solving standard eigenproblem
  | Time :     0.000 s
  Finished back-transformation of eigenvectors
  | Time :     0.000 s
  Starting ELPA eigensolver
  Finished transformation to standard eigenproblem
  | Time :     0.000 s
  Finished solving standard eigenproblem
  | Time :     0.000 s
  Finished back-transformation of eigenvectors
  | Time :     0.000 s

  Obtaining occupation numbers and chemical potential using ELSI.
  | Chemical potential (Fermi level):     0.26937043 eV
  Current spin moment of the entire structure :
  | N = N_up - N_down :    0.00
  | S                 :    0.00
  | J                 :    1.00

  Highest occupied state (VBM) at     -9.54301566 eV
  | Occupation number:      1.00000000
  | Spin channel:        2

  Lowest unoccupied state (CBM) at     1.66772563 eV
  | Occupation number:      0.00000000
  | Spin channel:        1

  Overall HOMO-LUMO gap:     11.21074129 eV.

  Total energy components:
  | Sum of eigenvalues            :         -23.08028265 Ha        -628.04644557 eV
  | XC energy correction          :          -6.81430477 Ha        -185.42666717 eV
  | XC potential correction       :           8.75470766 Ha         238.22771633 eV
  | Free-atom electrostatic energy:         -17.19600716 Ha        -467.92716267 eV
  | Hartree energy correction     :          -2.13073801 Ha         -57.98033129 eV
  | Entropy correction            :           0.00000000 Ha           0.00000000 eV
  | ---------------------------
  | Total energy                  :         -40.46662493 Ha       -1101.15289037 eV
  | Total energy, T -> 0          :         -40.46662493 Ha       -1101.15289037 eV  <-- do not rely on this value for anything but (periodic) metals
  | Electronic free energy        :         -40.46662493 Ha       -1101.15289037 eV

  Derived energy quantities:
  | Kinetic energy                :          40.29263491 Ha        1096.41838110 eV
  | Electrostatic energy          :         -73.94495507 Ha       -2012.14460430 eV
  | Energy correction for multipole
  | error in Hartree potential    :           0.00504049 Ha           0.13715877 eV
  | Sum of eigenvalues per atom                           :        -125.60928911 eV
  | Total energy (T->0) per atom                          :        -220.23057807 eV  <-- do not rely on this value for anything but (periodic) metals
  | Electronic free energy per atom                       :        -220.23057807 eV

  Self-consistency convergence accuracy:
  | Change of charge/spin density :  0.1148E+00  0.2433E-02
  | Change of sum of eigenvalues  :  0.6853E+01 eV
  | Change of total energy        :  0.1608E+00 eV

  End self-consistency iteration #     3       :  max(cpu_time)    wall_clock(cpu1)
  | Time for this iteration                    :        0.029 s           0.029 s
  | Charge density update                      :        0.007 s           0.007 s
  | Density mixing                             :        0.002 s           0.002 s
  | Hartree multipole update                   :        0.001 s           0.001 s
  | Hartree multipole summation                :        0.007 s           0.008 s
  | Integration                                :        0.010 s           0.009 s
  | Solution of K.-S. eqns.                    :        0.002 s           0.001 s
  | Total energy evaluation                    :        0.000 s           0.000 s

  Partial memory accounting:
  | Current value for overall tracked memory usage:
  |   Minimum:        0.033 MB (on task 3)
  |   Maximum:        0.035 MB (on task 0)
  |   Average:        0.033 MB
  | Peak value for overall tracked memory usage:
  |   Minimum:        0.155 MB (on task 3 after allocating wave)
  |   Maximum:        0.157 MB (on task 0 after allocating wave)
  |   Average:        0.156 MB
  | Largest tracked array allocation so far:
  |   Minimum:        0.065 MB (gradient_basis_wave on task 1)
  |   Maximum:        0.093 MB (gradient_basis_wave on task 0)
  |   Average:        0.079 MB
  Note:  These values currently only include a subset of arrays which are explicitly tracked.
  The "true" memory usage will be greater.
------------------------------------------------------------

------------------------------------------------------------
          Begin self-consistency iteration #    4

  Date     :  20190817, Time     :  154034.293
------------------------------------------------------------
  Evaluating new KS density.
  Integration grid: deviation in total charge (<rho> - N_e) =   3.552714E-15
  | <rho_up-rho_dn> = N_up-N_dn =      0.0000; <|rho_up-rho_dn|> =      0.0013
  Pulay mixing of updated and previous charge densities.
  Renormalizing the density to the exact electron count on the 3D integration grid.
  | Formal number of electrons (from input files) :      10.0000000000
  | Integrated number of electrons on 3D grid     :      10.0000000000
  | Charge integration error                      :      -0.0000000000
  | Normalization factor for density and gradient :       1.0000000000

  Evaluating partitioned Hartree potential by multipole expansion.
  | Original multipole sum: apparent total charge =  -0.782208E-14
  | Sum of charges compensated after spline to logarithmic grids =   0.162542E-03
  | Analytical far-field extrapolation by fixed multipoles:
  | Hartree multipole sum: apparent total charge =  -0.742237E-14
  Summing up the Hartree potential.
  Time summed over all CPUs for potential: real work        0.057 s, elapsed        0.059 s
  | RMS charge density error from multipole expansion :   0.987503E-02

  Integrating Hamiltonian matrix: batch-based integration.
  Time summed over all CPUs for integration: real work        0.078 s, elapsed        0.082 s

  Updating Kohn-Sham eigenvalues and eigenvectors using ELSI and the ELPA eigensolver.
  Starting ELPA eigensolver
  Finished transformation to standard eigenproblem
  | Time :     0.000 s
  Finished solving standard eigenproblem
  | Time :     0.000 s
  Finished back-transformation of eigenvectors
  | Time :     0.000 s
  Starting ELPA eigensolver
  Finished transformation to standard eigenproblem
  | Time :     0.001 s
  Finished solving standard eigenproblem
  | Time :     0.000 s
  Finished back-transformation of eigenvectors
  | Time :     0.000 s

  Obtaining occupation numbers and chemical potential using ELSI.
  | Chemical potential (Fermi level):     0.34949928 eV
  Current spin moment of the entire structure :
  | N = N_up - N_down :    0.00
  | S                 :    0.00
  | J                 :    1.00

  Highest occupied state (VBM) at     -9.40117206 eV
  | Occupation number:      1.00000000
  | Spin channel:        2

  Lowest unoccupied state (CBM) at     1.74417975 eV
  | Occupation number:      0.00000000
  | Spin channel:        1

  Overall HOMO-LUMO gap:     11.14535181 eV.

  Total energy components:
  | Sum of eigenvalues            :         -23.04665945 Ha        -627.13151172 eV
  | XC energy correction          :          -6.82626272 Ha        -185.75205951 eV
  | XC potential correction       :           8.76994084 Ha         238.64223230 eV
  | Free-atom electrostatic energy:         -17.19600716 Ha        -467.92716267 eV
  | Hartree energy correction     :          -2.16758039 Ha         -58.98286330 eV
  | Entropy correction            :           0.00000000 Ha           0.00000000 eV
  | ---------------------------
  | Total energy                  :         -40.46656887 Ha       -1101.15136491 eV
  | Total energy, T -> 0          :         -40.46656887 Ha       -1101.15136491 eV  <-- do not rely on this value for anything but (periodic) metals
  | Electronic free energy        :         -40.46656887 Ha       -1101.15136491 eV

  Derived energy quantities:
  | Kinetic energy                :          40.27189701 Ha        1095.85407405 eV
  | Electrostatic energy          :         -73.91220316 Ha       -2011.25337945 eV
  | Energy correction for multipole
  | error in Hartree potential    :           0.00529933 Ha           0.14420198 eV
  | Sum of eigenvalues per atom                           :        -125.42630234 eV
  | Total energy (T->0) per atom                          :        -220.23027298 eV  <-- do not rely on this value for anything but (periodic) metals
  | Electronic free energy per atom                       :        -220.23027298 eV

  Self-consistency convergence accuracy:
  | Change of charge/spin density :  0.1833E-01  0.7545E-03
  | Change of sum of eigenvalues  :  0.9149E+00 eV
  | Change of total energy        :  0.1525E-02 eV

  End self-consistency iteration #     4       :  max(cpu_time)    wall_clock(cpu1)
  | Time for this iteration                    :        0.030 s           0.029 s
  | Charge density update                      :        0.007 s           0.006 s
  | Density mixing                             :        0.002 s           0.002 s
  | Hartree multipole update                   :        0.001 s           0.001 s
  | Hartree multipole summation                :        0.008 s           0.008 s
  | Integration                                :        0.010 s           0.010 s
  | Solution of K.-S. eqns.                    :        0.002 s           0.002 s
  | Total energy evaluation                    :        0.000 s           0.000 s

  Partial memory accounting:
  | Current value for overall tracked memory usage:
  |   Minimum:        0.033 MB (on task 3)
  |   Maximum:        0.035 MB (on task 0)
  |   Average:        0.033 MB
  | Peak value for overall tracked memory usage:
  |   Minimum:        0.155 MB (on task 3 after allocating wave)
  |   Maximum:        0.157 MB (on task 0 after allocating wave)
  |   Average:        0.156 MB
  | Largest tracked array allocation so far:
  |   Minimum:        0.065 MB (gradient_basis_wave on task 1)
  |   Maximum:        0.093 MB (gradient_basis_wave on task 0)
  |   Average:        0.079 MB
  Note:  These values currently only include a subset of arrays which are explicitly tracked.
  The "true" memory usage will be greater.
------------------------------------------------------------

------------------------------------------------------------
          Begin self-consistency iteration #    5

  Date     :  20190817, Time     :  154034.323
------------------------------------------------------------
  Evaluating new KS density.
  Integration grid: deviation in total charge (<rho> - N_e) =  -5.329071E-15
  | <rho_up-rho_dn> = N_up-N_dn =     -0.0000; <|rho_up-rho_dn|> =      0.0009
  Pulay mixing of updated and previous charge densities.
  Renormalizing the density to the exact electron count on the 3D integration grid.
  | Formal number of electrons (from input files) :      10.0000000000
  | Integrated number of electrons on 3D grid     :      10.0000000000
  | Charge integration error                      :      -0.0000000000
  | Normalization factor for density and gradient :       1.0000000000

  Evaluating partitioned Hartree potential by multipole expansion.
  | Original multipole sum: apparent total charge =  -0.123481E-13
  | Sum of charges compensated after spline to logarithmic grids =   0.154726E-03
  | Analytical far-field extrapolation by fixed multipoles:
  | Hartree multipole sum: apparent total charge =  -0.127478E-13
  Summing up the Hartree potential.
  Time summed over all CPUs for potential: real work        0.057 s, elapsed        0.060 s
  | RMS charge density error from multipole expansion :   0.993320E-02

  Integrating Hamiltonian matrix: batch-based integration.
  Time summed over all CPUs for integration: real work        0.078 s, elapsed        0.080 s

  Updating Kohn-Sham eigenvalues and eigenvectors using ELSI and the ELPA eigensolver.
  Starting ELPA eigensolver
  Finished transformation to standard eigenproblem
  | Time :     0.000 s
  Finished solving standard eigenproblem
  | Time :     0.000 s
  Finished back-transformation of eigenvectors
  | Time :     0.000 s
  Starting ELPA eigensolver
  Finished transformation to standard eigenproblem
  | Time :     0.000 s
  Finished solving standard eigenproblem
  | Time :     0.000 s
  Finished back-transformation of eigenvectors
  | Time :     0.000 s

  Obtaining occupation numbers and chemical potential using ELSI.
  | Chemical potential (Fermi level):     0.33084777 eV
  Current spin moment of the entire structure :
  | N = N_up - N_down :    0.00
  | S                 :    0.00
  | J                 :    1.00

  Highest occupied state (VBM) at     -9.41337420 eV
  | Occupation number:      1.00000000
  | Spin channel:        2

  Lowest unoccupied state (CBM) at     1.74180199 eV
  | Occupation number:      0.00000000
  | Spin channel:        1

  Overall HOMO-LUMO gap:     11.15517619 eV.

  Total energy components:
  | Sum of eigenvalues            :         -23.05290660 Ha        -627.30150543 eV
  | XC energy correction          :          -6.82205566 Ha        -185.63757971 eV
  | XC potential correction       :           8.76473709 Ha         238.50063104 eV
  | Free-atom electrostatic energy:         -17.19600716 Ha        -467.92716267 eV
  | Hartree energy correction     :          -2.16031383 Ha         -58.78513024 eV
  | Entropy correction            :           0.00000000 Ha           0.00000000 eV
  | ---------------------------
  | Total energy                  :         -40.46654616 Ha       -1101.15074700 eV
  | Total energy, T -> 0          :         -40.46654616 Ha       -1101.15074700 eV  <-- do not rely on this value for anything but (periodic) metals
  | Electronic free energy        :         -40.46654616 Ha       -1101.15074700 eV

  Derived energy quantities:
  | Kinetic energy                :          40.23209637 Ha        1094.77104345 eV
  | Electrostatic energy          :         -73.87658687 Ha       -2010.28421074 eV
  | Energy correction for multipole
  | error in Hartree potential    :           0.00502038 Ha           0.13661144 eV
  | Sum of eigenvalues per atom                           :        -125.46030109 eV
  | Total energy (T->0) per atom                          :        -220.23014940 eV  <-- do not rely on this value for anything but (periodic) metals
  | Electronic free energy per atom                       :        -220.23014940 eV

  Self-consistency convergence accuracy:
  | Change of charge/spin density :  0.5872E-02  0.3647E-03
  | Change of sum of eigenvalues  : -0.1700E+00 eV
  | Change of total energy        :  0.6179E-03 eV

  End self-consistency iteration #     5       :  max(cpu_time)    wall_clock(cpu1)
  | Time for this iteration                    :        0.030 s           0.029 s
  | Charge density update                      :        0.007 s           0.006 s
  | Density mixing                             :        0.002 s           0.002 s
  | Hartree multipole update                   :        0.001 s           0.001 s
  | Hartree multipole summation                :        0.008 s           0.007 s
  | Integration                                :        0.010 s           0.011 s
  | Solution of K.-S. eqns.                    :        0.002 s           0.001 s
  | Total energy evaluation                    :        0.000 s           0.000 s

  Partial memory accounting:
  | Current value for overall tracked memory usage:
  |   Minimum:        0.033 MB (on task 3)
  |   Maximum:        0.035 MB (on task 0)
  |   Average:        0.033 MB
  | Peak value for overall tracked memory usage:
  |   Minimum:        0.155 MB (on task 3 after allocating wave)
  |   Maximum:        0.157 MB (on task 0 after allocating wave)
  |   Average:        0.156 MB
  | Largest tracked array allocation so far:
  |   Minimum:        0.065 MB (gradient_basis_wave on task 1)
  |   Maximum:        0.093 MB (gradient_basis_wave on task 0)
  |   Average:        0.079 MB
  Note:  These values currently only include a subset of arrays which are explicitly tracked.
  The "true" memory usage will be greater.
------------------------------------------------------------

------------------------------------------------------------
          Begin self-consistency iteration #    6

  Date     :  20190817, Time     :  154034.353
------------------------------------------------------------
  Evaluating new KS density.
  Integration grid: deviation in total charge (<rho> - N_e) =   1.776357E-15
  | <rho_up-rho_dn> = N_up-N_dn =      0.0000; <|rho_up-rho_dn|> =      0.0003
  Pulay mixing of updated and previous charge densities.
  Renormalizing the density to the exact electron count on the 3D integration grid.
  | Formal number of electrons (from input files) :      10.0000000000
  | Integrated number of electrons on 3D grid     :      10.0000000000
  | Charge integration error                      :       0.0000000000
  | Normalization factor for density and gradient :       1.0000000000

  Evaluating partitioned Hartree potential by multipole expansion.
  | Original multipole sum: apparent total charge =  -0.124895E-13
  | Sum of charges compensated after spline to logarithmic grids =   0.154661E-03
  | Analytical far-field extrapolation by fixed multipoles:
  | Hartree multipole sum: apparent total charge =  -0.121820E-13
  Summing up the Hartree potential.
  Time summed over all CPUs for potential: real work        0.058 s, elapsed        0.061 s
  | RMS charge density error from multipole expansion :   0.993684E-02

  Integrating Hamiltonian matrix: batch-based integration.
  Time summed over all CPUs for integration: real work        0.078 s, elapsed        0.082 s

  Updating Kohn-Sham eigenvalues and eigenvectors using ELSI and the ELPA eigensolver.
  Starting ELPA eigensolver
  Finished transformation to standard eigenproblem
  | Time :     0.000 s
  Finished solving standard eigenproblem
  | Time :     0.000 s
  Finished back-transformation of eigenvectors
  | Time :     0.001 s
  Starting ELPA eigensolver
  Finished transformation to standard eigenproblem
  | Time :     0.000 s
  Finished solving standard eigenproblem
  | Time :     0.000 s
  Finished back-transformation of eigenvectors
  | Time :     0.000 s

  Obtaining occupation numbers and chemical potential using ELSI.
  | Chemical potential (Fermi level):     0.33076447 eV
  Current spin moment of the entire structure :
  | N = N_up - N_down :    0.00
  | S                 :    0.00
  | J                 :    1.00

  Highest occupied state (VBM) at     -9.41317917 eV
  | Occupation number:      1.00000000
  | Spin channel:        2

  Lowest unoccupied state (CBM) at     1.74192248 eV
  | Occupation number:      0.00000000
  | Spin channel:        1

  Overall HOMO-LUMO gap:     11.15510165 eV.

  Total energy components:
  | Sum of eigenvalues            :         -23.05291917 Ha        -627.30184730 eV
  | XC energy correction          :          -6.82209267 Ha        -185.63858672 eV
  | XC potential correction       :           8.76478336 Ha         238.50189010 eV
  | Free-atom electrostatic energy:         -17.19600716 Ha        -467.92716267 eV
  | Hartree energy correction     :          -2.16031082 Ha         -58.78504836 eV
  | Entropy correction            :           0.00000000 Ha           0.00000000 eV
  | ---------------------------
  | Total energy                  :         -40.46654645 Ha       -1101.15075494 eV
  | Total energy, T -> 0          :         -40.46654645 Ha       -1101.15075494 eV  <-- do not rely on this value for anything but (periodic) metals
  | Electronic free energy        :         -40.46654645 Ha       -1101.15075494 eV

  Derived energy quantities:
  | Kinetic energy                :          40.23208658 Ha        1094.77077712 eV
[...]
 | i_freq   95           61.525277
 | i_freq   96           90.280309
 | i_freq   97          144.953213
 | i_freq   98          269.415349
 | i_freq   99          662.608268
 | i_freq  100         3492.666343
 --------------------------------------------
 
  Analytical continuation (Pade approximation) starts...
 
  Quasi particle energy calculation using analytic continuation starts...
  Printing out the self-energy matrix element:           5
 
------------------------------------------------------------------------------------------------------
 
  Self-consistent quasi particle energy calculation with contour deformation starts...
 
 ------------------------------------------------------------
  Start contour deformation for level:      7    Spin up
 ------------------------------------------------------------
  Step:    4
  Step:    5
  Step:    6
  Step:    7
  Step:    8
  Step:    9
  Step:   10
  Step:   11
  Step:   12
  Step:   13
  Step:   14
 
 ------------------------------------------------------------
  Start contour deformation for level:      4    Spin down
 ------------------------------------------------------------
  Step:    1
  Step:    2
  Step:    3
  Step:    4
  Step:    5
  Step:    6
  Step:    7
  Step:    8
  Step:    9
  Step:   10
  Step:   11
  Step:   12
  Step:   13
 
 ------------------------------------------------------------
  Start contour deformation for level:      5    Spin down
 ------------------------------------------------------------
  Step:    1
  Step:    2
  Step:    3
  Step:    4
  Step:    5
  Step:    6
  Step:    7
  Step:    8
  Step:    9
  Step:   10
  Step:   11
  Step:   12
  Step:   13
 
------------------------------------------------------------------------------------------------------
               GW quasi-particle energy levels
 
               Start contour deformation at level:      6
               End contour deformation at level:        7
 
               e_qp = e_gs + e_x^ex - e_xc^gs + e_c^nloc
 
  state     occ_num        e_gs        e_x^ex        e_xc^gs        e_c^nloc        e_qp
------------------------------------------------------------------------------------------------------
                                   Spin Up
------------------------------------------------------------------------------------------------------
       1    1.0000     -268.4079      -96.8944      -61.5569        9.6708     -294.0745
       2    1.0000      -17.0032      -24.0371      -15.6325        4.4842      -20.9236
       3    1.0000       -9.4138      -19.1987      -14.0206        0.9613      -13.6305
       4    1.0000       -9.4138      -19.1987      -14.0206        0.9613      -13.6305
       5    1.0000       -9.4137      -19.1987      -14.0206        0.9613      -13.6305
       6    0.0000        1.7417       -3.1808       -7.4106       -0.9561        5.0156
       7    0.0000        3.8295       -3.8412       -8.8737       -1.2676        7.5944
       8    0.0000        3.8295       -3.8412       -8.8737       -1.2677        7.5944
       9    0.0000        3.8295       -3.8412       -8.8737       -1.2677        7.5944
      10    0.0000        7.8921       -3.1357       -8.2633       -1.2239       11.7958
      11    0.0000        7.8921       -3.1357       -8.2633       -1.2239       11.7958
      12    0.0000        7.8921       -3.1357       -8.2633       -1.2239       11.7958
      13    0.0000       18.0971       -4.4532      -11.6090       -1.7316       23.5213
      14    0.0000       18.0971       -4.4532      -11.6090       -1.7316       23.5213
      15    0.0000       19.2926       -4.4558      -12.7787       -3.6517       23.9638
      16    0.0000       21.1977       -4.1225      -11.8264       -4.4214       24.4801
      17    0.0000       21.1977       -4.1225      -11.8264       -4.4214       24.4802
      18    0.0000       21.1977       -4.1225      -11.8264       -4.4214       24.4802
      19    0.0000       35.1744       -2.5824      -11.1589       -2.9038       40.8470
      20    0.0000       35.1744       -2.5824      -11.1589       -2.9038       40.8470
      21    0.0000       35.1744       -2.5824      -11.1589       -2.9038       40.8470
      22    0.0000       41.2491       -2.9955      -12.1753       -1.9577       48.4712
      23    0.0000       41.2492       -2.9955      -12.1753       -1.9569       48.4721
      24    0.0000       41.2492       -2.9955      -12.1753       -1.9574       48.4715
      25    0.0000       53.9818       -3.2051      -11.8596       -2.0361       60.6001
      26    0.0000       54.2281       -2.5949      -12.6303       -1.8991       62.3643
      27    0.0000       54.2281       -2.5949      -12.6303       -1.8991       62.3644
      28    0.0000       54.2282       -2.5949      -12.6303       -1.8991       62.3644
      29    0.0000       65.5025       -2.8005      -13.8601       -2.2901       74.2720
      30    0.0000       65.5025       -2.8005      -13.8601       -2.2901       74.2720
      31    0.0000       67.3730       -3.2582      -13.9615       -2.2747       75.8016
      32    0.0000       75.5774       -3.2643      -15.2355       -3.8077       83.7408
      33    0.0000       75.5774       -3.2643      -15.2355       -3.8077       83.7408
      34    0.0000       75.5774       -3.2643      -15.2355       -3.8077       83.7409
------------------------------------------------------------------------------------------------------
               Start contour deformation at level:      4
               End contour deformation at level:        5
------------------------------------------------------------------------------------------------------
                                   Spin Down
------------------------------------------------------------------------------------------------------
       1    1.0000     -268.4079      -96.8944      -61.5569        9.6672     -294.0781
       2    1.0000      -17.0032      -24.0371      -15.6325        4.4842      -20.9236
       3    1.0000       -9.4138      -19.1987      -14.0206        0.9613      -13.6305
       4    1.0000       -9.4138      -19.1987      -14.0206        0.9613      -13.6306
       5    1.0000       -9.4137      -19.1987      -14.0206        0.9613      -13.6306
       6    0.0000        1.7417       -3.1808       -7.4106       -0.9561        5.0154
       7    0.0000        3.8295       -3.8412       -8.8737       -1.2677        7.5944
       8    0.0000        3.8295       -3.8412       -8.8737       -1.2677        7.5944
       9    0.0000        3.8295       -3.8412       -8.8737       -1.2677        7.5944
      10    0.0000        7.8921       -3.1357       -8.2633       -1.2239       11.7958
      11    0.0000        7.8921       -3.1357       -8.2633       -1.2239       11.7958
      12    0.0000        7.8921       -3.1357       -8.2633       -1.2239       11.7958
      13    0.0000       18.0971       -4.4532      -11.6090       -1.7316       23.5213
      14    0.0000       18.0971       -4.4532      -11.6090       -1.7316       23.5213
      15    0.0000       19.2926       -4.4558      -12.7787       -3.6524       23.9631
      16    0.0000       21.1977       -4.1225      -11.8264       -4.4214       24.4802
      17    0.0000       21.1977       -4.1225      -11.8264       -4.4214       24.4802
      18    0.0000       21.1977       -4.1225      -11.8264       -4.4214       24.4802
      19    0.0000       35.1744       -2.5824      -11.1589       -2.9038       40.8470
      20    0.0000       35.1744       -2.5824      -11.1589       -2.9038       40.8470
      21    0.0000       35.1744       -2.5824      -11.1589       -2.9038       40.8470
      22    0.0000       41.2491       -2.9955      -12.1753       -1.9573       48.4716
      23    0.0000       41.2492       -2.9955      -12.1753       -1.9571       48.4718
      24    0.0000       41.2492       -2.9955      -12.1753       -1.9574       48.4716
      25    0.0000       53.9818       -3.2051      -11.8596       -2.0361       60.6001
      26    0.0000       54.2281       -2.5949      -12.6303       -1.8991       62.3643
      27    0.0000       54.2281       -2.5949      -12.6303       -1.8991       62.3644
      28    0.0000       54.2282       -2.5949      -12.6303       -1.8991       62.3644
      29    0.0000       65.5025       -2.8005      -13.8601       -2.2901       74.2720
      30    0.0000       65.5025       -2.8005      -13.8601       -2.2901       74.2720
      31    0.0000       67.3730       -3.2582      -13.9615       -2.2747       75.8016
      32    0.0000       75.5774       -3.2643      -15.2355       -3.8077       83.7408
      33    0.0000       75.5774       -3.2643      -15.2355       -3.8077       83.7408
      34    0.0000       75.5774       -3.2643      -15.2355       -3.8077       83.7409
------------------------------------------------------------------------------------------------------
 
   DFT/Hartree-Fock HOMO level (eV):    -9.4137   -9.4137
 
   Quasiparticle HOMO level (eV):      -13.6305  -13.6306
 
------------------------------------------------------------------------------------------------------
 
  State is not included in contour deformation; won't print 5 for spin 1
  Printing out the self-energy matrix element:  5 for spin  2
 
------------------------------------------------------------------------------------------------------
 
          | Total time for transforming the 3-center integrals :        0.002 s
          | Total time for calculating the exchange-correlation
                                  energy matrix elements   :        0.009 s
          | Total time for calculating polarisability     
                        for imaginary frequencies          :        0.029 s
          | Total time for calculating self energy 
                        on imaginary frequency axis        :        0.232 s
          | Total time for calculating the quasiparticle 
                  energies with analytic continuation      :        0.000 s
          | Total time for calculating the quasiparticle 
                  energies with contour deformation        :        0.351 s
  |------------------------------------------------------
  | Final ELSI Output
  |------------------------------------------------------
  |
  | Physical Properties
  |   Number of electrons       :        0.10000000E+02
  |   Number of spins           :                     1
  |   Number of k-points        :                     1
  |   Number of states          :                    34
  |
  | Matrix Properties
  |   Matrix format             :           BLACS_DENSE
  |   Number of basis functions :                    34
  |   Matrix sparsity           :        0.00000000E+00
  |
  | Computational Details
  |   Parallel mode             :            MULTI_PROC
  |   Number of MPI tasks       :                     8
  |   Solver requested          :                  ELPA
  |   Number of ELSI calls      :                    24
  |
  |------------------------------------------------------
  | ELSI Project (c)  elsi-interchange.org
  |------------------------------------------------------

------------------------------------------------------------------------------
  Final output of selected total energy values:

  The following output summarizes some interesting total energy values
  at the end of a run (AFTER all relaxation, molecular dynamics, etc.).

  | Total energy of the DFT / Hartree-Fock s.c.f. calculation      :          -1101.150763179 eV
  | Final zero-broadening corrected energy (caution - metals only) :          -1101.150763179 eV
  | For reference only, the value of 1 Hartree used in FHI-aims is :             27.211384500 eV

  Before relying on these values, please be sure to understand exactly which
  total energy value is referred to by a given number. Different objects may
  all carry the same name 'total energy'. Definitions:

  Total energy of the DFT / Hartree-Fock s.c.f. calculation:
  | Note that this energy does not include ANY quantities calculated after the
  | s.c.f. cycle, in particular not ANY RPA, MP2, etc. many-body perturbation terms.

  Final zero-broadening corrected energy:
  | For metallic systems only, a broadening of the occupation numbers at the Fermi
  | level can be extrapolated back to zero broadening by an electron-gas inspired
  | formula. For all systems that are not real metals, this value can be
  | meaningless and should be avoided.

------------------------------------------------------------------------------
  Methods described in the following list of references were used in this FHI-aims run.
  If you publish the results, please make sure to cite these reference if they apply.
  FHI-aims is an academic code, and for our developers (often, Ph.D. students
  and postdocs), scientific credit in the community is essential.
  Thank you for helping us!

  For any use of FHI-aims, please cite:

    Volker Blum, Ralf Gehrke, Felix Hanke, Paula Havu, Ville Havu,
    Xinguo Ren, Karsten Reuter, and Matthias Scheffler
    'Ab initio molecular simulations with numeric atom-centered orbitals'
    Computer Physics Communications 180, 2175-2196 (2009)
    http://dx.doi.org/10.1016/j.cpc.2009.06.022


  For Hartree-Fock, hybrid functionals, or many-body perturbation theory used in your run, please cite:

    Xinguo Ren, Patrick Rinke, Volker Blum, Juergen Wieferink, Alex Tkatchenko,
    Andrea Sanfilippo, Karsten Reuter, and Matthias Scheffler,
    'Resolution-of-identity approach to Hartree-Fock, hybrid density functionals,
    RPA, MP2, and GW with numeric atom-centered orbital basis functions'
    New Journal of Physics 14, 053020 (2012).
    http://dx.doi.org/10.1088/1367-2630/14/5/053020


  The ELSI infrastructure was used in your run to solve the Kohn-Sham electronic structure.
  Please check out http://elsi-interchange.org to learn more.
  If scalability is important for your project, please acknowledge ELSI by citing:

    V. W-z. Yu, F. Corsetti, A. Garcia, W. P. Huhn, M. Jacquelin, W. Jia,
    B. Lange, L. Lin, J. Lu, W. Mi, A. Seifitokaldani, A. Vazquez-Mayagoitia,
    C. Yang, H. Yang, and V. Blum
    'ELSI: A unified software interface for Kohn-Sham electronic structure solvers'
    Computer Physics Communications 222, 267-285 (2018).
    http://dx.doi.org/10.1016/j.cpc.2017.09.007


  For the real-space grid partitioning and parallelization used in this calculation, please cite:

    Ville Havu, Volker Blum, Paula Havu, and Matthias Scheffler,
    'Efficient O(N) integration for all-electron electronic structure calculation'
    'using numerically tabulated basis functions'
    Journal of Computational Physics 228, 8367-8379 (2009).
    http://dx.doi.org/10.1016/j.jcp.2009.08.008

  Of course, there are many other important community references, e.g., those cited in the
  above references. Our list is limited to references that describe implementations in the
  FHI-aims code. The reason is purely practical (length of this list) - please credit others as well.

 * Warning - angular integration grids had to be adjusted for use with RI_method 'V'.
 * Background: You are using an electronic structure method that requires RI_method 'V'
 * for the resolution of identity of the Coulomb operator. (See Ren et al.,
 * New J. Phys 2012 for details.) This method requires three-center integrations
 * to be carried out on FHI-aims' normal angular and radial integration grids.
 * (See FHI-aims CPC Blum et al. 2009, p. 2183 for grid details and references.)
 * One of the angular grids specified in your control.in file was not large
 * enough for the maximal angular momenta of orbital and product basis functions
 * for its species.
 * This can lead to atomic total energy errors which cancel in energy differences.
 * Effective Sep 22, 2014, we have changed the default behavior of the code to
 * simply 'upgrade' the angular grids internally to a safe setting in this case.
 * Please be sure to NOT mix total energies from before and after the change.

------------------------------------------------------------
          Leaving FHI-aims.
          Date     :  20190817, Time     :  154035.760

          Computational steps:
          | Number of self-consistency cycles          :           11
          | Number of SCF (re)initializations          :            1

          Detailed time accounting                     :  max(cpu_time)    wall_clock(cpu1)
          | Total time                                 :        1.667 s           1.899 s
          | Preparation time                           :        0.194 s           0.194 s
          | Boundary condition initalization           :        0.000 s           0.000 s
          | Grid partitioning                          :        0.007 s           0.007 s
          | Preloading free-atom quantities on grid    :        0.002 s           0.002 s
          | Free-atom superposition energy             :        0.003 s           0.003 s
          | Total time for integrations                :        0.133 s           0.152 s
          | Product basis setup: Total time            :        0.000 s           0.000 s
          | Product basis: | 3-center integrations     :(       0.100 s)  (       0.120 s)
          | Product basis: | 2-center integrations     :(       0.069 s)  (       0.128 s)
          | Product basis: | 2-center linear algebra   :(       0.009 s)  (       0.012 s)
          | Product basis: | 3-center x 2-center       :(       0.002 s)  (       0.002 s)
          | Transforming ovlp_3fn to ovlp_3KS          :        0.002 s           0.002 s
          | Total time for GW calculation              :        0.834 s           0.932 s
          | GW self-energy (analytic cont.)            :        0.261 s           0.262 s
          | Screened Coulomb matrix W_mn(iw)           :        0.233 s           0.233 s
          | Polarisability matrix Pi_PQ(iw)            :        0.029 s           0.029 s
          | Contour def: | Solving qp equations        :        0.351 s           0.396 s
          | Contour def: | GW self-energy              :        0.530 s           0.525 s
          | Contour def: | Scr Coulomb matrix W_mn(w)  :        0.475 s           0.475 s
          | Contour def: | Scr aux Coulomb mat W_PQ(w) :        0.475 s           0.475 s
          | Contour def: | Polarisability Pi_PQ(w)     :        0.475 s           0.475 s
          | Contour def: | Printing self-energy CD     :        0.182 s           0.183 s
          | Total time for solution of K.-S. equations :        0.023 s           0.019 s
          | Total time for density update              :        0.084 s           0.094 s
          | Total time for mixing                      :        0.022 s           0.023 s
          | Total time for Hartree multipole update    :        0.012 s           0.011 s
          | Total time for Hartree multipole sum       :        0.085 s           0.086 s
          | Total time for total energy evaluation     :        0.001 s           0.000 s

          Partial memory accounting:
          | Residual value for overall tracked memory usage across tasks:     0.000000 MB (should be 0.000000 MB)
          | Peak values for overall tracked memory usage:
          |   Minimum:        0.155 MB (on task 3 after allocating wave)
          |   Maximum:        0.157 MB (on task 0 after allocating wave)
          |   Average:        0.156 MB
          | Largest tracked array allocation:
          |   Minimum:        0.065 MB (gradient_basis_wave on task 1)
          |   Maximum:        0.093 MB (gradient_basis_wave on task 0)
          |   Average:        0.079 MB
          Note:  These values currently only include a subset of arrays which are explicitly tracked.
          The "true" memory usage will be greater.

          Have a nice day.
------------------------------------------------------------
