  MPI-parallelism will be employed.
------------------------------------------------------------
          Invoking FHI-aims ...

          When using FHI-aims, please cite the following reference:

          Volker Blum, Ralf Gehrke, Felix Hanke, Paula Havu,
          Ville Havu, Xinguo Ren, Karsten Reuter, and Matthias Scheffler,
          'Ab Initio Molecular Simulations with Numeric Atom-Centered Orbitals',
          Computer Physics Communications 180, 2175-2196 (2009)

          For any questions about FHI-aims, please visit the aimsclub website
          with its forums and wiki. Contributions to both the forums and the
          wiki are warmly encouraged - they are for you, and everyone is welcome there.

------------------------------------------------------------



  Date     :  20190817, Time     :  154225.667
  Time zero on CPU 1             :   0.285620000000000E-01  s.
  Internal wall clock time zero  :           335288545.667  s.

  FHI-aims created a unique identifier for this run for later identification
  aims_uuid : 7CE0151D-D357-4450-A813-DCD76DEB3447

  Build configuration of the current instance of FHI-aims
  -------------------------------------------------------
  FHI-aims version      : 190813
  Commit number         : 3da7baeb3
  CMake host system     : Linux-4.4.180-94.97-default
  CMake version         : 3.5.2
  Fortran compiler      : /mpcdf/soft/SLE_12_SP3/packages/x86_64/intel_parallel_studio/2018.4/compilers_and_libraries_2018.5.274/linux/mpi/bin64/mpiifort (Intel) version 18.0.5.20180823
  Fortran compiler flags: -O3 -ip -fp-model precise
  C compiler            : /mpcdf/soft/SLE_12_SP3/packages/skylake/intel/18.0.5/bin/icc (Intel) version 18.0.5.20180823
  C compiler flags      : -O3 -ip -fp-model precise
  Architecture          :
  Using MPI
  Using Scalapack
  Using C files
  Using SPGlib
  Using i-PI
  Linking against: /mpcdf/soft/SLE_12_SP3/packages/x86_64/anaconda/3.5.1.0/lib/libmkl_intel_lp64.so
                   /mpcdf/soft/SLE_12_SP3/packages/x86_64/anaconda/3.5.1.0/lib/libmkl_sequential.so
                   /mpcdf/soft/SLE_12_SP3/packages/x86_64/anaconda/3.5.1.0/lib/libmkl_core.so
                   /mpcdf/soft/SLE_12_SP3/packages/x86_64/anaconda/3.5.1.0/lib/libmkl_blacs_intelmpi_lp64.so
                   /mpcdf/soft/SLE_12_SP3/packages/x86_64/anaconda/3.5.1.0/lib/libmkl_scalapack_lp64.so

  Using        8 parallel tasks.
  Task        0 on host co1631 reporting.
  Task        1 on host co1631 reporting.
  Task        2 on host co1631 reporting.
  Task        3 on host co1631 reporting.
  Task        4 on host co1631 reporting.
  Task        5 on host co1631 reporting.
  Task        6 on host co1631 reporting.
  Task        7 on host co1631 reporting.

  Performing system and environment tests:
  | Environment variable OMP_NUM_THREADS correctly set to 1.
  | Maximum stacksize for task 0: unlimited
  | Maximum stacksize for task 1: unlimited
  | Maximum stacksize for task 2: unlimited
  | Maximum stacksize for task 3: unlimited
  | Maximum stacksize for task 4: unlimited
  | Maximum stacksize for task 5: unlimited
  | Maximum stacksize for task 6: unlimited
  | Maximum stacksize for task 7: unlimited
  | Current stacksize for task 0: unlimited
  | Current stacksize for task 1: unlimited
  | Current stacksize for task 2: unlimited
  | Current stacksize for task 3: unlimited
  | Current stacksize for task 4: unlimited
  | Current stacksize for task 5: unlimited
  | Current stacksize for task 6: unlimited
  | Current stacksize for task 7: unlimited
  | Checking for scalapack...
  | Testing pdtran()...
  | All pdtran() tests passed.

  Obtaining array dimensions for all initial allocations:
  
  -----------------------------------------------------------------------
  Parsing control.in (first pass over file, find array dimensions only).
  The contents of control.in will be repeated verbatim below
  unless switched off by setting 'verbatim_writeout .false.' .
  in the first line of control.in .
  -----------------------------------------------------------------------
  
  #  Volker Blum, FHI 2008 : Input file for FHI-aims.
  #
  #
    xc               mp2
      use_logsbt .true.
    spin             none
    atomic_solver_xc  kli
    relativistic zora scalar 1e-12   # modified after nonrelativistic Cu no
                                     # longer endorsed.
  #
  #  KS_method        lapack
      empty_states     500  # need all states for MP2 !!
      basis_threshold  0.e-5
  #
    occupation_type  gaussian 0.001
    mixer            linear
      ini_linear_mixing 0
      charge_mix_param  0.6
    sc_accuracy_rho  1E-4
    sc_accuracy_eev  1E-3
    sc_accuracy_etot 1E-5
    sc_iter_limit    100
  #
    auxil_basis     full
  #
  ################################################################################
  #
  #  FHI-aims code project
  #  VB, Fritz-Haber Institut, 2007
  #
  #  Suggested "safe" defaults for Cu atom (to be pasted into control.in file)
  #  All values have been tested for a non-relativistic, non-spinpolarized Cu2
  #  molecule using the PW-LDA functional. Validity for PBE is expected.
  #
  #  Constructed for dimers: 1.8, 2.2, 3.0, 4.0 Ang
  #
  ################################################################################
    species        Cu
      nucleus      29
      cut_pot      4.0  2.0  1.0
      cut_free_atom       finite 8.0
      logarithmic  0.000100 100.00  1.0123
      radial_base        53 7.0
      radial_multiplier  2
      angular_grids       specified
        division   0.7212  110
        division   0.9907  194
        division   1.1992  302
        division   1.6856  434
  #      division   1.8201  590
  #      division   1.8921  770
  #      division   2.4078  974
  #      outer_grid   974
        outer_grid   434
      l_hartree    6
  ################################################################################
  #
  #  Definition of "minimal" basis
  #
  ################################################################################
  #     valence basis states
      valence      4  s   1.
      valence      3  p   6.
      valence      3  d  10.
  #     ion occupancy
      ion_occ      4  s   0.
      ion_occ      3  p   6.
      ion_occ      3  d   9.
  ################################################################################
  #
  #  Suggested additional basis functions. For production calculations,
  #  uncomment them one after another (the most important basis functions are
  #  listed first).
  #
  #  Comments - basis sequence as generated automatically
  #
  ################################################################################
  #  "First tier" - improvements: -211.42 meV to -9.17 meV
       ionic 4 p 9.4486
       hydro 4 f 7.4
       hydro 3 s 2.6
       hydro 3 d 5
       hydro 5 g 10.4
  #  "Second tier" - improvements: -2.49 meV to -1.08 meV
  #     hydro 4 p 5.8
  #     hydro 3 d 2.7
  #     hydro 6 h 15.2
  #     hydro 5 s 10.8
  #     hydro 4 f 16
  #  "Third tier" - improvements: -0.50 meV to -0.21 meV
  #     hydro 4 d 6
  #     hydro 3 p 2.4
  #     hydro 4 f 6.4
  #     hydro 3 s 6.8
  #     hydro 5 g 11.2
  #  "Fourth tier" - improvements: -0.13 meV to -0.05 meV
  #     hydro 4 p 7
  #     hydro 4 s 4
  #     hydro 6 h 14
  #     hydro 4 d 8.6
  #     hydro 5 f 15.2
  
  
  -----------------------------------------------------------------------
  Completed first pass over input file control.in .
  -----------------------------------------------------------------------
  
  
  -----------------------------------------------------------------------
  Parsing geometry.in (first pass over file, find array dimensions only).
  The contents of geometry.in will be repeated verbatim below
  unless switched off by setting 'verbatim_writeout .false.' .
  in the first line of geometry.in .
  -----------------------------------------------------------------------
  
  # Geometry for cluster Cu2
  atom         0.0       0.0     0.0         Cu
  atom         2.51235    0.0     0.0         Cu
  
  -----------------------------------------------------------------------
  Completed first pass over input file geometry.in .
  -----------------------------------------------------------------------
  

  Basic array size parameters:
  | Number of species                 :        1
  | Number of atoms                   :        2
  | Max. basis fn. angular momentum   :        4
  | Max. atomic/ionic basis occupied n:        4
  | Max. number of basis fn. types    :        3
  | Max. radial fns per species/type  :        7
  | Max. logarithmic grid size        :     1406
  | Max. radial integration grid size :      107
  | Max. angular integration grid size:      434
  | Max. angular grid division number :        8
  | Radial grid for Hartree potential :     1406
  | Number of spin channels           :        1

------------------------------------------------------------
          Reading file control.in.
------------------------------------------------------------
 
  Hartree-Fock calculation starts ...... 
  MP2 will start after the HF calculation. 
  Attention: this is just the experimental version.
  Be careful with the results you obtain! 
 
  Using 1D integrations for auxiliary 2-center integrals.
  Spin treatment: No spin polarisation.
  Atomic Solver XC: Using Krieger-Li-Iafrate (KLI) for generating the minimal NAO basis functions.
  Scalar relativistic treatment of kinetic energy: ZORA.
  Threshold value for ZORA:   0.100000E-11
  Number of empty states per atom:      500
  Threshold for basis singularities:  0.0000E+00
  Occupation type: Gaussian broadening, width =   0.100000E-02 eV.
  Using linear charge density mixing.
  Number of initial iterations with linear charge density mixing:     0
  Charge density mixing - mixing parameter:     0.6000
  Convergence accuracy of self-consistent charge density:  0.1000E-03
  Convergence accuracy of sum of eigenvalues:  0.1000E-02
  Convergence accuracy of total energy:  0.1000E-04
  Maximum number of s.-c. iterations  :   100
  Full auxiliary basis is used.
 
  Reading configuration options for species Cu                  .
  | Found nuclear charge :  29.0000
  | Found cutoff potl. onset [A], width [A], scale factor :    4.00000    2.00000    1.00000
  | Found cutoff specification for free atom: Cutoff potential begins at    8.00000 A.
  | Found logarithmic grid data [bohr] : 0.1000E-03 0.1000E+03 0.1012E+01
  | Found data for basic radial integration grid :    53 points, outermost radius =    7.000 A
  | Found multiplier for basic radial grid :   2
  | Found angular grid specification: user-specified.
  | Specified grid contains     5 separate shells.
  | Check grid settings after all constraints further below.
  | Found l_max for Hartree potential  :   6
  | Found free-atom valence shell :  4 s   1.000
  | Found free-atom valence shell :  3 p   6.000
  | Found free-atom valence shell :  3 d  10.000
  | Found free-ion valence shell :  4 s   0.000
  | Found free-ion valence shell :  3 p   6.000
  | Found free-ion valence shell :  3 d   9.000
  | Found ionic basis function :  4 p   9.449
  | Found hydrogenic basis function :  4 f   7.400
  | Found hydrogenic basis function :  3 s   2.600
  | Found hydrogenic basis function :  3 d   5.000
  | Found hydrogenic basis function :  5 g  10.400
  Species Cu                  : Missing cutoff potential type.
  Defaulting to exp(1/x)/(1-x)^2 type cutoff potential.
  | Will include ionic basis functions of  2.0-fold positive Cu                   ion.
  Species Cu: On-site basis accuracy parameter (for Gram-Schmidt orthonormalisation) not specified.
  Using default value basis_acc =  0.1000000E-03.
  Species Cu                  : Using default innermost maximum threshold i_radial=  2 for radial functions.
  Species Cu                  : Basic radial grid will be enhanced according to radial_multiplier =   2, to contain   107 grid points.
 
  Finished reading input file 'control.in'. Consistency checks are next.
 
  MPI_IN_PLACE appears to work with this MPI implementation.
  | Keeping use_mpi_in_place .true. (see manual).
  Explicit treatment of the Coulomb operator is needed, but the RI method is not specified.
  Coulomb operator: Defaulting to 'RI-V' resolution of identity - RI_type = V 
  Species Cu: Using default value for prodbas_acc =   1.000000E-04.
  Species Cu: Using default value max_l_prodbas =     5.
 * Species Cu: Specified min. number of angular integration points is   110
 * The angular momenta for this species require   194 for RI_type 'V'. Increasing angular_min to   194.
 * Species Cu: Grid shell     1 contains only   110 angular integration points.
 * Increasing to angular_min =   194 integration points.
 * This change is related to the three-center integrals used in RI_method 'V'.
  Target number of points in a grid batch is not set. Defaulting to  100
  Method for grid partitioning is not set. Defaulting to parallel hash+maxmin partitioning.
  Batch size limit is not set. Defaulting to    200
  By default, will store active basis functions for each batch.
  If in need of memory, prune_basis_once .false. can be used to disable this option.
  communication_type for Hartree potential was not specified.
  Defaulting to calc_hartree .
  Work space size for distributed Hartree potential not set.
  Defaulting to   0.200000E+03 MB.
  Presetting      1001 iterations before the initial mixing cycle
  is restarted anyway using the sc_init_iter criterion / keyword.
  Presetting a factor      1.000 between actual scf density residual
  and density convergence criterion sc_accuracy_rho below which sc_init_iter
  takes no effect.
  Calculation of forces was not defined in control.in. No forces will be calculated.
  Geometry relaxation not requested: no relaxation will be performed.
  No accuracy limit for integral partition fn. given. Defaulting to  0.1000E-14.
  No threshold value for u(r) in integrations given. Defaulting to  0.1000E-05.
  No accuracy for occupation numbers given. Defaulting to  0.1000E-12.
  No threshold value for occupation numbers given. Defaulting to  0.0000E+00.
  No accuracy for fermi level given. Defaulting to  0.1000E-19.
  Maximum # of iterations to find E_F not set. Defaulting to  200.
  Preferred method for the eigenvalue solver ('KS_method') not specified in 'control.in'.
  Calling BLACS routine to test compilation state
  Since ScaLAPACK support is enabled, defaulting to ELPA (via ELSI).
  Will not use alltoall communication since running on < 1024 CPUs.
  partition_type (choice of integration weights) for integrals was not specified.
  | Using a version of the partition function of Stratmann and coworkers ('stratmann_sparse').
  | At each grid point, the set of atoms used to build the partition table is smoothly restricted to
  | only those atoms whose free-atom density would be non-zero at that grid point.
  Partitioning for Hartree potential was not defined. Using partition_type for integrals.
  | Adjusted default value of keyword multip_moments_threshold to:       0.10000000E-11
  | This value may affect high angular momentum components of the Hartree potential in periodic systems.
  Threshold for auxiliary basis singularities not set.
  Default threshold for auxiliary basis singularities:  0.1000E-04
  * Doing correlated calculations, so all empty single-particle states will be included.
  No q(lm)/r^(l+1) cutoff set for long-range Hartree potential.
  | Using default value of  0.100000E-09 .
  | Verify using the multipole_threshold keyword.
  Defaulting to new monopole extrapolation.
  Density update method: automatic selection selected.
  KS-based density update method is selected as as Hartree-Fock with RI-V needs packed_matrix_format "none"
  Charge integration errors on the 3D integration grid will be compensated
  by explicit normalization and distribution of residual charges.
  Use the "compensate_multipole_errors" flag to change this behaviour.
  Default onset of logarithmic r-grid for SBT is-38.000000000000
  Default onset of logarithmic k-grid for SBT is-25.000000000000
  Default range of logarithmic r- and k-grid for SBT is 45.000000000000
  Default number of logarithmic r- and k-grid for SBT is  4096
  Default of use_2d_corr is to use the efficient 2D distribution where possible
------------------------------------------------------------


------------------------------------------------------------
          Reading geometry description geometry.in.
------------------------------------------------------------
  Input structure read successfully.
  The structure contains        2 atoms,  and a total of         58.000 electrons.

  Input geometry:
  | No unit cell requested.
  | Atomic structure:
  |       Atom                x [A]            y [A]            z [A]
  |    1: Species Cu            0.00000000        0.00000000        0.00000000
  |    2: Species Cu            2.51235000        0.00000000        0.00000000
  | The smallest distance between any two atoms is         2.51235000 AA.
  | The first atom of this pair is atom number                      1 .
  | The second atom of this pair is atom number                     2 .

  Number of empty states per atom not set in control.in .
  | Since you are using a method that relies on the unoccupied spectrum
  | (MP2,GW,RPA et al.), will use the full Hamiltonian size (see below)
  | as the max. possible number of states (occupied plus empty).

  Structure-dependent array size parameters: 
  | Maximum number of distinct radial functions  :       12
  | Maximum number of basis functions            :       80
  | Number of Kohn-Sham states (occupied + empty):       80
------------------------------------------------------------

------------------------------------------------------------
          Preparing all fixed parts of the calculation.
------------------------------------------------------------
  Determining machine precision:
    2.225073858507201E-308
  Setting up grids for atomic and cluster calculations.

  Creating wave function, potential, and density for free atoms.

  Species: Cu

  List of occupied orbitals and eigenvalues:
    n    l              occ      energy [Ha]    energy [eV]
    1    0           2.0000      -328.815927     -8947.5366
    2    0           2.0000       -39.351654     -1070.8130
    3    0           2.0000        -4.528080      -123.2153
    4    0           1.0000        -0.413144       -11.2422
    2    1           6.0000       -33.998166      -925.1372
    3    1           6.0000        -2.960461       -80.5582
    3    2          10.0000        -0.476956       -12.9786

  Creating fixed part of basis set: Ionic, confined, hydrogenic.
 
  Cu                   ion:

  List of free ionic orbitals and eigenvalues:
    n    l      energy [Ha]    energy [eV]
    1    0      -328.986260     -8952.1716
    2    0       -39.979362     -1087.8938
    3    0        -5.137523      -139.7991
    2    1       -34.674612      -943.5442
    3    1        -3.585296       -97.5609
    3    2        -1.102046       -29.9882


  List of ionic basis orbitals and eigenvalues:
    n    l      energy [Ha]    energy [eV]    outer radius [A]
    4    1        -0.565155       -15.3786       5.821277

 
  Cu                   hydrogenic:
 
  List of hydrogenic basis orbitals: 
    n    l      effective z      eigenvalue [eV]  inner max. [A]     outer max. [A]     outer radius [A]   
    4    3         7.400000       -46.5653           1.145222           1.145222           4.905564
    3    0         2.600000        -9.8948           0.150507           2.597818           5.476109
    3    2         5.000000       -37.7934           0.953347           0.953347           4.728912
    5    4        10.400000       -58.8635           1.278418           1.278418           4.905564
 

  Adding cutoff potential to free-atom effective potential.
  Creating atomic-like basis functions for current effective potential.

  Species Cu                  :

  List of atomic basis orbitals and eigenvalues:
    n    l      energy [Ha]    energy [eV]    outer radius [A]
    1    0      -328.815927     -8947.5366       0.367393
    2    0       -39.351654     -1070.8130       1.064227
    3    0        -4.528080      -123.2153       3.082748
    4    0        -0.412417       -11.2224       5.409571
    2    1       -33.998166      -925.1372       1.117561
    3    1        -2.960461       -80.5582       3.703194
    3    2        -0.476952       -12.9785       5.278911

  Assembling full basis from fixed parts.
  | Species Cu :   atomic orbital   1 s accepted.
  | Species Cu :   atomic orbital   2 s accepted.
  | Species Cu :   atomic orbital   3 s accepted.
  | Species Cu :   atomic orbital   4 s accepted.
  | Species Cu :    hydro orbital   3 s accepted.
  | Species Cu :   atomic orbital   2 p accepted.
  | Species Cu :   atomic orbital   3 p accepted.
  | Species Cu :    ionic orbital   4 p accepted.
  | Species Cu :    hydro orbital   3 d accepted.
  | Species Cu :   atomic orbital   3 d accepted.
  | Species Cu :    hydro orbital   4 f accepted.
  | Species Cu :    hydro orbital   5 g accepted.
 
  Basis size parameters after reduction:
  | Total number of radial functions:       12
  | Total number of basis functions :       80
 
  Per-task memory consumption for arrays in subroutine allocate_ext:
  |           3.241868MB.
  Testing on-site integration grid accuracy.
  |  Species  Function  <phi|h_atom|phi> (log., in eV)  <phi|h_atom|phi> (rad., in eV)
           1        1              -8947.5366239644              -8947.5362687495
           1        2              -1070.8129797142              -1070.8129745717
           1        3               -123.2153353033               -123.2153343869
           1        4                -11.2269866668                -11.2269827999
           1        5                 -3.0698835084                 -3.0698108052
           1        6               -925.1371659349               -925.1371654599
           1        7                -80.5582327443                -80.5582321989
           1        8                 -5.0189039959                 -5.0189126927
           1        9                  2.4070482091                  2.4070485524
           1       10                  1.8057492700                  1.8057494953
           1       11                 22.9334735423                 22.9334739238
           1       12                 39.6742512894                 39.6742516734

  Preparing densities etc. for the partition functions (integrals / Hartree potential).

  Preparations completed.
  max(cpu_time)          :      8.720 s.
  Wall clock time (cpu1) :      8.722 s.
------------------------------------------------------------

------------------------------------------------------------
          Begin self-consistency loop: Initialization.

          Date     :  20190817, Time     :  154234.433
------------------------------------------------------------

  Initializing index lists of integration centers etc. from given atomic structure:
  | Number of centers in hartree potential         :         2
  | Number of centers in hartree multipole         :         2
  | Number of centers in electron density summation:         2
  | Number of centers in basis integrals           :         2
  | Number of centers in integrals                 :         2
  | Number of centers in hamiltonian               :         2
  * Using 8 tasks for Scalapack Eigenvalue solver.
  Detailed listing of tasks and assigned k-points:
  (for non-periodic systems, the "k-point" denotes an internal label only)
   Task     0 k-point     1 on co1631
   Task     1 k-point     1 on co1631
   Task     2 k-point     1 on co1631
   Task     3 k-point     1 on co1631
   Task     4 k-point     1 on co1631
   Task     5 k-point     1 on co1631
   Task     6 k-point     1 on co1631
   Task     7 k-point     1 on co1631
  Tasks:     8 split into      4 X      2 BLACS grid
  Calculating block size based on n_basis =           80  max_nprow =            4  max_npcol =            2
  ScaLAPACK block size set to:           16
  Allocating        0.012 MB for ovlp
  Allocating        0.012 MB for ham
  Allocating        0.012 MB for eigenvec
  Required Scalapack workspace - INTEGER:            1  REAL:             1
  Partitioning the integration grid into batches with parallel hashing+maxmin method.
  | Number of batches:      860
  | Maximal batch size:     136
  | Minimal batch size:      49
  | Average batch size:      69.623
  | Standard deviation of batch sizes:      18.385

  Integration load balanced across     8 MPI tasks.
  Work distribution over tasks is as follows:
  Task     0 has       7522 integration points.
  Task     1 has       7535 integration points.
  Task     2 has       7432 integration points.
  Task     3 has       7441 integration points.
  Task     4 has       7482 integration points.
  Task     5 has       7521 integration points.
  Task     6 has       7449 integration points.
  Task     7 has       7494 integration points.
  Initializing partition tables, free-atom densities, potentials, etc. across the integration grid (initialize_grid_storage).
  | initialize_grid_storage: Actual outermost partition radius vs. multipole_radius_free
  | (-- VB: in principle, multipole_radius_free should be larger, hence this output)
  | Species        1: Confinement radius =              9.999999999999998 AA, multipole_radius_free =             10.090993627990391 AA.
  | Species        1: outer_partition_radius set to             10.090993627990391 AA .
  | The sparse table of interatomic distances needs          0.04 kbyte instead of         0.03 kbyte of memory.
  | Using the partition_type stratmann_smoother will reduce your memory usage.
  | Net number of integration points:    59876
  | of which are non-zero points    :    58400
  Renormalizing the initial density to the exact electron count on the 3D integration grid.
  | Initial density: Formal number of electrons (from input files) :      58.0000000000
  | Integrated number of electrons on 3D grid     :      57.9999988658
  | Charge integration error                      :      -0.0000011342
  | Normalization factor for density and gradient :       1.0000000196
  Renormalizing the free-atom superposition density to the exact electron count on the 3D integration grid.
  | Formal number of electrons (from input files) :      58.0000000000
  | Integrated number of electrons on 3D grid     :      57.9999988658
  | Charge integration error                      :      -0.0000011342
  | Normalization factor for density and gradient :       1.0000000196
  Obtaining max. number of non-zero basis functions in each batch (get_n_compute_maxes).
  | Maximal number of non-zero basis functions:       78 in task     0
  | Maximal number of non-zero basis functions:       78 in task     1
  | Maximal number of non-zero basis functions:       75 in task     2
  | Maximal number of non-zero basis functions:       78 in task     3
  | Maximal number of non-zero basis functions:       77 in task     4
  | Maximal number of non-zero basis functions:       78 in task     5
  | Maximal number of non-zero basis functions:       78 in task     6
  | Maximal number of non-zero basis functions:       78 in task     7
  Allocating        0.049 MB for KS_eigenvector
  Integrating Hamiltonian matrix: batch-based integration.
  Time summed over all CPUs for integration: real work        0.294 s, elapsed        0.300 s
  Integrating overlap matrix.
  Time summed over all CPUs for integration: real work        0.066 s, elapsed        0.068 s
  Deallocating overlap matrix.

  Updating Kohn-Sham eigenvalues and eigenvectors using ELSI and the ELPA eigensolver.
  Overlap matrix is not singular
  | Lowest and highest eigenvalues :  0.8132E-01,  0.1919E+01
  Finished singularity check of overlap matrix
  | Time :     0.001 s
  Starting ELPA eigensolver
  Finished Cholesky decomposition
  | Time :     0.001 s
  Finished transformation to standard eigenproblem
  | Time :     0.000 s
  Finished solving standard eigenproblem
  | Time :     0.001 s
  Finished back-transformation of eigenvectors
  | Time :     0.001 s

  Obtaining occupation numbers and chemical potential using ELSI.
  | Chemical potential (Fermi level):    -2.65263383 eV
  Writing Kohn-Sham eigenvalues.

  State    Occupation    Eigenvalue [Ha]    Eigenvalue [eV]
      1       2.00000        -327.913281        -8922.97438
      2       2.00000        -327.913281        -8922.97437
      3       2.00000         -38.928047        -1059.28605
      4       2.00000         -38.928044        -1059.28598
      5       2.00000         -33.624529         -914.96998
      6       2.00000         -33.624526         -914.96991
      7       2.00000         -33.624442         -914.96763
      8       2.00000         -33.624442         -914.96763
      9       2.00000         -33.624442         -914.96761
     10       2.00000         -33.624442         -914.96761
     11       2.00000          -4.094262         -111.41053
     12       2.00000          -4.094133         -111.40703
     13       2.00000          -2.550358          -69.39876
     14       2.00000          -2.548842          -69.35752
     15       2.00000          -2.548344          -69.34397
     16       2.00000          -2.548344          -69.34397
     17       2.00000          -2.548223          -69.34066
     18       2.00000          -2.548223          -69.34066
     19       2.00000          -0.223861           -6.09156
     20       2.00000          -0.133907           -3.64379
     21       2.00000          -0.133695           -3.63803
     22       2.00000          -0.133695           -3.63803
     23       2.00000          -0.128295           -3.49109
     24       2.00000          -0.118544           -3.22574
     25       2.00000          -0.118544           -3.22574
     26       2.00000          -0.112273           -3.05509
     27       2.00000          -0.112273           -3.05509
     28       2.00000          -0.105451           -2.86946
     29       2.00000          -0.105451           -2.86946
     30       0.00000          -0.096550           -2.62726
     31       0.00000           0.013813            0.37587
     32       0.00000           0.014418            0.39233
     33       0.00000           0.014418            0.39233
     34       0.00000           0.121582            3.30840
     35       0.00000           0.121582            3.30840
     36       0.00000           0.153064            4.16509
     37       0.00000           0.165506            4.50365
     38       0.00000           0.354573            9.64841
     39       0.00000           0.774050           21.06297
     40       0.00000           0.774050           21.06297
     41       0.00000           0.813436           22.13472
     42       0.00000           0.813436           22.13472
     43       0.00000           0.889056           24.19246
     44       0.00000           0.915756           24.91899
     45       0.00000           0.915756           24.91899
     46       0.00000           0.966738           26.30627
     47       0.00000           0.966738           26.30627
     48       0.00000           1.008725           27.44880
     49       0.00000           1.008725           27.44881
     50       0.00000           1.042016           28.35469
     51       0.00000           1.042016           28.35469
     52       0.00000           1.064205           28.95850
     53       0.00000           1.070573           29.13177
     54       0.00000           1.070573           29.13177
     55       0.00000           1.075904           29.27684
     56       0.00000           1.126442           30.65205
     57       0.00000           1.126442           30.65205
     58       0.00000           1.238975           33.71422
     59       0.00000           1.238975           33.71422
     60       0.00000           1.427389           38.84123
     61       0.00000           1.427389           38.84123
     62       0.00000           1.565374           42.59599
     63       0.00000           1.565374           42.59599
     64       0.00000           1.576210           42.89085
     65       0.00000           1.649250           44.87837
     66       0.00000           1.651393           44.93669
     67       0.00000           1.651394           44.93670
     68       0.00000           1.654095           45.01023
     69       0.00000           1.654096           45.01024
     70       0.00000           1.716956           46.72075
     71       0.00000           1.716956           46.72075
     72       0.00000           1.742503           47.41592
     73       0.00000           1.742504           47.41593
     74       0.00000           1.915601           52.12616
     75       0.00000           1.915601           52.12616
     76       0.00000           2.135576           58.11199
     77       0.00000           2.135577           58.11202
     78       0.00000           2.263812           61.60146
     79       0.00000           2.263812           61.60146
     80       0.00000           2.351687           63.99266

  Highest occupied state (VBM) at     -2.86945649 eV
  | Occupation number:      2.00000000

  Lowest unoccupied state (CBM) at    -2.62725740 eV
  | Occupation number:      0.00000000

  Overall HOMO-LUMO gap:      0.24219909 eV.
  Calculating total energy contributions from superposition of free atom densities.

  Total energy components:
  | Sum of eigenvalues            :       -1920.67238101 Ha      -52264.15465833 eV
  | XC energy correction          :        -130.46569801 Ha       -3550.15227259 eV
  | XC potential correction       :         172.75176059 Ha        4700.81458055 eV
  | Free-atom electrostatic energy:       -1441.77077590 Ha      -39232.57894391 eV
  | Hartree energy correction     :           0.00000000 Ha           0.00000000 eV
  | Entropy correction            :          -0.00000000 Ha          -0.00000000 eV
  | ---------------------------
  | Total energy                  :       -3320.15709433 Ha      -90346.07129427 eV
  | Total energy, T -> 0          :       -3320.15709433 Ha      -90346.07129427 eV  <-- do not rely on this value for anything but (periodic) metals
  | Electronic free energy        :       -3320.15709433 Ha      -90346.07129427 eV

  Derived energy quantities:
  | Kinetic energy                :        3372.47135506 Ha       91769.61475777 eV
  | Electrostatic energy          :       -6562.16275138 Ha     -178565.53377946 eV
  | Energy correction for multipole
  | error in Hartree potential    :           0.00000000 Ha           0.00000000 eV
  | Sum of eigenvalues per atom                           :      -26132.07732916 eV
  | Total energy (T->0) per atom                          :      -45173.03564714 eV  <-- do not rely on this value for anything but (periodic) metals
  | Electronic free energy per atom                       :      -45173.03564714 eV
 
 --------------------------------------------
  Constructing auxiliary basis (full product) ...
 
  Product basis:
  | charge radius: extent of product basis function
  | field radius: extent of its Coulomb potential
  | Species   l  charge radius    field radius  multipol momen
  |    Cu     0     0.523719 A      0.523719 A       -1.118314E-16 a.u.
  |    Cu     0     1.001125 A      1.001125 A        4.015778E-17 a.u.
  |    Cu     1     1.001125 A      1.001125 A       -2.917540E-18 a.u.
  |    Cu     0     1.517058 A      1.517058 A        7.965350E-17 a.u.
  |    Cu     1     1.554607 A      1.554607 A       -3.696423E-18 a.u.
  |    Cu     2     1.593086 A      1.593086 A       -2.091628E-18 a.u.
  |    Cu     1     2.110336 A      2.110336 A        1.969443E-17 a.u.
  |    Cu     1     2.136293 A      2.136293 A       -1.288592E-17 a.u.
  |    Cu     1     2.136293 A      2.136293 A        4.109357E-17 a.u.
  |    Cu     0     2.864722 A      2.864722 A        1.385110E-18 a.u.
  |    Cu     1     3.317366 A      3.317366 A       -3.230383E-17 a.u.
  |    Cu     2     3.317366 A      3.317366 A       -3.463103E-17 a.u.
  |    Cu     2     3.526465 A      3.526465 A       -1.134121E-17 a.u.
  |    Cu     3     4.184744 A      4.184744 A       -3.279987E-17 a.u.
  |    Cu     0     4.558622 A      4.558622 A       -1.072313E-16 a.u.
  |    Cu     1     4.905564 A      4.905564 A        5.591079E-17 a.u.
  |    Cu     4     4.905564 A      4.905564 A       -3.523941E-15 a.u.
  |    Cu     2     4.965903 A      4.965903 A       -2.757954E-16 a.u.
  |    Cu     3     4.965903 A      4.965903 A       -1.078277E-16 a.u.
  |    Cu     3     5.026983 A      5.026983 A       -2.020848E-15 a.u.
  |    Cu     3     5.026983 A      5.026983 A       -1.339826E-15 a.u.
  |    Cu     3     5.026983 A      5.026983 A       -2.606240E-16 a.u.
  |    Cu     1     5.088815 A      5.088815 A        9.882653E-17 a.u.
  |    Cu     5     5.088815 A      5.088815 A        7.073907E-15 a.u.
  |    Cu     5     5.088815 A      5.088815 A        2.732078E-14 a.u.
  |    Cu     5     5.088815 A      5.088815 A        2.270987E-14 a.u.
  |    Cu     5     5.151407 A      5.151407 A        6.987487E-14 a.u.
  |    Cu     5     5.214770 A      5.214770 A       -6.361736E-14 a.u.
  |    Cu     4     5.278911 A      5.278911 A       -1.733369E-15 a.u.
  |    Cu     0     5.278911 A      5.343842 A        6.912289E-17 a.u.
  |    Cu     4     5.343842 A      5.343842 A       -9.596317E-16 a.u.
  |    Cu     4     5.343842 A      5.343842 A       -1.232379E-14 a.u.
  |    Cu     4     5.343842 A      5.343842 A       -6.431449E-15 a.u.
  |    Cu     0     5.343842 A      5.409571 A        4.171194E-16 a.u.
  |    Cu     0     5.409571 A      5.409571 A       -2.028258E-16 a.u.
  |    Cu     4     5.409571 A      5.409571 A       -8.504413E-15 a.u.
  |    Cu     4     5.409571 A      5.409571 A        3.005353E-15 a.u.
  |    Cu     4     5.409571 A      5.409571 A       -2.118867E-14 a.u.
  |    Cu     0     5.409571 A      5.476109 A       -4.158950E-17 a.u.
  |    Cu     0     5.476109 A      5.476109 A       -9.236800E-17 a.u.
  |    Cu     0     5.476109 A      5.543465 A        5.726847E-17 a.u.
  |    Cu     0     5.476109 A      5.543465 A        8.475462E-17 a.u.
  |    Cu     1     5.543465 A      5.543465 A        7.181124E-16 a.u.
  |    Cu     3     5.543465 A      5.543465 A       -1.051022E-14 a.u.
  |    Cu     3     5.543465 A      5.543465 A       -7.040135E-15 a.u.
  |    Cu     1     5.611650 A      5.611650 A        2.782897E-16 a.u.
  |    Cu     3     5.611650 A      5.611650 A       -8.888161E-17 a.u.
  |    Cu     1     5.611650 A      5.680673 A       -2.940029E-16 a.u.
  |    Cu     2     5.750545 A      5.750545 A        4.653825E-16 a.u.
  |    Cu     2     5.750545 A      5.750545 A       -4.774098E-16 a.u.
  |    Cu     2     5.750545 A      5.750545 A        5.457706E-16 a.u.
  |    Cu     2     5.892879 A      5.892879 A       -1.872809E-16 a.u.
  |    Cu     2     5.892879 A      5.892879 A        4.932208E-16 a.u.
  |    Cu     2     5.965361 A      5.965361 A        2.118034E-15 a.u.
  |    Cu     2     5.965361 A      5.965361 A       -6.997127E-15 a.u.
  |    Cu     5     5.214770 A  2.308239E+02 A          548.109749 a.u.
  |    Cu     4     5.409571 A  6.354037E+02 A          198.624668 a.u.
  |    Cu     3     5.611650 A  2.365352E+03 A           31.766439 a.u.
  |    Cu     2     5.965361 A  3.017203E+04 A           14.750288 a.u.
  |    Cu     1     5.611650 A  2.894653E+06 A            2.381118 a.u.
  |    Cu     0     5.476109 A  4.764126E+12 A            0.716427 a.u.

  | Shrink_full_auxil_basis : there are       61  radial auxiliary wave functions
                            accepted and      93 rejected.
  | Shrink_full_auxil_basis : there are totally                 638 partial auxiliary wave functions.
 
  | Maximal number of product basis functions per thread :    80    80
 
  | Minimal total memory requirement for three-center overlap :       0.022 Gbs
  | Number of local auxiliary basis functions on task:      0    80
  | Number of local auxiliary basis functions on task:      1    80
  | Number of local auxiliary basis functions on task:      2    80
  | Number of local auxiliary basis functions on task:      3    80
  | Number of local auxiliary basis functions on task:      4    80
  | Number of local auxiliary basis functions on task:      5    80
  | Number of local auxiliary basis functions on task:      6    80
  | Number of local auxiliary basis functions on task:      7    78
  | 2D aux task distribution:      2 X      4
  | 2D block size (nb_aux_2d):     64
  | Task at    0 x    0 gets    320 x    192 entries of 2D aux
  | Task at    0 x    1 gets    320 x    190 entries of 2D aux
  | Task at    0 x    2 gets    320 x    128 entries of 2D aux
  | Task at    0 x    3 gets    320 x    128 entries of 2D aux
  | Task at    1 x    0 gets    318 x    192 entries of 2D aux
  | Task at    1 x    1 gets    318 x    190 entries of 2D aux
  | Task at    1 x    2 gets    318 x    128 entries of 2D aux
  | Task at    1 x    3 gets    318 x    128 entries of 2D aux
 
  Basis pair condensation :      3240  -->       3231
 
 ----------------------------------------------------
  Integrating the 3-basis-function Coulomb matrix ...
  | i_atom:            1
  | i_atom:            2
  Integrating the Coulomb interaction matrix for auxiliary basis functions (by atoms)

  SBT integration errors (all should be 'small'):
  large logFT aliasing -> increase N/lnrange
  large SBT aliasing -> decrease lnk0 & increase lnk0+lnrange
  large SBT ringing -> decrease lnr0 & increase lnr0+lnrange
  |            El't  L: logFT-al.   small-k   large-k   small-r   large-r
  Atomic logSBT for 2-center Coulomb matrix    :  max(cpu_time)    wall_clock(cpu1)
  | Multiplication with kernel                 :        0.004 s           0.006 s
  | Main matrix multiplication                 :        0.026 s           0.023 s
  | Analytic angular integration               :        0.002 s           0.002 s
  | Kernel construction                        :        0.001 s           0.001 s
  | Overall 2-center overlap time              :        0.039 s           0.038 s

  Diagonalizing the Coulomb matrix and checking for singularities with ScaLapack .
 
  Difference of Coulomb matrix to its transposed:  2.4980E-16
  Eigenvalues of the Coulomb matrix range from    2.0000E+00 to    9.3838E-07.
  Using      637   eigenvalues out of rank      638   Coulomb matrix (auxiliary basis).
  Still using eigenvalue     7.4638E-05 while cutting     9.3838E-07 in Coulomb matrix.
 
  Multiplying ovlp_3fn x V^-0.5 (2d-scalapack)

  Initialize hartree_potential_storage
  Max. number of atoms included in rho_multipole:            2

  End scf initialization - timings             :  max(cpu_time)    wall_clock(cpu1)
  | Time for scf. initialization               :        1.711 s           1.712 s
  | Boundary condition initialization          :        0.000 s           0.000 s
  | Integration                                :        0.047 s           0.047 s
  | Solution of K.-S. eqns.                    :        0.005 s           0.005 s
  | Grid partitioning                          :        0.015 s           0.016 s
  | Preloading free-atom quantities on grid    :        0.007 s           0.007 s
  | Free-atom superposition energy             :        0.005 s           0.004 s
  | Total energy evaluation                    :        0.000 s           0.001 s
  | Product basis setup: Total time            :        1.625 s           1.626 s
  | Product basis: | 3-center integrations     :        1.320 s           1.320 s
  | Product basis: | 2-center integrations     :        0.091 s           0.090 s
  | Product basis: | 2-center linear algebra   :        0.043 s           0.043 s
  | Product basis: | 3-center x 2-center       :        0.022 s           0.022 s

  Partial memory accounting:
  | Current value for overall tracked memory usage:
  |   Minimum:        0.086 MB (on task 3)
  |   Maximum:        0.109 MB (on task 0)
  |   Average:        0.092 MB
  | Peak value for overall tracked memory usage:
  |   Minimum:        0.861 MB (on task 2 after allocating zora_vector2)
  |   Maximum:        0.910 MB (on task 0 after allocating zora_vector2)
  |   Average:        0.888 MB
  | Largest tracked array allocation so far:
  |   Minimum:        0.233 MB (zora_vector1 on task 2)
  |   Maximum:        0.243 MB (zora_vector1 on task 0)
  |   Average:        0.241 MB
  Note:  These values currently only include a subset of arrays which are explicitly tracked.
  The "true" memory usage will be greater.
------------------------------------------------------------

------------------------------------------------------------
          Begin self-consistency iteration #    1

  Date     :  20190817, Time     :  154236.145
------------------------------------------------------------
  Evaluating new KS density.
  Integration grid: deviation in total charge (<rho> - N_e) =   8.526513E-14
  Linear mixing of updated and previous charge densities.
  Renormalizing the density to the exact electron count on the 3D integration grid.
  | Formal number of electrons (from input files) :      58.0000000000
  | Integrated number of electrons on 3D grid     :      58.0000000000
  | Charge integration error                      :      -0.0000000000
  | Normalization factor for density and gradient :       1.0000000000

  Evaluating partitioned Hartree potential by multipole expansion.
  | Original multipole sum: apparent total charge =  -0.181425E-12
  | Sum of charges compensated after spline to logarithmic grids =  -0.810960E-06
  | Analytical far-field extrapolation by fixed multipoles:
  | Hartree multipole sum: apparent total charge =  -0.181364E-12
  Summing up the Hartree potential.
  Time summed over all CPUs for potential: real work        0.070 s, elapsed        0.072 s
  | RMS charge density error from multipole expansion :   0.117387E-02

  Integrating Hamiltonian matrix: batch-based integration.
  Time summed over all CPUs for integration: real work        0.255 s, elapsed        0.262 s
  Evaluating the exchange matrix ... 

  Updating Kohn-Sham eigenvalues and eigenvectors using ELSI and the ELPA eigensolver.
  Starting ELPA eigensolver
  Finished transformation to standard eigenproblem
  | Time :     0.000 s
  Finished solving standard eigenproblem
  | Time :     0.001 s
  Finished back-transformation of eigenvectors
  | Time :     0.001 s

  Obtaining occupation numbers and chemical potential using ELSI.
  | Chemical potential (Fermi level):   -10.51888050 eV
  Writing Kohn-Sham eigenvalues.

  State    Occupation    Eigenvalue [Ha]    Eigenvalue [eV]
      1       2.00000        -336.946294        -9168.77516
      2       2.00000        -336.946294        -9168.77516
      3       2.00000         -42.523287        -1157.11751
      4       2.00000         -42.523268        -1157.11700
      5       2.00000         -36.664939         -997.70375
      6       2.00000         -36.664923         -997.70332
      7       2.00000         -36.663341         -997.66027
      8       2.00000         -36.663341         -997.66027
      9       2.00000         -36.663335         -997.66012
     10       2.00000         -36.663335         -997.66012
     11       2.00000          -5.652243         -153.80535
     12       2.00000          -5.652161         -153.80313
     13       2.00000          -3.827241         -104.14453
     14       2.00000          -3.827241         -104.14453
     15       2.00000          -3.827060         -104.13959
     16       2.00000          -3.827060         -104.13959
     17       2.00000          -3.820330         -103.95646
     18       2.00000          -3.816731         -103.85855
     19       2.00000          -0.881980          -23.99991
     20       2.00000          -0.881980          -23.99991
     21       2.00000          -0.869162          -23.65110
     22       2.00000          -0.869162          -23.65110
     23       2.00000          -0.868016          -23.61993
     24       2.00000          -0.868016          -23.61992
     25       2.00000          -0.867452          -23.60456
     26       2.00000          -0.867452          -23.60456
     27       2.00000          -0.629830          -17.13853
     28       2.00000          -0.485440          -13.20950
     29       2.00000          -0.388511          -10.57191
     30       0.00000          -0.141702           -3.85591
     31       0.00000           0.089497            2.43534
     32       0.00000           0.097048            2.64082
     33       0.00000           0.097048            2.64082
     34       0.00000           0.222941            6.06654
     35       0.00000           0.222941            6.06654
     36       0.00000           0.242124            6.58853
     37       0.00000           0.246348            6.70346
     38       0.00000           0.475811           12.94748
     39       0.00000           0.884600           24.07119
     40       0.00000           0.884600           24.07119
     41       0.00000           0.951434           25.88984
     42       0.00000           0.951434           25.88984
     43       0.00000           1.046210           28.46881
     44       0.00000           1.051124           28.60253
     45       0.00000           1.051124           28.60254
     46       0.00000           1.107899           30.14747
     47       0.00000           1.107899           30.14747
     48       0.00000           1.169621           31.82702
     49       0.00000           1.169622           31.82702
     50       0.00000           1.222199           33.25772
     51       0.00000           1.222199           33.25772
     52       0.00000           1.236343           33.64261
     53       0.00000           1.236343           33.64261
     54       0.00000           1.236928           33.65853
     55       0.00000           1.243876           33.84759
     56       0.00000           1.304985           35.51045
     57       0.00000           1.304985           35.51045
     58       0.00000           1.415923           38.52921
     59       0.00000           1.415923           38.52921
     60       0.00000           1.614393           43.92988
     61       0.00000           1.614393           43.92988
     62       0.00000           1.769198           48.14233
     63       0.00000           1.769198           48.14233
     64       0.00000           1.784533           48.55961
     65       0.00000           1.850533           50.35556
     66       0.00000           1.856963           50.53055
     67       0.00000           1.856964           50.53056
     68       0.00000           1.866046           50.77770
     69       0.00000           1.866047           50.77772
     70       0.00000           1.925430           52.39362
     71       0.00000           1.925430           52.39362
     72       0.00000           1.957515           53.26668
     73       0.00000           1.957515           53.26670
     74       0.00000           2.135773           58.11733
     75       0.00000           2.135773           58.11733
     76       0.00000           2.363660           64.31846
     77       0.00000           2.363661           64.31849
     78       0.00000           2.495830           67.91499
     79       0.00000           2.495830           67.91499
     80       0.00000           2.597712           70.68733

  Highest occupied state (VBM) at    -10.57191250 eV
  | Occupation number:      2.00000000

  Lowest unoccupied state (CBM) at    -3.85590663 eV
  | Occupation number:      0.00000000

  Overall HOMO-LUMO gap:      6.71600587 eV.

  Total energy components:
  | Sum of eigenvalues            :       -2043.29885321 Ha      -55600.99074297 eV
  | XC energy correction          :         129.71719560 Ha        3529.78448563 eV
  | XC potential correction       :           0.00000000 Ha           0.00000000 eV
  | Free-atom electrostatic energy:       -1441.77077590 Ha      -39232.57894391 eV
  | Hartree energy correction     :          33.66237995 Ha         915.99996410 eV
  | Entropy correction            :           0.00000000 Ha           0.00000000 eV
  | ---------------------------
  | Total energy                  :       -3321.69005356 Ha      -90387.78523716 eV
  | Total energy, T -> 0          :       -3321.69005356 Ha      -90387.78523716 eV  <-- do not rely on this value for anything but (periodic) metals
  | Electronic free energy        :       -3321.69005356 Ha      -90387.78523716 eV

  Derived energy quantities:
  | Kinetic energy                :        3355.06223279 Ha       91295.88843794 eV
  | Electrostatic energy          :       -6547.03509075 Ha     -178153.88918947 eV
  | Energy correction for multipole
  | error in Hartree potential    :          -0.00184203 Ha          -0.05012424 eV
  | Sum of eigenvalues per atom                           :      -27800.49537149 eV
  | Total energy (T->0) per atom                          :      -45193.89261858 eV  <-- do not rely on this value for anything but (periodic) metals
  | Electronic free energy per atom                       :      -45193.89261858 eV

  Self-consistency convergence accuracy:
  | Change of charge density      :  0.8926E+00
  | Change of sum of eigenvalues  : -0.3337E+04 eV
  | Change of total energy        : -0.4171E+02 eV

  End self-consistency iteration #     1       :  max(cpu_time)    wall_clock(cpu1)
  | Time for this iteration                    :        0.061 s           0.061 s
  | Charge density update                      :        0.008 s           0.008 s
  | Density mixing                             :        0.000 s           0.000 s
  | Hartree multipole update                   :        0.002 s           0.003 s
  | Hartree multipole summation                :        0.009 s           0.009 s
  | Integration                                :        0.033 s           0.033 s
  | Fock matrix evaluation                     :        0.005 s           0.005 s
  | Solution of K.-S. eqns.                    :        0.002 s           0.002 s
  | Total energy evaluation                    :        0.000 s           0.001 s

  Partial memory accounting:
  | Current value for overall tracked memory usage:
  |   Minimum:        0.086 MB (on task 3)
  |   Maximum:        0.109 MB (on task 0)
  |   Average:        0.092 MB
  | Peak value for overall tracked memory usage:
  |   Minimum:        0.861 MB (on task 2 after allocating zora_vector2)
  |   Maximum:        0.910 MB (on task 0 after allocating zora_vector2)
  |   Average:        0.888 MB
  | Largest tracked array allocation so far:
  |   Minimum:        0.233 MB (zora_vector1 on task 2)
  |   Maximum:        0.243 MB (zora_vector1 on task 0)
  |   Average:        0.241 MB
  Note:  These values currently only include a subset of arrays which are explicitly tracked.
  The "true" memory usage will be greater.
------------------------------------------------------------

------------------------------------------------------------
          Begin self-consistency iteration #    2

  Date     :  20190817, Time     :  154236.206
------------------------------------------------------------
  Evaluating new KS density.
  Integration grid: deviation in total charge (<rho> - N_e) =   2.842171E-14
  Linear mixing of updated and previous charge densities.
  Renormalizing the density to the exact electron count on the 3D integration grid.
  | Formal number of electrons (from input files) :      58.0000000000
  | Integrated number of electrons on 3D grid     :      58.0000000000
  | Charge integration error                      :      -0.0000000000
  | Normalization factor for density and gradient :       1.0000000000

  Evaluating partitioned Hartree potential by multipole expansion.
  | Original multipole sum: apparent total charge =  -0.168539E-12
  | Sum of charges compensated after spline to logarithmic grids =   0.526844E-07
  | Analytical far-field extrapolation by fixed multipoles:
  | Hartree multipole sum: apparent total charge =  -0.168719E-12
  Summing up the Hartree potential.
  Time summed over all CPUs for potential: real work        0.070 s, elapsed        0.071 s
  | RMS charge density error from multipole expansion :   0.865693E-03

  Integrating Hamiltonian matrix: batch-based integration.
  Time summed over all CPUs for integration: real work        0.256 s, elapsed        0.261 s
  Evaluating the exchange matrix ... 

  Updating Kohn-Sham eigenvalues and eigenvectors using ELSI and the ELPA eigensolver.
  Starting ELPA eigensolver
  Finished transformation to standard eigenproblem
  | Time :     0.000 s
  Finished solving standard eigenproblem
  | Time :     0.000 s
  Finished back-transformation of eigenvectors
  | Time :     0.000 s

  Obtaining occupation numbers and chemical potential using ELSI.
  | Chemical potential (Fermi level):    -5.04219363 eV
  Highest occupied state (VBM) at     -7.39883833 eV
  | Occupation number:      2.00000000

  Lowest unoccupied state (CBM) at    -0.12731577 eV
  | Occupation number:      0.00000000

  Overall HOMO-LUMO gap:      7.27152256 eV.

  Checking to see if s.c.f. parameters should be adjusted.

  Total energy components:
  | Sum of eigenvalues            :       -2010.31281541 Ha      -54703.39498527 eV
  | XC energy correction          :         133.24574795 Ha        3625.80128048 eV
  | XC potential correction       :           0.00000000 Ha           0.00000000 eV
  | Free-atom electrostatic energy:       -1441.77077590 Ha      -39232.57894391 eV
  | Hartree energy correction     :          -1.80973559 Ha         -49.24541102 eV
  | Entropy correction            :           0.00000000 Ha           0.00000000 eV
  | ---------------------------
  | Total energy                  :       -3320.64757895 Ha      -90359.41805972 eV
  | Total energy, T -> 0          :       -3320.64757895 Ha      -90359.41805972 eV  <-- do not rely on this value for anything but (periodic) metals
  | Electronic free energy        :       -3320.64757895 Ha      -90359.41805972 eV

  Derived energy quantities:
  | Kinetic energy                :        3378.07580320 Ha       91922.11955106 eV
  | Electrostatic energy          :       -6565.47763420 Ha     -178655.73633030 eV
  | Energy correction for multipole
  | error in Hartree potential    :          -0.00119680 Ha          -0.03256647 eV
  | Sum of eigenvalues per atom                           :      -27351.69749264 eV
  | Total energy (T->0) per atom                          :      -45179.70902986 eV  <-- do not rely on this value for anything but (periodic) metals
  | Electronic free energy per atom                       :      -45179.70902986 eV

  Self-consistency convergence accuracy:
  | Change of charge density      :  0.9052E+00
  | Change of sum of eigenvalues  :  0.8976E+03 eV
  | Change of total energy        :  0.2837E+02 eV

  End self-consistency iteration #     2       :  max(cpu_time)    wall_clock(cpu1)
  | Time for this iteration                    :        0.060 s           0.060 s
  | Charge density update                      :        0.008 s           0.008 s
  | Density mixing                             :        0.000 s           0.000 s
  | Hartree multipole update                   :        0.002 s           0.002 s
  | Hartree multipole summation                :        0.009 s           0.009 s
  | Integration                                :        0.033 s           0.033 s
  | Fock matrix evaluation                     :        0.005 s           0.005 s
  | Solution of K.-S. eqns.                    :        0.002 s           0.002 s
  | Total energy evaluation                    :        0.000 s           0.000 s

  Partial memory accounting:
  | Current value for overall tracked memory usage:
  |   Minimum:        0.086 MB (on task 3)
  |   Maximum:        0.109 MB (on task 0)
  |   Average:        0.092 MB
  | Peak value for overall tracked memory usage:
  |   Minimum:        0.861 MB (on task 2 after allocating zora_vector2)
  |   Maximum:        0.910 MB (on task 0 after allocating zora_vector2)
  |   Average:        0.888 MB
  | Largest tracked array allocation so far:
  |   Minimum:        0.233 MB (zora_vector1 on task 2)
  |   Maximum:        0.243 MB (zora_vector1 on task 0)
  |   Average:        0.241 MB
  Note:  These values currently only include a subset of arrays which are explicitly tracked.
  The "true" memory usage will be greater.
------------------------------------------------------------

------------------------------------------------------------
          Begin self-consistency iteration #    3

  Date     :  20190817, Time     :  154236.266
------------------------------------------------------------
  Evaluating new KS density.
  Integration grid: deviation in total charge (<rho> - N_e) =   1.421085E-14
  Linear mixing of updated and previous charge densities.
  Renormalizing the density to the exact electron count on the 3D integration grid.
  | Formal number of electrons (from input files) :      58.0000000000
  | Integrated number of electrons on 3D grid     :      58.0000000000
  | Charge integration error                      :       0.0000000000
  | Normalization factor for density and gradient :       1.0000000000

  Evaluating partitioned Hartree potential by multipole expansion.
  | Original multipole sum: apparent total charge =  -0.757985E-13
  | Sum of charges compensated after spline to logarithmic grids =  -0.191401E-07
  | Analytical far-field extrapolation by fixed multipoles:
  | Hartree multipole sum: apparent total charge =  -0.757001E-13
  Summing up the Hartree potential.
  Time summed over all CPUs for potential: real work        0.070 s, elapsed        0.071 s
  | RMS charge density error from multipole expansion :   0.764741E-03

  Integrating Hamiltonian matrix: batch-based integration.
  Time summed over all CPUs for integration: real work        0.255 s, elapsed        0.263 s
  Evaluating the exchange matrix ... 

  Updating Kohn-Sham eigenvalues and eigenvectors using ELSI and the ELPA eigensolver.
  Starting ELPA eigensolver
  Finished transformation to standard eigenproblem
  | Time :     0.000 s
  Finished solving standard eigenproblem
  | Time :     0.001 s
  Finished back-transformation of eigenvectors
  | Time :     0.000 s

  Obtaining occupation numbers and chemical potential using ELSI.
  | Chemical potential (Fermi level):    -6.16762168 eV
  Highest occupied state (VBM) at     -7.45444839 eV
  | Occupation number:      2.00000000

  Lowest unoccupied state (CBM) at    -0.34956777 eV
  | Occupation number:      0.00000000

  Overall HOMO-LUMO gap:      7.10488062 eV.

  Total energy components:
  | Sum of eigenvalues            :       -2018.26219527 Ha      -54919.70861743 eV
  | XC energy correction          :         132.21001060 Ha        3597.61743323 eV
  | XC potential correction       :           0.00000000 Ha           0.00000000 eV
  | Free-atom electrostatic energy:       -1441.77077590 Ha      -39232.57894391 eV
  | Hartree energy correction     :           6.16207895 Ha         167.67869951 eV
  | Entropy correction            :           0.00000000 Ha           0.00000000 eV
  | ---------------------------
  | Total energy                  :       -3321.66088163 Ha      -90386.99142860 eV
  | Total energy, T -> 0          :       -3321.66088163 Ha      -90386.99142860 eV  <-- do not rely on this value for anything but (periodic) metals
  | Electronic free energy        :       -3321.66088163 Ha      -90386.99142860 eV

  Derived energy quantities:
  | Kinetic energy                :        3371.07178225 Ha       91731.53044385 eV
  | Electrostatic energy          :       -6560.52265327 Ha     -178520.90443922 eV
  | Energy correction for multipole
  | error in Hartree potential    :          -0.00111245 Ha          -0.03027127 eV
  | Sum of eigenvalues per atom                           :      -27459.85430872 eV
  | Total energy (T->0) per atom                          :      -45193.49571430 eV  <-- do not rely on this value for anything but (periodic) metals
  | Electronic free energy per atom                       :      -45193.49571430 eV

  Self-consistency convergence accuracy:
  | Change of charge density      :  0.2406E+00
  | Change of sum of eigenvalues  : -0.2163E+03 eV
  | Change of total energy        : -0.2757E+02 eV

  End self-consistency iteration #     3       :  max(cpu_time)    wall_clock(cpu1)
  | Time for this iteration                    :        0.060 s           0.061 s
  | Charge density update                      :        0.008 s           0.008 s
  | Density mixing                             :        0.000 s           0.000 s
  | Hartree multipole update                   :        0.002 s           0.002 s
  | Hartree multipole summation                :        0.009 s           0.009 s
  | Integration                                :        0.033 s           0.033 s
  | Fock matrix evaluation                     :        0.005 s           0.005 s
  | Solution of K.-S. eqns.                    :        0.002 s           0.003 s
  | Total energy evaluation                    :        0.000 s           0.000 s

  Partial memory accounting:
  | Current value for overall tracked memory usage:
  |   Minimum:        0.086 MB (on task 3)
  |   Maximum:        0.109 MB (on task 0)
  |   Average:        0.092 MB
  | Peak value for overall tracked memory usage:
  |   Minimum:        0.861 MB (on task 2 after allocating zora_vector2)
  |   Maximum:        0.910 MB (on task 0 after allocating zora_vector2)
  |   Average:        0.888 MB
  | Largest tracked array allocation so far:
  |   Minimum:        0.233 MB (zora_vector1 on task 2)
  |   Maximum:        0.243 MB (zora_vector1 on task 0)
  |   Average:        0.241 MB
  Note:  These values currently only include a subset of arrays which are explicitly tracked.
  The "true" memory usage will be greater.
------------------------------------------------------------

------------------------------------------------------------
          Begin self-consistency iteration #    4

  Date     :  20190817, Time     :  154236.327
------------------------------------------------------------
  Evaluating new KS density.
  Integration grid: deviation in total charge (<rho> - N_e) =   7.105427E-14
  Linear mixing of updated and previous charge densities.
  Renormalizing the density to the exact electron count on the 3D integration grid.
  | Formal number of electrons (from input files) :      58.0000000000
  | Integrated number of electrons on 3D grid     :      58.0000000000
  | Charge integration error                      :      -0.0000000000
  | Normalization factor for density and gradient :       1.0000000000

  Evaluating partitioned Hartree potential by multipole expansion.
  | Original multipole sum: apparent total charge =  -0.163667E-12
  | Sum of charges compensated after spline to logarithmic grids =   0.122219E-06
  | Analytical far-field extrapolation by fixed multipoles:
  | Hartree multipole sum: apparent total charge =  -0.163731E-12
  Summing up the Hartree potential.
  Time summed over all CPUs for potential: real work        0.070 s, elapsed        0.071 s
  | RMS charge density error from multipole expansion :   0.671837E-03

  Integrating Hamiltonian matrix: batch-based integration.
  Time summed over all CPUs for integration: real work        0.263 s, elapsed        0.284 s
  Evaluating the exchange matrix ... 

  Updating Kohn-Sham eigenvalues and eigenvectors using ELSI and the ELPA eigensolver.
  Starting ELPA eigensolver
  Finished transformation to standard eigenproblem
  | Time :     0.000 s
  Finished solving standard eigenproblem
  | Time :     0.001 s
  Finished back-transformation of eigenvectors
  | Time :     0.000 s

  Obtaining occupation numbers and chemical potential using ELSI.
  | Chemical potential (Fermi level):    -5.17626683 eV
  Highest occupied state (VBM) at     -6.82332826 eV
  | Occupation number:      2.00000000

  Lowest unoccupied state (CBM) at     0.20592089 eV
  | Occupation number:      0.00000000

  Overall HOMO-LUMO gap:      7.02924914 eV.

  Total energy components:
  | Sum of eigenvalues            :       -2012.17564951 Ha      -54754.08528022 eV
  | XC energy correction          :         132.94564601 Ha        3617.63509130 eV
  | XC potential correction       :           0.00000000 Ha           0.00000000 eV
  | Free-atom electrostatic energy:       -1441.77077590 Ha      -39232.57894391 eV
  | Hartree energy correction     :          -0.46617435 Ha         -12.68524959 eV
  | Entropy correction            :           0.00000000 Ha           0.00000000 eV
  | ---------------------------
  | Total energy                  :       -3321.46695375 Ha      -90381.71438242 eV
  | Total energy, T -> 0          :       -3321.46695375 Ha      -90381.71438242 eV  <-- do not rely on this value for anything but (periodic) metals
  | Electronic free energy        :       -3321.46695375 Ha      -90381.71438242 eV

  Derived energy quantities:
  | Kinetic energy                :        3374.93415229 Ha       91836.63088003 eV
  | Electrostatic energy          :       -6563.45546002 Ha     -178600.71017116 eV
  | Energy correction for multipole
  | error in Hartree potential    :          -0.00076142 Ha          -0.02071917 eV
  | Sum of eigenvalues per atom                           :      -27377.04264011 eV
  | Total energy (T->0) per atom                          :      -45190.85719121 eV  <-- do not rely on this value for anything but (periodic) metals
  | Electronic free energy per atom                       :      -45190.85719121 eV

  Self-consistency convergence accuracy:
  | Change of charge density      :  0.1750E+00
  | Change of sum of eigenvalues  :  0.1656E+03 eV
  | Change of total energy        :  0.5277E+01 eV

  End self-consistency iteration #     4       :  max(cpu_time)    wall_clock(cpu1)
  | Time for this iteration                    :        0.063 s           0.063 s
  | Charge density update                      :        0.008 s           0.008 s
  | Density mixing                             :        0.000 s           0.000 s
  | Hartree multipole update                   :        0.002 s           0.002 s
  | Hartree multipole summation                :        0.009 s           0.009 s
  | Integration                                :        0.036 s           0.036 s
  | Fock matrix evaluation                     :        0.005 s           0.005 s
  | Solution of K.-S. eqns.                    :        0.002 s           0.002 s
  | Total energy evaluation                    :        0.000 s           0.000 s

  Partial memory accounting:
  | Current value for overall tracked memory usage:
  |   Minimum:        0.086 MB (on task 3)
  |   Maximum:        0.109 MB (on task 0)
  |   Average:        0.092 MB
  | Peak value for overall tracked memory usage:
  |   Minimum:        0.861 MB (on task 2 after allocating zora_vector2)
  |   Maximum:        0.910 MB (on task 0 after allocating zora_vector2)
  |   Average:        0.888 MB
  | Largest tracked array allocation so far:
  |   Minimum:        0.233 MB (zora_vector1 on task 2)
  |   Maximum:        0.243 MB (zora_vector1 on task 0)
  |   Average:        0.241 MB
  Note:  These values currently only include a subset of arrays which are explicitly tracked.
  The "true" memory usage will be greater.
------------------------------------------------------------

------------------------------------------------------------
          Begin self-consistency iteration #    5

  Date     :  20190817, Time     :  154236.390
------------------------------------------------------------
  Evaluating new KS density.
  Integration grid: deviation in total charge (<rho> - N_e) =   8.526513E-14
  Linear mixing of updated and previous charge densities.
  Renormalizing the density to the exact electron count on the 3D integration grid.
  | Formal number of electrons (from input files) :      58.0000000000
  | Integrated number of electrons on 3D grid     :      58.0000000000
  | Charge integration error                      :       0.0000000000
  | Normalization factor for density and gradient :       1.0000000000

  Evaluating partitioned Hartree potential by multipole expansion.
  | Original multipole sum: apparent total charge =  -0.696337E-13
  | Sum of charges compensated after spline to logarithmic grids =   0.759673E-07
  | Analytical far-field extrapolation by fixed multipoles:
  | Hartree multipole sum: apparent total charge =  -0.697356E-13
  Summing up the Hartree potential.
  Time summed over all CPUs for potential: real work        0.070 s, elapsed        0.072 s
  | RMS charge density error from multipole expansion :   0.635471E-03

  Integrating Hamiltonian matrix: batch-based integration.
  Time summed over all CPUs for integration: real work        0.264 s, elapsed        0.270 s
  Evaluating the exchange matrix ... 

  Updating Kohn-Sham eigenvalues and eigenvectors using ELSI and the ELPA eigensolver.
  Starting ELPA eigensolver
  Finished transformation to standard eigenproblem
  | Time :     0.001 s
  Finished solving standard eigenproblem
  | Time :     0.000 s
  Finished back-transformation of eigenvectors
  | Time :     0.000 s

  Obtaining occupation numbers and chemical potential using ELSI.
  | Chemical potential (Fermi level):    -5.39444867 eV
  Highest occupied state (VBM) at     -6.74448182 eV
  | Occupation number:      2.00000000

  Lowest unoccupied state (CBM) at     0.26107385 eV
  | Occupation number:      0.00000000

  Overall HOMO-LUMO gap:      7.00555567 eV.

  Total energy components:
  | Sum of eigenvalues            :       -2013.53051086 Ha      -54790.95293349 eV
  | XC energy correction          :         132.76505051 Ha        3612.72083761 eV
  | XC potential correction       :           0.00000000 Ha           0.00000000 eV
  | Free-atom electrostatic energy:       -1441.77077590 Ha      -39232.57894391 eV
  | Hartree energy correction     :           0.86871894 Ha          23.63904520 eV
  | Entropy correction            :           0.00000000 Ha           0.00000000 eV
  | ---------------------------
  | Total energy                  :       -3321.66751731 Ha      -90387.17199459 eV
  | Total energy, T -> 0          :       -3321.66751731 Ha      -90387.17199459 eV  <-- do not rely on this value for anything but (periodic) metals
  | Electronic free energy        :       -3321.66751731 Ha      -90387.17199459 eV

  Derived energy quantities:
  | Kinetic energy                :        3373.39540950 Ha       91794.75955850 eV
  | Electrostatic energy          :       -6562.29787630 Ha     -178569.21071548 eV
  | Energy correction for multipole
  | error in Hartree potential    :          -0.00054392 Ha          -0.01480069 eV
  | Sum of eigenvalues per atom                           :      -27395.47646675 eV
  | Total energy (T->0) per atom                          :      -45193.58599729 eV  <-- do not rely on this value for anything but (periodic) metals
  | Electronic free energy per atom                       :      -45193.58599729 eV

  Self-consistency convergence accuracy:
  | Change of charge density      :  0.7933E-01
  | Change of sum of eigenvalues  : -0.3687E+02 eV
  | Change of total energy        : -0.5458E+01 eV

  End self-consistency iteration #     5       :  max(cpu_time)    wall_clock(cpu1)
  | Time for this iteration                    :        0.061 s           0.061 s
  | Charge density update                      :        0.008 s           0.008 s
  | Density mixing                             :        0.000 s           0.000 s
  | Hartree multipole update                   :        0.002 s           0.003 s
  | Hartree multipole summation                :        0.009 s           0.009 s
  | Integration                                :        0.034 s           0.034 s
  | Fock matrix evaluation                     :        0.005 s           0.005 s
  | Solution of K.-S. eqns.                    :        0.002 s           0.002 s
  | Total energy evaluation                    :        0.000 s           0.000 s

  Partial memory accounting:
  | Current value for overall tracked memory usage:
  |   Minimum:        0.086 MB (on task 3)
  |   Maximum:        0.109 MB (on task 0)
  |   Average:        0.092 MB
  | Peak value for overall tracked memory usage:
  |   Minimum:        0.861 MB (on task 2 after allocating zora_vector2)
  |   Maximum:        0.910 MB (on task 0 after allocating zora_vector2)
  |   Average:        0.888 MB
  | Largest tracked array allocation so far:
  |   Minimum:        0.233 MB (zora_vector1 on task 2)
  |   Maximum:        0.243 MB (zora_vector1 on task 0)
  |   Average:        0.241 MB
  Note:  These values currently only include a subset of arrays which are explicitly tracked.
  The "true" memory usage will be greater.
------------------------------------------------------------

------------------------------------------------------------
          Begin self-consistency iteration #    6

  Date     :  20190817, Time     :  154236.451
------------------------------------------------------------
  Evaluating new KS density.
  Integration grid: deviation in total charge (<rho> - N_e) =  -2.131628E-14
  Linear mixing of updated and previous charge densities.
  Renormalizing the density to the exact electron count on the 3D integration grid.
  | Formal number of electrons (from input files) :      58.0000000000
  | Integrated number of electrons on 3D grid     :      58.0000000000
  | Charge integration error                      :      -0.0000000000
  | Normalization factor for density and gradient :       1.0000000000

  Evaluating partitioned Hartree potential by multipole expansion.
  | Original multipole sum: apparent total charge =  -0.201879E-12
  | Sum of charges compensated after spline to logarithmic grids =   0.455549E-07
  | Analytical far-field extrapolation by fixed multipoles:
  | Hartree multipole sum: apparent total charge =  -0.201957E-12
  Summing up the Hartree potential.
  Time summed over all CPUs for potential: real work        0.070 s, elapsed        0.071 s
  | RMS charge density error from multipole expansion :   0.648999E-03

  Integrating Hamiltonian matrix: batch-based integration.
  Time summed over all CPUs for integration: real work        0.262 s, elapsed        0.270 s
  Evaluating the exchange matrix ... 

  Updating Kohn-Sham eigenvalues and eigenvectors using ELSI and the ELPA eigensolver.
  Starting ELPA eigensolver
  Finished transformation to standard eigenproblem
  | Time :     0.000 s
  Finished solving standard eigenproblem
  | Time :     0.001 s
  Finished back-transformation of eigenvectors
  | Time :     0.001 s

  Obtaining occupation numbers and chemical potential using ELSI.
  | Chemical potential (Fermi level):    -5.27592481 eV
  Highest occupied state (VBM) at     -6.60716968 eV
  | Occupation number:      2.00000000

  Lowest unoccupied state (CBM) at     0.35962633 eV
  | Occupation number:      0.00000000

  Overall HOMO-LUMO gap:      6.96679601 eV.

  Total energy components:
  | Sum of eigenvalues            :       -2012.57584892 Ha      -54764.97526042 eV
  | XC energy correction          :         132.89550984 Ha        3616.27081652 eV
  | XC potential correction       :           0.00000000 Ha           0.00000000 eV
  | Free-atom electrostatic energy:       -1441.77077590 Ha      -39232.57894391 eV
[...]
  |   Average:        0.888 MB
  | Largest tracked array allocation so far:
  |   Minimum:        0.233 MB (zora_vector1 on task 2)
  |   Maximum:        0.243 MB (zora_vector1 on task 0)
  |   Average:        0.241 MB
  Note:  These values currently only include a subset of arrays which are explicitly tracked.
  The "true" memory usage will be greater.
------------------------------------------------------------

------------------------------------------------------------
          Post-processing: scaled ZORA corrections to eigenvalues and total energy.

  Date     :  20190817, Time     :  154238.349
------------------------------------------------------------
  Computing correction matrix for scaled ZORA eigenvalues.
  Evaluating scaled zora correction for each Kohn-Sham eigenstate.
  Evaluating scaled zora correction for each Kohn-Sham eigenstate.
  Writing Kohn-Sham eigenvalues.

  State    Occupation    Eigenvalue [Ha]    Eigenvalue [eV]
      1       2.00000        -332.410098        -9045.33898
      2       2.00000        -332.410100        -9045.33905
      3       2.00000         -41.637250        -1133.00721
      4       2.00000         -41.637241        -1133.00698
      5       2.00000         -35.786540         -973.80129
      6       2.00000         -35.786540         -973.80129
      7       2.00000         -35.786537         -973.80121
      8       2.00000         -35.786537         -973.80121
      9       2.00000         -35.785928         -973.78465
     10       2.00000         -35.785920         -973.78444
     11       2.00000          -5.155366         -140.28465
     12       2.00000          -5.155212         -140.28047
     13       2.00000          -3.364710          -91.55843
     14       2.00000          -3.363025          -91.51256
     15       2.00000          -3.363025          -91.51256
     16       2.00000          -3.362866          -91.50824
     17       2.00000          -3.362866          -91.50824
     18       2.00000          -3.362615          -91.50141
     19       2.00000          -0.496340          -13.50609
     20       2.00000          -0.489686          -13.32503
     21       2.00000          -0.489686          -13.32503
     22       2.00000          -0.481409          -13.09980
     23       2.00000          -0.481409          -13.09980
     24       2.00000          -0.477960          -13.00595
     25       2.00000          -0.477960          -13.00594
     26       2.00000          -0.469583          -12.77801
     27       2.00000          -0.469583          -12.77801
     28       2.00000          -0.462660          -12.58963
     29       2.00000          -0.237476           -6.46206
     30       0.00000           0.015465            0.42081
     31       0.00000           0.191847            5.22041
     32       0.00000           0.206619            5.62240
     33       0.00000           0.206619            5.62240
     34       0.00000           0.337461            9.18278
     35       0.00000           0.342975            9.33284
     36       0.00000           0.342975            9.33284
     37       0.00000           0.345746            9.40823
     38       0.00000           0.613287           16.68838
     39       0.00000           1.092058           29.71642
     40       0.00000           1.092058           29.71642
     41       0.00000           1.126636           30.65732
     42       0.00000           1.126636           30.65732
     43       0.00000           1.214579           33.05036
     44       0.00000           1.231943           33.52287
     45       0.00000           1.231943           33.52287
     46       0.00000           1.257174           34.20945
     47       0.00000           1.257174           34.20945
     48       0.00000           1.281929           34.88306
     49       0.00000           1.281929           34.88307
     50       0.00000           1.306276           35.54558
     51       0.00000           1.306276           35.54558
     52       0.00000           1.334016           36.30042
     53       0.00000           1.334016           36.30042
     54       0.00000           1.351304           36.77084
     55       0.00000           1.352244           36.79643
     56       0.00000           1.387679           37.76067
     57       0.00000           1.387679           37.76067
     58       0.00000           1.509673           41.08028
     59       0.00000           1.509673           41.08029
     60       0.00000           1.723483           46.89835
     61       0.00000           1.723483           46.89835
     62       0.00000           1.830279           49.80442
     63       0.00000           1.830279           49.80442
     64       0.00000           1.916037           52.13801
     65       0.00000           1.922651           52.31799
     66       0.00000           1.922651           52.31801
     67       0.00000           1.927030           52.43714
     68       0.00000           1.927030           52.43715
     69       0.00000           1.931723           52.56485
     70       0.00000           2.005936           54.58431
     71       0.00000           2.005936           54.58431
     72       0.00000           2.015303           54.83919
     73       0.00000           2.015304           54.83920
     74       0.00000           2.206162           60.03272
     75       0.00000           2.206162           60.03272
     76       0.00000           2.465794           67.09766
     77       0.00000           2.465795           67.09768
     78       0.00000           2.655742           72.26642
     79       0.00000           2.655742           72.26642
     80       0.00000           2.778555           75.60833

  Highest occupied state (VBM) at     -6.46205633 eV
  | Occupation number:      2.00000000

  Lowest unoccupied state (CBM) at     0.42081451 eV
  | Occupation number:      0.00000000

  Overall HOMO-LUMO gap:      6.88287083 eV.

  Total energy components:
  | Sum of eigenvalues            :       -1996.67225391 Ha      -54332.21642154 eV
  | XC energy correction          :         132.92014898 Ha        3616.94128174 eV
  | XC potential correction       :           0.00000000 Ha           0.00000000 eV
  | Free-atom electrostatic energy:       -1441.77077590 Ha      -39232.57894391 eV
  | Hartree energy correction     :          -0.21023071 Ha          -5.72066864 eV
  | Entropy correction            :           0.00000000 Ha           0.00000000 eV
  | ---------------------------
  | Total energy                  :       -3305.73311153 Ha      -89953.57475235 eV
  | Total energy, T -> 0          :       -3305.73311153 Ha      -89953.57475235 eV  <-- do not rely on this value for anything but (periodic) metals
  | Electronic free energy        :       -3305.73311153 Ha      -89953.57475235 eV

  Derived energy quantities:
  | Kinetic energy                :        3389.39451339 Ha       92230.11732599 eV
  | Electrostatic energy          :       -6562.20747594 Ha     -178566.75079660 eV
  | Energy correction for multipole
  | error in Hartree potential    :           0.00007729 Ha           0.00210319 eV
  | Sum of eigenvalues per atom                           :      -27166.10821077 eV
  | Total energy (T->0) per atom                          :      -44976.78737617 eV  <-- do not rely on this value for anything but (periodic) metals
  | Electronic free energy per atom                       :      -44976.78737617 eV
  End evaluation of scaled ZORA corrections.
  | Time for scaled ZORA corrections           :        0.040 s           0.041 s
------------------------------------------------------------

  Energy and forces in a compact form:
  | Total energy uncorrected      :         -0.899535747523463E+05 eV
  | Total energy corrected        :         -0.899535747523463E+05 eV  <-- do not rely on this value for anything but (periodic) metals
  | Electronic free energy        :         -0.899535747523463E+05 eV

  ------------------------------------ 
  Start decomposition of the XC Energy 
  ------------------------------------ 
  X and C from original XC functional choice 
  Hartree-Fock Energy :        132.920148982 Ha           3616.941281739 eV
  X Energy            :        132.920148982 Ha           3616.941281739 eV
  C Energy            :          0.000000000 Ha              0.000000000 eV
  Total XC Energy     :        132.920148982 Ha           3616.941281739 eV
  ------------------------------------ 
  LDA X and C from self-consistent density 
  X Energy LDA        :       -125.330673119 Ha          -3410.421135896 eV
  C Energy LDA        :         -5.120115762 Ha           -139.325438684 eV
  ------------------------------------ 
  End decomposition of the XC Energy 
  ------------------------------------ 

------------------------------------------------------------
---------------------------------------------
---------------------------------------------
 | MP2 calculation starts ...
---------------------------------------------
---------------------------------------------

  | Note : Resolution of identity applied 
  | Note : Non spin-polarized system 
---------------------------------------------
  | Homo level                                       29
  | Lumo level                                       30
  | Total Number of states                           80
  | Number of k-points                                1
  | Homo-Lumo Gap                            0.25294085 Ha          6.88287083 eV
---------------------------------------------
  The ovlp_3KS matrix takes another      2 MiB x      8 procs =       0.012 GiB.

---------------------------------------------
 
 
 
          ---------------------------------------------
          | MP2 calculation comes to stop ...  
 
          ---------------------------------------------
          | Total time for calculating MP2 correction              :        0.015 s

          ---------------------------------------------

---------------------------------------------
  | HF Energy                      :      -3305.73311153 Ha     -89953.57475235 eV
  | MP2 correction                 :         -0.74489319 Ha        -20.26957510 eV
---------------------------------------------
  | Total Energy + MP2 correction  :      -3306.47800473 Ha     -89973.84432745 eV
---------------------------------------------
  |------------------------------------------------------
  | Final ELSI Output
  |------------------------------------------------------
  |
  | Physical Properties
  |   Number of electrons       :        0.58000000E+02
  |   Number of spins           :                     1
  |   Number of k-points        :                     1
  |   Number of states          :                    80
  |
  | Matrix Properties
  |   Matrix format             :           BLACS_DENSE
  |   Number of basis functions :                    80
  |   Matrix sparsity           :        0.70593750E+00
  |
  | Computational Details
  |   Parallel mode             :            MULTI_PROC
  |   Number of MPI tasks       :                     8
  |   Solver requested          :                  ELPA
  |   Number of ELSI calls      :                    37
  |
  |------------------------------------------------------
  | ELSI Project (c)  elsi-interchange.org
  |------------------------------------------------------

------------------------------------------------------------------------------
  Final output of selected total energy values:

  The following output summarizes some interesting total energy values
  at the end of a run (AFTER all relaxation, molecular dynamics, etc.).

  | Total energy of the DFT / Hartree-Fock s.c.f. calculation      :         -89953.574752346 eV
  | Final zero-broadening corrected energy (caution - metals only) :         -89953.574752346 eV
  | Total energy after the post-s.c.f. correlation calculation     :         -89973.844327448 eV
  | For reference only, the value of 1 Hartree used in FHI-aims is :             27.211384500 eV

  Before relying on these values, please be sure to understand exactly which
  total energy value is referred to by a given number. Different objects may
  all carry the same name 'total energy'. Definitions:

  Total energy of the DFT / Hartree-Fock s.c.f. calculation:
  | Note that this energy does not include ANY quantities calculated after the
  | s.c.f. cycle, in particular not ANY RPA, MP2, etc. many-body perturbation terms.
  | Scalar relativistic effects have been included in the 'scaled ZORA' approximation.

  Final zero-broadening corrected energy:
  | For metallic systems only, a broadening of the occupation numbers at the Fermi
  | level can be extrapolated back to zero broadening by an electron-gas inspired
  | formula. For all systems that are not real metals, this value can be
  | meaningless and should be avoided.

  Total energy of the post-s.c.f. correlation calculation        :
  | Resolution of identity used for the 2-electron Coulomb operator:          RI_V
  | The actual meaning of this energy depends on the setting for the 'total_energy_method'
  | keyword (MP2, RPA, rPT2, etc). If not sure, compare to the results listed above.

------------------------------------------------------------------------------
  Methods described in the following list of references were used in this FHI-aims run.
  If you publish the results, please make sure to cite these reference if they apply.
  FHI-aims is an academic code, and for our developers (often, Ph.D. students
  and postdocs), scientific credit in the community is essential.
  Thank you for helping us!

  For any use of FHI-aims, please cite:

    Volker Blum, Ralf Gehrke, Felix Hanke, Paula Havu, Ville Havu,
    Xinguo Ren, Karsten Reuter, and Matthias Scheffler
    'Ab initio molecular simulations with numeric atom-centered orbitals'
    Computer Physics Communications 180, 2175-2196 (2009)
    http://dx.doi.org/10.1016/j.cpc.2009.06.022


  For Hartree-Fock, hybrid functionals, or many-body perturbation theory used in your run, please cite:

    Xinguo Ren, Patrick Rinke, Volker Blum, Juergen Wieferink, Alex Tkatchenko,
    Andrea Sanfilippo, Karsten Reuter, and Matthias Scheffler,
    'Resolution-of-identity approach to Hartree-Fock, hybrid density functionals,
    RPA, MP2, and GW with numeric atom-centered orbital basis functions'
    New Journal of Physics 14, 053020 (2012).
    http://dx.doi.org/10.1088/1367-2630/14/5/053020


  The ELSI infrastructure was used in your run to solve the Kohn-Sham electronic structure.
  Please check out http://elsi-interchange.org to learn more.
  If scalability is important for your project, please acknowledge ELSI by citing:

    V. W-z. Yu, F. Corsetti, A. Garcia, W. P. Huhn, M. Jacquelin, W. Jia,
    B. Lange, L. Lin, J. Lu, W. Mi, A. Seifitokaldani, A. Vazquez-Mayagoitia,
    C. Yang, H. Yang, and V. Blum
    'ELSI: A unified software interface for Kohn-Sham electronic structure solvers'
    Computer Physics Communications 222, 267-285 (2018).
    http://dx.doi.org/10.1016/j.cpc.2017.09.007


  For the real-space grid partitioning and parallelization used in this calculation, please cite:

    Ville Havu, Volker Blum, Paula Havu, and Matthias Scheffler,
    'Efficient O(N) integration for all-electron electronic structure calculation'
    'using numerically tabulated basis functions'
    Journal of Computational Physics 228, 8367-8379 (2009).
    http://dx.doi.org/10.1016/j.jcp.2009.08.008

  Of course, there are many other important community references, e.g., those cited in the
  above references. Our list is limited to references that describe implementations in the
  FHI-aims code. The reason is purely practical (length of this list) - please credit others as well.

 * Warning - angular integration grids had to be adjusted for use with RI_method 'V'.
 * Background: You are using an electronic structure method that requires RI_method 'V'
 * for the resolution of identity of the Coulomb operator. (See Ren et al.,
 * New J. Phys 2012 for details.) This method requires three-center integrations
 * to be carried out on FHI-aims' normal angular and radial integration grids.
 * (See FHI-aims CPC Blum et al. 2009, p. 2183 for grid details and references.)
 * One of the angular grids specified in your control.in file was not large
 * enough for the maximal angular momenta of orbital and product basis functions
 * for its species.
 * This can lead to atomic total energy errors which cancel in energy differences.
 * Effective Sep 22, 2014, we have changed the default behavior of the code to
 * simply 'upgrade' the angular grids internally to a safe setting in this case.
 * Please be sure to NOT mix total energies from before and after the change.

------------------------------------------------------------
          Leaving FHI-aims.
          Date     :  20190817, Time     :  154238.423

          Computational steps:
          | Number of self-consistency cycles          :           36
          | Number of SCF (re)initializations          :            1

          Detailed time accounting                     :  max(cpu_time)    wall_clock(cpu1)
          | Total time                                 :       12.750 s          12.756 s
          | Preparation time                           :        8.720 s           8.722 s
          | Boundary condition initalization           :        0.000 s           0.000 s
          | Grid partitioning                          :        0.015 s           0.016 s
          | Preloading free-atom quantities on grid    :        0.007 s           0.007 s
          | Free-atom superposition energy             :        0.005 s           0.004 s
          | Total time for integrations                :        1.262 s           1.262 s
          | Product basis setup: Total time            :        1.625 s           1.626 s
          | Product basis: | 3-center integrations     :(       1.320 s)  (       1.320 s)
          | Product basis: | 2-center integrations     :(       0.091 s)  (       0.090 s)
          | Product basis: | 2-center linear algebra   :(       0.043 s)  (       0.043 s)
          | Product basis: | 3-center x 2-center       :(       0.022 s)  (       0.022 s)
          | Total time evaluating exchange matrix      :        0.187 s           0.185 s
          | Transforming ovlp_3fn to ovlp_3KS          :        0.011 s           0.011 s
          | Total time for solution of K.-S. equations :        0.073 s           0.076 s
          | Total time for density update              :        0.285 s           0.281 s
          | Total time for mixing                      :        0.004 s           0.007 s
          | Total time for Hartree multipole update    :        0.080 s           0.080 s
          | Total time for Hartree multipole sum       :        0.336 s           0.334 s
          | Total time for total energy evaluation     :        0.004 s           0.005 s
          | Total time for scaled ZORA corrections     :        0.040 s           0.041 s

          Partial memory accounting:
          | Residual value for overall tracked memory usage across tasks:     0.000000 MB (should be 0.000000 MB)
          | Peak values for overall tracked memory usage:
          |   Minimum:        0.861 MB (on task 2 after allocating zora_vector2)
          |   Maximum:        0.910 MB (on task 0 after allocating zora_vector2)
          |   Average:        0.888 MB
          | Largest tracked array allocation:
          |   Minimum:        0.233 MB (zora_vector1 on task 2)
          |   Maximum:        0.243 MB (zora_vector1 on task 0)
          |   Average:        0.241 MB
          Note:  These values currently only include a subset of arrays which are explicitly tracked.
          The "true" memory usage will be greater.

          Have a nice day.
------------------------------------------------------------
