  MPI-parallelism will be employed.
------------------------------------------------------------
          Invoking FHI-aims ...

          When using FHI-aims, please cite the following reference:

          Volker Blum, Ralf Gehrke, Felix Hanke, Paula Havu,
          Ville Havu, Xinguo Ren, Karsten Reuter, and Matthias Scheffler,
          'Ab Initio Molecular Simulations with Numeric Atom-Centered Orbitals',
          Computer Physics Communications 180, 2175-2196 (2009)

          For any questions about FHI-aims, please visit the aimsclub website
          with its forums and wiki. Contributions to both the forums and the
          wiki are warmly encouraged - they are for you, and everyone is welcome there.

------------------------------------------------------------



  Date     :  20190817, Time     :  153245.548
  Time zero on CPU 1             :   0.493160000000000E-01  s.
  Internal wall clock time zero  :           335287965.548  s.

  FHI-aims created a unique identifier for this run for later identification
  aims_uuid : 0E925E95-2130-4EBF-ADCE-1135FC2854EE

  Build configuration of the current instance of FHI-aims
  -------------------------------------------------------
  FHI-aims version      : 190813
  Commit number         : 3da7baeb3
  CMake host system     : Linux-4.4.180-94.97-default
  CMake version         : 3.5.2
  Fortran compiler      : /mpcdf/soft/SLE_12_SP3/packages/x86_64/intel_parallel_studio/2018.4/compilers_and_libraries_2018.5.274/linux/mpi/bin64/mpiifort (Intel) version 18.0.5.20180823
  Fortran compiler flags: -O3 -ip -fp-model precise
  C compiler            : /mpcdf/soft/SLE_12_SP3/packages/skylake/intel/18.0.5/bin/icc (Intel) version 18.0.5.20180823
  C compiler flags      : -O3 -ip -fp-model precise
  Architecture          :
  Using MPI
  Using Scalapack
  Using C files
  Using SPGlib
  Using i-PI
  Linking against: /mpcdf/soft/SLE_12_SP3/packages/x86_64/anaconda/3.5.1.0/lib/libmkl_intel_lp64.so
                   /mpcdf/soft/SLE_12_SP3/packages/x86_64/anaconda/3.5.1.0/lib/libmkl_sequential.so
                   /mpcdf/soft/SLE_12_SP3/packages/x86_64/anaconda/3.5.1.0/lib/libmkl_core.so
                   /mpcdf/soft/SLE_12_SP3/packages/x86_64/anaconda/3.5.1.0/lib/libmkl_blacs_intelmpi_lp64.so
                   /mpcdf/soft/SLE_12_SP3/packages/x86_64/anaconda/3.5.1.0/lib/libmkl_scalapack_lp64.so

  Using        8 parallel tasks.
  Task        0 on host co1631 reporting.
  Task        1 on host co1631 reporting.
  Task        2 on host co1631 reporting.
  Task        3 on host co1631 reporting.
  Task        4 on host co1631 reporting.
  Task        5 on host co1631 reporting.
  Task        6 on host co1631 reporting.
  Task        7 on host co1631 reporting.

  Performing system and environment tests:
  | Environment variable OMP_NUM_THREADS correctly set to 1.
  | Maximum stacksize for task 0: unlimited
  | Maximum stacksize for task 1: unlimited
  | Maximum stacksize for task 2: unlimited
  | Maximum stacksize for task 3: unlimited
  | Maximum stacksize for task 4: unlimited
  | Maximum stacksize for task 5: unlimited
  | Maximum stacksize for task 6: unlimited
  | Maximum stacksize for task 7: unlimited
  | Current stacksize for task 0: unlimited
  | Current stacksize for task 1: unlimited
  | Current stacksize for task 2: unlimited
  | Current stacksize for task 3: unlimited
  | Current stacksize for task 4: unlimited
  | Current stacksize for task 5: unlimited
  | Current stacksize for task 6: unlimited
  | Current stacksize for task 7: unlimited
  | Checking for scalapack...
  | Testing pdtran()...
  | All pdtran() tests passed.

  Obtaining array dimensions for all initial allocations:
  
  -----------------------------------------------------------------------
  Parsing control.in (first pass over file, find array dimensions only).
  The contents of control.in will be repeated verbatim below
  unless switched off by setting 'verbatim_writeout .false.' .
  in the first line of control.in .
  -----------------------------------------------------------------------
  
  #########################################################################################
  #
  #  William Huhn : Input file for FHI-aims spin-orbit coupling testing
  #
  #########################################################################################
  
  #  Run settings
  #   restart  wf
  #   override_illconditioning .true.
  #   basis_threshold 1E-6
  
  #  Periodic boundary conditions settings
      k_grid 3 3 3
  
  #  Physical model settings
     xc                 pbe
  #   hse_unit           Angstrom
     charge           0.
     spin             none
  #   symmetry_reduced_k_grid .false.
  
  #  Relativistic settings
     relativistic       atomic_zora scalar
     include_spin_orbit
     empty_states 19
  
  #  Periodic G0W0
  #   qpe_calc gw
  
  #  Hybrid Functionals Settings
  #   RI_method LVL_fast
  #   use_logsbt .true.
  #   default_max_l_prodbas 7
  
  #  Relaxation settings
  #   relax_geometry bfgs 1.e-2
  #   relax_unit_cell full
  #   sc_accuracy_forces  5E-4
  #   external_pressure 6.24E-7
  
  #  SCF convergence settings
  #   occupation_type  gaussian 0.2
  #   mixer            pulay
  #   n_max_pulay             10
  #   charge_mix_param        0.2
  #   ini_linear_mixing     10
  #   ini_linear_mix_param  0.05
  #   preconditioner kerker 1.5
  #   precondition_max_l    0
  #   preconditioner turnoff charge 1e-4
  #   preconditioner turnoff sum_ev 1e-1
     sc_accuracy_rho  1E-5
     sc_accuracy_etot 1E-6
     sc_accuracy_eev  1E-5
     sc_iter_limit    100
  #
  #  Output options (examples):
  #
  #  Density of states. The DOS is here evaluated
  #  with an effective 144x144x144 k-point grid.
  #  (12 for each k-space direction in s.c.f., and then denser
  #  by another factor of 12 during post-processing). Check whether the
  #  the DOS is smooth, however - fcc Al may need significantly
  #  more k-points (van Hove singularities in DOS).
  #
  #  The dense dos_kgrid_factors below will take a noticeable amount
  #  of time, but they do lead to a smooth DOS.
  #
  #   output dos -20 30 1000 0.1
  #   dos_kgrid_factors  12 12 12
  #
  #  Strictly for regression test purposes:
      output dos -20 30 1000 0.1
      dos_kgrid_factors  3 3 3
  #
  #  angular momentum channel resolved density of states
  #
  #   output species_proj_dos -20 30 1000 0.1
  #
  #  High-symmetry k-points for FCC band structure output, if requested.
  #
  #   exx_band_structure_version  1
  #
  #  Taken from Setyawan and Curtarolo, 2010
      output band   0.000  0.000  0.000   0.500  0.000  0.500   21      G      X
      output band   0.500  0.000  0.500   0.500  0.250  0.750   21      X      W
      output band   0.500  0.250  0.750   0.375  0.375  0.750   21      W      K
      output band   0.375  0.375  0.750   0.000  0.000  0.000   21      K      G
  #   output band   0.000  0.000  0.000   0.500  0.500  0.500   21      G      L
  #   output band   0.500  0.500  0.500   0.625  0.250  0.625   21      L      U
  #   output band   0.625  0.250  0.625   0.500  0.250  0.750   21      U      W
  #   output band   0.500  0.250  0.750   0.500  0.500  0.500   21      W      L
  #   output band   0.500  0.500  0.500   0.375  0.375  0.750   21      L      K
  #   output band   0.625  0.250  0.625   0.500  0.000  0.500   21      U      X
  
  ################################################################################
  #
  #  FHI-aims code project
  #  VB, Fritz-Haber Institut, 2009
  #
  #  Suggested "light" defaults for Ga atom (to be pasted into control.in file)
  #  Be sure to double-check any results obtained with these settings for post-processing,
  #  e.g., with the "tight" defaults and larger basis sets.
  #
  ################################################################################
    species        Ga
  #     global species definitions
      nucleus             31
      mass                69.723
  #
      l_hartree           4
  #
      cut_pot             3.5          1.5  1.0
      basis_dep_cutoff    1e-4
  #
      radial_base         54 5.0
      radial_multiplier   1
      angular_grids       specified
        division   0.5103   50
        division   0.8880  110
        division   1.2009  194
        division   1.5000  302
  #      division   1.7093  434
  #      division   1.8791  590
  #      division   1.9525  770
  #      division   2.3801 1202
  #      outer_grid  1202
        outer_grid  302
  ################################################################################
  #
  #  Definition of "minimal" basis
  #
  ################################################################################
  #     valence basis states
      valence      4  s   2.
      valence      4  p   1.
      valence      3  d  10.
  #     ion occupancy
      ion_occ      4  s   1.
      ion_occ      3  p   6.
      ion_occ      3  d  10.
  ################################################################################
  #
  #  Suggested additional basis functions. For production calculations,
  #  uncomment them one after another (the most important basis functions are
  #  listed first).
  #
  #  Constructed for dimers: 1.85 A, 2.10 A, 2.45 A, 3.00 A, 4.00 A
  #
  ################################################################################
  #  "First tier" - improvements: -222.33 meV to -26.19 meV
       hydro 2 p 1.2
       hydro 3 d 3.8
  #     hydro 4 f 6.8
       ionic 4 s auto
  #  "Second tier" - improvements: -11.68 meV to -1.61 meV
  #     hydro 5 g 10
  #     hydro 4 p 3.6
  #     hydro 4 f 13.2
  #     hydro 6 h 14.4
  #     hydro 4 d 5.2
  #     hydro 1 s 0.45
  #  "Third tier" - improvements: -0.64 meV to -0.15 meV
  #     hydro 3 p 3.4
  #     hydro 3 s 2.2
  #     hydro 5 g 14
  #     hydro 4 f 6.2
  #     hydro 5 d 7.2
  #  "Fourth tier"  -improvements: -0.12 meV and below
  #     hydro 3 s 3.8
  #     hydro 5 f 27.2
  #     hydro 6 h 16
  #     hydro 5 g 9.2
  #     hydro 4 d 8.6
  #     hydro 2 p 3.6
  
  ################################################################################
  #
  #  FHI-aims code project
  #  VB, Fritz-Haber Institut, 2009
  #
  #  Suggested "light" defaults for As atom (to be pasted into control.in file)
  #  Be sure to double-check any results obtained with these settings for post-processing,
  #  e.g., with the "tight" defaults and larger basis sets.
  #
  ################################################################################
    species        As
  #
      nucleus             33
      mass                74.92160
  #
      l_hartree           4
  #
      cut_pot             3.5          1.5  1.0
      basis_dep_cutoff    1e-4
  #
      radial_base         55 5.0
      radial_multiplier   1
      angular_grids       specified
        division   0.4982   50
        division   0.9113  110
        division   1.1593  194
        division   1.4959  302
  #      division   1.6697  434
  #      division   1.8319  590
  #      division   1.9752  770
  #      division   2.0131  974
  #      division   2.4015 1202
  #      outer_grid  1202
        outer_grid  302
  ################################################################################
  #
  #  Definition of "minimal" basis
  #
  ################################################################################
  #     valence basis states
      valence      4  s   2.
      valence      4  p   3.
      valence      3  d  10.
  #     ion occupancy
      ion_occ      4  s   1.
      ion_occ      4  p   2.
      ion_occ      3  d  10.
  ################################################################################
  #
  #  Suggested additional basis functions. For production calculations,
  #  uncomment them one after another (the most important basis functions are
  #  listed first).
  #
  #  Constructed for dimers: 1.75 A, 2.10 A, 2.50 A, 3.00 A, 4.00 A
  #
  ################################################################################
  #  "First tier" - improvements: -385.12 meV to -54.94 meV
       hydro 3 d 4
       hydro 2 p 1.5
  #     hydro 4 f 6.8
       ionic 4 s auto
  #  "Second tier" - improvements: -22.14 meV to -3.21 meV
  #     hydro 5 g 10
  #     hydro 6 h 13.6
  #     hydro 4 p 4.3
  #     hydro 4 f 15.6
  #     hydro 4 d 5.4
  #     hydro 1 s 0.6
  #  "Third tier" - improvements: -0.57 meV to -0.13 meV
  #     hydro 5 g 16.4
  #     hydro 4 f 7.4
  #     hydro 5 d 7.4
  #     ionic 4 p auto
  #     hydro 3 s 2.6
  #  "Fourth tier" - improvements: -0.30 meV and below
  #     hydro 3 p 3
  #     hydro 6 h 18.4
  #     hydro 5 d 11.2
  #     hydro 5 f 15.2
  #     hydro 5 g 13.6
  #     hydro 5 s 6.2
  
  -----------------------------------------------------------------------
  Completed first pass over input file control.in .
  -----------------------------------------------------------------------
  
  
  -----------------------------------------------------------------------
  Parsing geometry.in (first pass over file, find array dimensions only).
  The contents of geometry.in will be repeated verbatim below
  unless switched off by setting 'verbatim_writeout .false.' .
  in the first line of geometry.in .
  -----------------------------------------------------------------------
  
  # Straumanis M.E., and Kim C.D., Phase Extent of Gallium Arsenide Determined by the Lattice Constant and Density Method, Acta Crysta
  lattice_vector           0   2.8266   2.8266
  lattice_vector      2.8266        0   2.8266
  lattice_vector      2.8266   2.8266        0
  
  atom_frac        0        0        0 Ga
  atom_frac     0.25     0.25     0.25 As
  
  -----------------------------------------------------------------------
  Completed first pass over input file geometry.in .
  -----------------------------------------------------------------------
  

  Basic array size parameters:
  | Number of species                 :        2
  | Number of atoms                   :        2
  | Number of lattice vectors         :        3
  | Max. basis fn. angular momentum   :        2
  | Max. atomic/ionic basis occupied n:        4
  | Max. number of basis fn. types    :        3
  | Max. radial fns per species/type  :        8
  | Max. logarithmic grid size        :     1417
  | Max. radial integration grid size :       55
  | Max. angular integration grid size:      302
  | Max. angular grid division number :        8
  | Radial grid for Hartree potential :     1417
  | Number of spin channels           :        1

------------------------------------------------------------
          Reading file control.in.
------------------------------------------------------------
  Found k-point grid:         3         3         3
  XC: Using PBE gradient-corrected functionals.
  Charge =   0.000000E+00: Neutral system requested explicitly.
  Spin treatment: No spin polarisation.
  Scalar relativistic treatment of kinetic energy: on-site free-atom approximation to ZORA.
  Calculating non-self-consistent second-variational spin-orbit coupling after scf-cycle
  Number of empty states per atom:       19
  Convergence accuracy of self-consistent charge density:  0.1000E-04
  Convergence accuracy of total energy:  0.1000E-05
  Convergence accuracy of sum of eigenvalues:  0.1000E-04
  Maximum number of s.-c. iterations  :   100
  Calculating density of states with
  | energy interval :-20.000000 30.000000
  | points & broadening :  1000  0.100000
  Found k-point grid multipliers for perturbative DOS :         3         3         3

  Plot band    1
  | begin  0.000000  0.000000  0.000000
  | end    0.500000  0.000000  0.500000
  | number of points:   21

  Plot band    2
  | begin  0.500000  0.000000  0.500000
  | end    0.500000  0.250000  0.750000
  | number of points:   21

  Plot band    3
  | begin  0.500000  0.250000  0.750000
  | end    0.375000  0.375000  0.750000
  | number of points:   21

  Plot band    4
  | begin  0.375000  0.375000  0.750000
  | end    0.000000  0.000000  0.000000
  | number of points:   21
 
  Reading configuration options for species Ga                  .
  | Found nuclear charge :  31.0000
  | Found atomic mass :    69.7230000000000      amu
  | Found l_max for Hartree potential  :   4
  | Found cutoff potl. onset [A], width [A], scale factor :    3.50000    1.50000    1.00000
  | Threshold for basis-dependent cutoff potential is   0.100000E-03
  | Found data for basic radial integration grid :    54 points, outermost radius =    5.000 A
  | Found multiplier for basic radial grid :   1
  | Found angular grid specification: user-specified.
  | Specified grid contains     5 separate shells.
  | Check grid settings after all constraints further below.
  | Found free-atom valence shell :  4 s   2.000
  | Found free-atom valence shell :  4 p   1.000
  | Found free-atom valence shell :  3 d  10.000
  | Found free-ion valence shell :  4 s   1.000
  | Found free-ion valence shell :  3 p   6.000
  | Found free-ion valence shell :  3 d  10.000
  | Found hydrogenic basis function :  2 p   1.200
  | Found hydrogenic basis function :  3 d   3.800
  | Found ionic basis function :  4 s , default cutoff radius.
  Species Ga                  : Missing cutoff potential type.
  Defaulting to exp(1/x)/(1-x)^2 type cutoff potential.
  Species Ga: No 'logarithmic' tag. Using default grid for free atom:
  | Default logarithmic grid data [bohr] : 0.1000E-03 0.1000E+03 0.1012E+01
  | Will include ionic basis functions of  2.0-fold positive Ga                   ion.
  Species Ga: On-site basis accuracy parameter (for Gram-Schmidt orthonormalisation) not specified.
  Using default value basis_acc =  0.1000000E-03.
  Species Ga                  : Using default innermost maximum threshold i_radial=  2 for radial functions.
  Species Ga                  : Default cutoff onset for free atom density etc. : 0.35000000E+01 AA.
  Species Ga                  : Basic radial grid will be enhanced according to radial_multiplier =   1, to contain    54 grid points.
 
  Reading configuration options for species As                  .
  | Found nuclear charge :  33.0000
  | Found atomic mass :    74.9216000000000      amu
  | Found l_max for Hartree potential  :   4
  | Found cutoff potl. onset [A], width [A], scale factor :    3.50000    1.50000    1.00000
  | Threshold for basis-dependent cutoff potential is   0.100000E-03
  | Found data for basic radial integration grid :    55 points, outermost radius =    5.000 A
  | Found multiplier for basic radial grid :   1
  | Found angular grid specification: user-specified.
  | Specified grid contains     5 separate shells.
  | Check grid settings after all constraints further below.
  | Found free-atom valence shell :  4 s   2.000
  | Found free-atom valence shell :  4 p   3.000
  | Found free-atom valence shell :  3 d  10.000
  | Found free-ion valence shell :  4 s   1.000
  | Found free-ion valence shell :  4 p   2.000
  | Found free-ion valence shell :  3 d  10.000
  | Found hydrogenic basis function :  3 d   4.000
  | Found hydrogenic basis function :  2 p   1.500
  | Found ionic basis function :  4 s , default cutoff radius.
  Species As                  : Missing cutoff potential type.
  Defaulting to exp(1/x)/(1-x)^2 type cutoff potential.
  Species As: No 'logarithmic' tag. Using default grid for free atom:
  | Default logarithmic grid data [bohr] : 0.1000E-03 0.1000E+03 0.1012E+01
  | Will include ionic basis functions of  2.0-fold positive As                   ion.
  Species As: On-site basis accuracy parameter (for Gram-Schmidt orthonormalisation) not specified.
  Using default value basis_acc =  0.1000000E-03.
  Species As                  : Using default innermost maximum threshold i_radial=  2 for radial functions.
  Species As                  : Default cutoff onset for free atom density etc. : 0.35000000E+01 AA.
  Species As                  : Basic radial grid will be enhanced according to radial_multiplier =   1, to contain    55 grid points.
 
  Finished reading input file 'control.in'. Consistency checks are next.
 
  MPI_IN_PLACE appears to work with this MPI implementation.
  | Keeping use_mpi_in_place .true. (see manual).
  Target number of points in a grid batch is not set. Defaulting to  100
  Method for grid partitioning is not set. Defaulting to parallel hash+maxmin partitioning.
  Batch size limit is not set. Defaulting to    200
  By default, will store active basis functions for each batch.
  If in need of memory, prune_basis_once .false. can be used to disable this option.
  communication_type for Hartree potential was not specified.
  Defaulting to calc_hartree .
  Defaulting to Pulay charge density mixer.
  Pulay mixer: Number of relevant iterations not set.
  Defaulting to    8 iterations.
  Pulay mixer: Number of initial linear mixing iterations not set.
  Defaulting to    0 iterations.
  Work space size for distributed Hartree potential not set.
  Defaulting to   0.200000E+03 MB.
  Mixing parameter for charge density mixing has not been set.
  Using default: charge_mix_param =     0.0500.
  The mixing parameter will be adjusted in iteration number     2 of the first full s.c.f. cycle only.
  Algorithm-dependent basis array size parameters:
  | n_max_pulay                         :        8
  Presetting      1001 iterations before the initial mixing cycle
  is restarted anyway using the sc_init_iter criterion / keyword.
  Presetting a factor      1.000 between actual scf density residual
  and density convergence criterion sc_accuracy_rho below which sc_init_iter
  takes no effect.
  Calculation of forces was not defined in control.in. No forces will be calculated.
  Geometry relaxation not requested: no relaxation will be performed.
  No accuracy limit for integral partition fn. given. Defaulting to  0.1000E-14.
  No threshold value for u(r) in integrations given. Defaulting to  0.1000E-05.
  No occupation type (smearing scheme) given. Defaulting to Gaussian broadening, width =  0.1000E-01 eV.
  The width will be adjusted in iteration number     2 of the first full s.c.f. cycle only.
  S.C.F. convergence parameters will be adjusted in iteration number     2 of the first full s.c.f. cycle only.
  No accuracy for occupation numbers given. Defaulting to  0.1000E-12.
  No threshold value for occupation numbers given. Defaulting to  0.0000E+00.
  No accuracy for fermi level given. Defaulting to  0.1000E-19.
  Maximum # of iterations to find E_F not set. Defaulting to  200.
  Preferred method for the eigenvalue solver ('KS_method') not specified in 'control.in'.
  Defaulting to serial version, LAPACK (via ELSI), since more k-points than CPUs available.
  Will not use alltoall communication since running on < 1024 CPUs.
  Threshold for basis singularities not set.
  Default threshold for basis singularities:  0.1000E-04
  partition_type (choice of integration weights) for integrals was not specified.
  | Using a version of the partition function of Stratmann and coworkers ('stratmann_sparse').
  | At each grid point, the set of atoms used to build the partition table is smoothly restricted to
  | only those atoms whose free-atom density would be non-zero at that grid point.
  Partitioning for Hartree potential was not defined. Using partition_type for integrals.
  | Adjusted default value of keyword multip_moments_threshold to:       0.10000000E-11
  | This value may affect high angular momentum components of the Hartree potential in periodic systems.
  Angular momentum expansion for Kerker preconditioner not set explicitly.
  | Using default value of   0
  No explicit requirement for turning off preconditioner.
  | By default, it will be turned off when the charge convergence reaches
  | sc_accuracy_rho  =   0.100000E-04
  | sc_accuracy_eev  =   0.100000E-04
  | sc_accuracy_etot =   0.100000E-05
  No special mixing parameter while Kerker preconditioner is on.
  Using default: charge_mix_param =     0.0500.
  No q(lm)/r^(l+1) cutoff set for long-range Hartree potential.
  | Using default value of  0.100000E-09 .
  | Verify using the multipole_threshold keyword.
  Defaulting to new monopole extrapolation.
  Density update method: automatic selection selected.
  Using density matrix based charge density update.
  Using density matrix based charge density update.
  Using packed matrix style: index .
  Defaulting to use time-reversal symmetry for k-point grid.
  Charge integration errors on the 3D integration grid will be compensated
  by explicit normalization and distribution of residual charges.
  Use the "compensate_multipole_errors" flag to change this behaviour.
------------------------------------------------------------


------------------------------------------------------------
          Reading geometry description geometry.in.
------------------------------------------------------------
  Input structure read successfully.
  The structure contains        2 atoms,  and a total of         64.000 electrons.

  Input geometry:
  | Unit cell:
  |        0.00000000        2.82660000        2.82660000
  |        2.82660000        0.00000000        2.82660000
  |        2.82660000        2.82660000        0.00000000
  | Atomic structure:
  |       Atom                x [A]            y [A]            z [A]
  |    1: Species Ga            0.00000000        0.00000000        0.00000000
  |    2: Species As            1.41330000        1.41330000        1.41330000

  Lattice parameters for 3D lattice (in Angstroms) :     3.997416    3.997416    3.997416
  Angle(s) between unit vectors (in degrees)       :    60.000000   60.000000   60.000000

  | The smallest distance between any two atoms is         2.44790741 AA.
  | The first atom of this pair is atom number                      1 .
  | The second atom of this pair is atom number                     2 .
  | Wigner-Seitz cell of the first atom image           1     0     0 .
  | (The Wigner-Seitz cell of the second atom is 0 0 0  by definition.)

  Symmetry information by spglib:
  | Precision set to  0.1E-04
  | Number of Operations  : 24
  | Space group           : 216
  | International         : F-43m   0 f
  | Schoenflies           : Td^2

  Quantities derived from the lattice vectors:
  | Reciprocal lattice vector 1: -1.111439  1.111439  1.111439
  | Reciprocal lattice vector 2:  1.111439 -1.111439  1.111439
  | Reciprocal lattice vector 3:  1.111439  1.111439 -1.111439
  | Unit cell volume                               :   0.451672E+02  A^3

  Range separation radius for Ewald summation (hartree_convergence_parameter):      4.06367653 bohr.

  Fractional coordinates:
                         L1                L2                L3
       atom_frac         0.00000000        0.00000000        0.00000000  Ga
       atom_frac         0.25000000        0.25000000        0.25000000  As

  Structure-dependent array size parameters: 
  | Maximum number of distinct radial functions  :       22
  | Maximum number of basis functions            :       54
  | Number of Kohn-Sham states (occupied + empty):       51
------------------------------------------------------------

------------------------------------------------------------
          Preparing all fixed parts of the calculation.
------------------------------------------------------------
  Determining machine precision:
    2.225073858507201E-308
  Setting up grids for atomic and cluster calculations.

  Creating wave function, potential, and density for free atoms.

  Species: Ga

  List of occupied orbitals and eigenvalues:
    n    l              occ      energy [Ha]    energy [eV]
    1    0           2.0000      -380.489758    -10353.6531
    2    0           2.0000       -46.460587     -1264.2569
    3    0           2.0000        -5.427793      -147.6978
    4    0           2.0000        -0.316119        -8.6020
    2    1           6.0000       -40.433986     -1100.2647
    3    1           6.0000        -3.616323       -98.4052
    4    1           1.0000        -0.078625        -2.1395
    3    2          10.0000        -0.688008       -18.7217


  Species: As

  List of occupied orbitals and eigenvalues:
    n    l              occ      energy [Ha]    energy [eV]
    1    0           2.0000      -436.643669    -11881.6788
    2    0           2.0000       -54.749877     -1489.8200
    3    0           2.0000        -6.987029      -190.1267
    4    0           2.0000        -0.526374       -14.3234
    2    1           6.0000       -47.996715     -1306.0571
    3    1           6.0000        -4.904622      -133.4616
    4    1           3.0000        -0.184722        -5.0265
    3    2          10.0000        -1.486454       -40.4485

  Creating fixed part of basis set: Ionic, confined, hydrogenic.
 
  Ga                   ion:

  List of free ionic orbitals and eigenvalues:
    n    l      energy [Ha]    energy [eV]
    1    0      -381.269939    -10374.8829
    2    0       -47.220675     -1284.9399
    3    0        -6.191291      -168.4736
    4    0        -0.957864       -26.0648
    2    1       -41.195167     -1120.9775
    3    1        -4.379935      -119.1841
    3    2        -1.446562       -39.3629


  List of ionic basis orbitals and eigenvalues:
    n    l      energy [Ha]    energy [eV]    outer radius [A]
    4    0        -0.957837       -26.0641       4.370145

 
  Ga                   hydrogenic:
 
  List of hydrogenic basis orbitals: 
    n    l      effective z      eigenvalue [eV]  inner max. [A]     outer max. [A]     outer radius [A]   
    2    1         1.200000        -4.5108           1.643450           1.643450           4.589156
    3    2         3.800000       -21.8139           1.255894           1.255894           4.589156
 
 
  As                   ion:

  List of free ionic orbitals and eigenvalues:
    n    l      energy [Ha]    energy [eV]
    1    0      -437.521171    -11905.5568
    2    0       -55.607242     -1513.1500
    3    0        -7.840974      -213.3638
    4    0        -1.261898       -34.3380
    2    1       -48.854908     -1329.4097
    3    1        -5.758049      -156.6845
    4    1        -0.860696       -23.4207
    3    2        -2.335871       -63.5623


  List of ionic basis orbitals and eigenvalues:
    n    l      energy [Ha]    energy [eV]    outer radius [A]
    4    0        -1.261879       -34.3375       3.909368

 
  As                   hydrogenic:
 
  List of hydrogenic basis orbitals: 
    n    l      effective z      eigenvalue [eV]  inner max. [A]     outer max. [A]     outer radius [A]   
    3    2         4.000000       -24.1792           1.194291           1.194291           4.582756
    2    1         1.500000        -7.5079           1.382996           1.382996           4.582756
 

  Adding cutoff potential to free-atom effective potential.
  Creating atomic-like basis functions for current effective potential.

  Species Ga                  :

  List of atomic basis orbitals and eigenvalues:
    n    l      energy [Ha]    energy [eV]    outer radius [A]
    1    0      -380.489758    -10353.6531       0.339519
    2    0       -46.460587     -1264.2569       0.983486
    3    0        -5.427793      -147.6978       2.780058
    4    0        -0.316119        -8.6020       4.533395
    2    1       -40.433986     -1100.2647       1.020225
    3    1        -3.616323       -98.4052       3.258922
    4    1        -0.078625        -2.1395       4.589156
    3    2        -0.688008       -18.7217       4.370145


  Species As                  :

  List of atomic basis orbitals and eigenvalues:
    n    l      energy [Ha]    energy [eV]    outer radius [A]
    1    0      -436.643669    -11881.6788       0.318942
    2    0       -54.749877     -1489.8200       0.912655
    3    0        -6.987029      -190.1267       2.486936
    4    0        -0.526374       -14.3234       4.527073
    2    1       -47.996715     -1306.0571       0.946748
    3    1        -4.904622      -133.4616       2.844895
    4    1        -0.184722        -5.0265       4.582756
    3    2        -1.486454       -40.4485       4.155782

  Assembling full basis from fixed parts.
  | Species Ga :   atomic orbital   1 s accepted.
  | Species Ga :   atomic orbital   2 s accepted.
  | Species Ga :   atomic orbital   3 s accepted.
  | Species Ga :    ionic orbital   4 s accepted.
  | Species Ga :   atomic orbital   4 s accepted.
  | Species Ga :   atomic orbital   2 p accepted.
  | Species Ga :   atomic orbital   3 p accepted.
  | Species Ga :   atomic orbital   4 p accepted.
  | Species Ga :    hydro orbital   2 p accepted.
  | Species Ga :   atomic orbital   3 d accepted.
  | Species Ga :    hydro orbital   3 d accepted.
  | Species As :   atomic orbital   1 s accepted.
  | Species As :   atomic orbital   2 s accepted.
  | Species As :   atomic orbital   3 s accepted.
  | Species As :    ionic orbital   4 s accepted.
  | Species As :   atomic orbital   4 s accepted.
  | Species As :   atomic orbital   2 p accepted.
  | Species As :   atomic orbital   3 p accepted.
  | Species As :   atomic orbital   4 p accepted.
  | Species As :    hydro orbital   2 p accepted.
  | Species As :   atomic orbital   3 d accepted.
  | Species As :    hydro orbital   3 d accepted.
 
  Basis size parameters after reduction:
  | Total number of radial functions:       22
  | Total number of basis functions :       54
 
  Per-task memory consumption for arrays in subroutine allocate_ext:
  |           7.983024MB.
  Testing on-site integration grid accuracy.
  |  Species  Function  <phi|h_atom|phi> (log., in eV)  <phi|h_atom|phi> (rad., in eV)
           1        1             -10353.6531083681             -10353.6426064854
           1        2              -1264.2568837927              -1264.2567574771
           1        3               -147.6977694494               -147.6977664834
           1        4                 -8.2157067915                 -8.2156220906
           1        5                  5.3691127490                  5.2869956537 ***
           1        6              -1100.2647267038              -1100.2647251320
           1        7                -98.4051589771                -98.4051585337
           1        8                 -2.1632502565                 -2.1936630377 ***
           1        9                  7.2154195323                  7.0101703907 ***
           1       10                -18.7216618083                -18.7216626724
           1       11                  9.0922871809                  9.0865043987
           2       12             -11881.6787704378             -11881.6655406426
           2       13              -1489.8199667950              -1489.8198039400
           2       14               -190.1267359814               -190.1267316790
           2       15                -14.0698329783                -14.0699220836
           2       16                  6.0555617388                  6.0761392932
           2       17              -1306.0570746169              -1306.0570739251
           2       18               -133.4615612685               -133.4615604617
           2       19                 -5.0319582430                 -5.0383328047
           2       20                  6.3445176426                  6.2354835442 ***
           2       21                -40.4484584789                -40.4484582371
           2       22                  7.3305608433                  7.3275160176
 * Note: Onsite integrals marked "***" above are less accurate than
 * onsite_accuracy_threshold =    0.03000 eV. Usually, this is harmless.
 * However, one integral did have a negative value. This integral could be important.
 * When in doubt, tighten the "radial" and/or "radial_multiplier" flags to check.

  Preparing densities etc. for the partition functions (integrals / Hartree potential).

  Preparations completed.
  max(cpu_time)          :      0.393 s.
  Wall clock time (cpu1) :      0.393 s.
------------------------------------------------------------

------------------------------------------------------------
          Begin self-consistency loop: Initialization.

          Date     :  20190817, Time     :  153245.995
------------------------------------------------------------

  Initializing index lists of integration centers etc. from given atomic structure:
  Mapping all atomic coordinates to central unit cell.

  Initializing the k-points
          Using symmetry for reducing the k-points
  | k-points reduced from:       27 to       14
  | Number of k-points                             :        14
  The eigenvectors in the calculations are COMPLEX.
  | K-points in task   0:         1
  | K-points in task   1:         2
  | K-points in task   2:         2
  | K-points in task   3:         2
  | K-points in task   4:         2
  | K-points in task   5:         2
  | K-points in task   6:         2
  | K-points in task   7:         1
  | Number of basis functions in the Hamiltonian integrals :      1435
  | Number of basis functions in a single unit cell        :        54
  | Number of centers in hartree potential         :       708
  | Number of centers in hartree multipole         :       318
  | Number of centers in electron density summation:       190
  | Number of centers in basis integrals           :       198
  | Number of centers in integrals                 :       101
  | Number of centers in hamiltonian               :       190
  | Consuming         24 KiB for k_phase.
  | Number of super-cells (origin) [n_cells]                     :        2197
  | Number of super-cells (after PM_index) [n_cells]             :         112
  | Number of super-cells in hamiltonian [n_cells_in_hamiltonian]:         112
  | Size of matrix packed + index [n_hamiltonian_matrix_size] :       71243
  | Estimated reciprocal-space cutoff momentum G_max:         2.29238017 bohr^-1 .
  | Reciprocal lattice points for long-range Hartree potential:      58
  Partitioning the integration grid into batches with parallel hashing+maxmin method.
  | Number of batches:      192
  | Maximal batch size:      91
  | Minimal batch size:      67
  | Average batch size:      75.823
  | Standard deviation of batch sizes:       8.939

  Integration load balanced across     8 MPI tasks.
  Work distribution over tasks is as follows:
  Task     0 has       1866 integration points.
  Task     1 has       1827 integration points.
  Task     2 has       1811 integration points.
  Task     3 has       1826 integration points.
  Task     4 has       1811 integration points.
  Task     5 has       1821 integration points.
  Task     6 has       1821 integration points.
  Task     7 has       1775 integration points.
  Initializing partition tables, free-atom densities, potentials, etc. across the integration grid (initialize_grid_storage).
  | initialize_grid_storage: Actual outermost partition radius vs. multipole_radius_free
  | (-- VB: in principle, multipole_radius_free should be larger, hence this output)
  | Species        1: Confinement radius =              4.999999999999999 AA, multipole_radius_free =              5.060654947817020 AA.
  | Species        1: outer_partition_radius set to              5.060654947817020 AA .
  | Species        2: Confinement radius =              4.999999999999999 AA, multipole_radius_free =              5.053598046169615 AA.
  | Species        2: outer_partition_radius set to              5.053598046169615 AA .
  | The sparse table of interatomic distances needs        212.76 kbyte instead of       313.63 kbyte of memory.
  | Net number of integration points:    14558
  | of which are non-zero points    :    13086
  | Numerical average free-atom electrostatic potential    :    -14.55266589 eV
  Renormalizing the initial density to the exact electron count on the 3D integration grid.
  | Initial density: Formal number of electrons (from input files) :      64.0000000000
  | Integrated number of electrons on 3D grid     :      64.0036139595
  | Charge integration error                      :       0.0036139595
  | Normalization factor for density and gradient :       0.9999435351
  Renormalizing the free-atom superposition density to the exact electron count on the 3D integration grid.
  | Formal number of electrons (from input files) :      64.0000000000
  | Integrated number of electrons on 3D grid     :      64.0036139595
  | Charge integration error                      :       0.0036139595
  | Normalization factor for density and gradient :       0.9999435351
  Obtaining max. number of non-zero basis functions in each batch (get_n_compute_maxes).
  | Maximal number of non-zero basis functions:      522 in task     0
  | Maximal number of non-zero basis functions:      524 in task     1
  | Maximal number of non-zero basis functions:      535 in task     2
  | Maximal number of non-zero basis functions:      547 in task     3
  | Maximal number of non-zero basis functions:      525 in task     4
  | Maximal number of non-zero basis functions:      530 in task     5
  | Maximal number of non-zero basis functions:      526 in task     6
  | Maximal number of non-zero basis functions:      531 in task     7
  Allocating        0.042 MB for KS_eigenvector_complex
  Integrating Hamiltonian matrix: batch-based integration.
  Time summed over all CPUs for integration: real work        0.644 s, elapsed        0.658 s
  Integrating overlap matrix.
  Time summed over all CPUs for integration: real work        0.428 s, elapsed        0.436 s
  Decreasing sparse matrix size:
   Tolerance:  9.999999824516700E-014
   Hamiltonian matrix
  | Array has    58704 nonzero elements out of    71243 elements
  | Sparsity factor is 0.176
   Overlap matrix
  | Array has    53704 nonzero elements out of    71243 elements
  | Sparsity factor is 0.246
  New size of hamiltonian matrix:       59281

  Updating Kohn-Sham eigenvalues and eigenvectors using ELSI and the (modified) LAPACK eigensolver.
  Singularity check in k-point 8, task 0 (analysis for other k-points/tasks may follow below):
  Overlap matrix is not singular
  | Lowest and highest eigenvalues :  0.1479E-02,  0.4801E+01
  Finished singularity check of overlap matrix
  | Time :     0.001 s
  Starting LAPACK eigensolver
  Finished Cholesky decomposition
  | Time :     0.000 s
  Finished transformation to standard eigenproblem
  | Time :     0.000 s
  Finished solving standard eigenproblem
  | Time :     0.001 s
  Finished back-transformation of eigenvectors
  | Time :     0.000 s

  Obtaining occupation numbers and chemical potential using ELSI.
  | Chemical potential (Fermi level):    -4.93854349 eV
  Writing Kohn-Sham eigenvalues.
  K-point:       1 at    0.000000    0.000000    0.000000 (in units of recip. lattice)

  State    Occupation    Eigenvalue [Ha]    Eigenvalue [eV]
      1       2.00000        -436.660668       -11882.14133
      2       2.00000        -380.502400       -10353.99711
      3       2.00000         -54.767556        -1490.30101
      4       2.00000         -48.014339        -1306.53664
      5       2.00000         -48.014339        -1306.53664
      6       2.00000         -48.014339        -1306.53664
      7       2.00000         -46.473838        -1264.61748
      8       2.00000         -40.447174        -1100.62361
      9       2.00000         -40.447174        -1100.62361
     10       2.00000         -40.447174        -1100.62361
     11       2.00000          -7.007541         -190.68488
     12       2.00000          -5.444277         -148.14632
     13       2.00000          -4.925465         -134.02873
     14       2.00000          -4.925465         -134.02873
     15       2.00000          -4.925465         -134.02873
     16       2.00000          -3.633328          -98.86789
     17       2.00000          -3.633328          -98.86789
     18       2.00000          -3.633328          -98.86789
     19       2.00000          -1.509027          -41.06271
     20       2.00000          -1.509027          -41.06271
     21       2.00000          -1.509027          -41.06271
     22       2.00000          -1.508484          -41.04793
     23       2.00000          -1.508484          -41.04793
     24       2.00000          -0.712237          -19.38097
     25       2.00000          -0.712237          -19.38097
     26       2.00000          -0.712237          -19.38097
     27       2.00000          -0.708517          -19.27972
     28       2.00000          -0.708517          -19.27972
     29       2.00000          -0.673206          -18.31886
     30       2.00000          -0.206469           -5.61829
     31       2.00000          -0.206469           -5.61829
     32       2.00000          -0.206469           -5.61829
     33       0.00000          -0.179736           -4.89086
     34       0.00000          -0.054779           -1.49061
     35       0.00000          -0.054779           -1.49061
     36       0.00000          -0.054779           -1.49061
     37       0.00000           0.141594            3.85297
     38       0.00000           0.192275            5.23207
     39       0.00000           0.192275            5.23207
     40       0.00000           0.379223           10.31917
     41       0.00000           0.379223           10.31917
     42       0.00000           0.379223           10.31917
     43       0.00000           0.819236           22.29254
     44       0.00000           0.819236           22.29254
     45       0.00000           0.819236           22.29254
     46       0.00000           0.930298           25.31470
     47       0.00000           0.952046           25.90650
     48       0.00000           0.952046           25.90650
     49       0.00000           1.030969           28.05410
     50       0.00000           1.030969           28.05410
     51       0.00000           1.030969           28.05410

  What follows are estimated values for band gap, HOMO, LUMO, etc.
  | They are estimated on a discrete k-point grid and not necessarily exact.
  | For converged numbers, create a DOS and/or band structure plot on a denser k-grid.

  Highest occupied state (VBM) at     -5.61829391 eV (relative to internal zero)
  | Occupation number:      2.00000000
  | K-point:       1 at    0.000000    0.000000    0.000000 (in units of recip. lattice)

  Lowest unoccupied state (CBM) at    -4.89085646 eV (relative to internal zero)
  | Occupation number:      0.00000000
  | K-point:       1 at    0.000000    0.000000    0.000000 (in units of recip. lattice)

  ESTIMATED overall HOMO-LUMO gap:      0.72743745 eV between HOMO at k-point 1 and LUMO at k-point 1
  | This appears to be a direct band gap.
  The gap value is above 0.2 eV. Unless you are using a very sparse k-point grid,
  this system is most likely an insulator or a semiconductor.
  Calculating total energy contributions from superposition of free atom densities.

  Total energy components:
  | Sum of eigenvalues            :       -2469.18639316 Ha      -67189.98034647 eV
  | XC energy correction          :        -159.87600840 Ha       -4350.44753692 eV
  | XC potential correction       :         207.94028158 Ha        5658.34295506 eV
  | Free-atom electrostatic energy:       -1807.86525006 Ha      -49194.51644364 eV
  | Hartree energy correction     :           0.00000000 Ha           0.00000000 eV
  | Entropy correction            :          -0.00000000 Ha          -0.00000000 eV
  | ---------------------------
  | Total energy                  :       -4228.98737005 Ha     -115076.60137197 eV
  | Total energy, T -> 0          :       -4228.98737005 Ha     -115076.60137197 eV  <-- do not rely on this value for anything but (periodic) metals
  | Electronic free energy        :       -4228.98737005 Ha     -115076.60137197 eV

  Derived energy quantities:
  | Kinetic energy                :        4306.53856966 Ha      117186.87688308 eV
  | Electrostatic energy          :       -8375.64993130 Ha     -227913.03071813 eV
  | Energy correction for multipole
  | error in Hartree potential    :           0.00000000 Ha           0.00000000 eV
  | Sum of eigenvalues per atom                           :      -33594.99017323 eV
  | Total energy (T->0) per atom                          :      -57538.30068598 eV  <-- do not rely on this value for anything but (periodic) metals
  | Electronic free energy per atom                       :      -57538.30068598 eV
  Initialize hartree_potential_storage
  Max. number of atoms included in rho_multipole:            2

  End scf initialization - timings             :  max(cpu_time)    wall_clock(cpu1)
  | Time for scf. initialization               :        0.276 s           0.277 s
  | Boundary condition initialization          :        0.050 s           0.051 s
  | Integration                                :        0.141 s           0.141 s
  | Solution of K.-S. eqns.                    :        0.005 s           0.005 s
  | Grid partitioning                          :        0.023 s           0.023 s
  | Preloading free-atom quantities on grid    :        0.003 s           0.003 s
  | Free-atom superposition energy             :        0.007 s           0.007 s
  | Total energy evaluation                    :        0.000 s           0.000 s

  Partial memory accounting:
  | Current value for overall tracked memory usage:
  |   Minimum:        1.173 MB (on task 0)
  |   Maximum:        1.215 MB (on task 1)
  |   Average:        1.205 MB
  | Peak value for overall tracked memory usage:
  |   Minimum:        4.580 MB (on task 0 after allocating wave)
  |   Maximum:        4.878 MB (on task 3 after allocating wave)
  |   Average:        4.693 MB
  | Largest tracked array allocation so far:
  |   Minimum:        2.079 MB (hamiltonian_shell on task 0)
  |   Maximum:        2.283 MB (hamiltonian_shell on task 3)
  |   Average:        2.144 MB
  Note:  These values currently only include a subset of arrays which are explicitly tracked.
  The "true" memory usage will be greater.
------------------------------------------------------------

------------------------------------------------------------
          Begin self-consistency iteration #    1

  Date     :  20190817, Time     :  153246.272
------------------------------------------------------------
  Evaluating new KS density using the density matrix
  Evaluating density matrix
  Time summed over all CPUs for getting density from density matrix: real work        1.013 s, elapsed        1.047 s
  Integration grid: deviation in total charge (<rho> - N_e) =   5.968559E-13
  Pulay mixing of updated and previous charge densities.
  Renormalizing the density to the exact electron count on the 3D integration grid.
  | Formal number of electrons (from input files) :      64.0000000000
  | Integrated number of electrons on 3D grid     :      63.9997642773
  | Charge integration error                      :      -0.0002357227
  | Normalization factor for density and gradient :       1.0000036832

  Evaluating partitioned Hartree potential by multipole expansion.
  | Original multipole sum: apparent total charge =   0.876909E-13
  | Sum of charges compensated after spline to logarithmic grids =  -0.520477E-06
  | Analytical far-field extrapolation by fixed multipoles:
  | Hartree multipole sum: apparent total charge =   0.876833E-13
  Summing up the Hartree potential.
  Time summed over all CPUs for potential: real work        0.702 s, elapsed        0.715 s
  | RMS charge density error from multipole expansion :   0.434488E-03
  | Average real-space part of the electrostatic potential :      0.01422137 eV

  Integrating Hamiltonian matrix: batch-based integration.
  Time summed over all CPUs for integration: real work        0.650 s, elapsed        0.663 s

  Updating Kohn-Sham eigenvalues and eigenvectors using ELSI and the (modified) LAPACK eigensolver.
  Starting LAPACK eigensolver
  Finished Cholesky decomposition
  | Time :     0.000 s
  Finished transformation to standard eigenproblem
  | Time :     0.000 s
  Finished solving standard eigenproblem
  | Time :     0.001 s
  Finished back-transformation of eigenvectors
  | Time :     0.000 s

  Obtaining occupation numbers and chemical potential using ELSI.
  | Chemical potential (Fermi level):    -4.92039386 eV
  Writing Kohn-Sham eigenvalues.
  K-point:       1 at    0.000000    0.000000    0.000000 (in units of recip. lattice)

  State    Occupation    Eigenvalue [Ha]    Eigenvalue [eV]
      1       2.00000        -436.655958       -11882.01316
      2       2.00000        -380.505845       -10354.09087
      3       2.00000         -54.763604        -1490.19350
      4       2.00000         -48.010297        -1306.42665
      5       2.00000         -48.010297        -1306.42665
      6       2.00000         -48.010297        -1306.42665
      7       2.00000         -46.477311        -1264.71199
      8       2.00000         -40.450663        -1100.71854
      9       2.00000         -40.450663        -1100.71854
     10       2.00000         -40.450663        -1100.71854
     11       2.00000          -7.004143         -190.59242
     12       2.00000          -5.446792         -148.21475
     13       2.00000          -4.922069         -133.93632
     14       2.00000          -4.922069         -133.93632
     15       2.00000          -4.922069         -133.93632
     16       2.00000          -3.635781          -98.93463
     17       2.00000          -3.635781          -98.93463
     18       2.00000          -3.635781          -98.93463
     19       2.00000          -1.505679          -40.97161
     20       2.00000          -1.505679          -40.97161
     21       2.00000          -1.505679          -40.97161
     22       2.00000          -1.505144          -40.95705
     23       2.00000          -1.505144          -40.95705
     24       2.00000          -0.714379          -19.43925
     25       2.00000          -0.714379          -19.43925
     26       2.00000          -0.714379          -19.43925
     27       2.00000          -0.710728          -19.33989
     28       2.00000          -0.710728          -19.33989
     29       2.00000          -0.672041          -18.28716
     30       2.00000          -0.205251           -5.58515
     31       2.00000          -0.205251           -5.58515
     32       2.00000          -0.205251           -5.58515
     33       0.00000          -0.179061           -4.87249
     34       0.00000          -0.054683           -1.48800
     35       0.00000          -0.054683           -1.48800
     36       0.00000          -0.054683           -1.48800
     37       0.00000           0.141479            3.84985
     38       0.00000           0.192681            5.24311
     39       0.00000           0.192681            5.24311
     40       0.00000           0.379374           10.32330
     41       0.00000           0.379374           10.32330
     42       0.00000           0.379374           10.32330
     43       0.00000           0.820417           22.32468
     44       0.00000           0.820417           22.32468
     45       0.00000           0.820417           22.32468
     46       0.00000           0.931314           25.34235
     47       0.00000           0.952497           25.91876
     48       0.00000           0.952497           25.91876
     49       0.00000           1.031195           28.06025
     50       0.00000           1.031195           28.06025
     51       0.00000           1.031195           28.06025

  What follows are estimated values for band gap, HOMO, LUMO, etc.
  | They are estimated on a discrete k-point grid and not necessarily exact.
  | For converged numbers, create a DOS and/or band structure plot on a denser k-grid.

  Highest occupied state (VBM) at     -5.58515084 eV (relative to internal zero)
  | Occupation number:      2.00000000
  | K-point:       1 at    0.000000    0.000000    0.000000 (in units of recip. lattice)

  Lowest unoccupied state (CBM) at    -4.87249150 eV (relative to internal zero)
  | Occupation number:      0.00000000
  | K-point:       1 at    0.000000    0.000000    0.000000 (in units of recip. lattice)

  ESTIMATED overall HOMO-LUMO gap:      0.71265934 eV between HOMO at k-point 1 and LUMO at k-point 1
  | This appears to be a direct band gap.
  The gap value is above 0.2 eV. Unless you are using a very sparse k-point grid,
  this system is most likely an insulator or a semiconductor.

  Total energy components:
  | Sum of eigenvalues            :       -2469.15301780 Ha      -67189.07215680 eV
  | XC energy correction          :        -159.87614942 Ha       -4350.45137424 eV
  | XC potential correction       :         207.94042480 Ha        5658.34685230 eV
  | Free-atom electrostatic energy:       -1807.86525006 Ha      -49194.51644364 eV
  | Hartree energy correction     :          -0.03239497 Ha          -0.88151200 eV
  | Entropy correction            :          -0.00000000 Ha          -0.00000000 eV
  | ---------------------------
  | Total energy                  :       -4228.98638746 Ha     -115076.57463438 eV
  | Total energy, T -> 0          :       -4228.98638746 Ha     -115076.57463438 eV  <-- do not rely on this value for anything but (periodic) metals
  | Electronic free energy        :       -4228.98638746 Ha     -115076.57463438 eV

  Derived energy quantities:
  | Kinetic energy                :        4306.55524542 Ha      117187.33065359 eV
  | Electrostatic energy          :       -8375.66548346 Ha     -227913.45391373 eV
  | Energy correction for multipole
  | error in Hartree potential    :           0.00081092 Ha           0.02206634 eV
  | Sum of eigenvalues per atom                           :      -33594.53607840 eV
  | Total energy (T->0) per atom                          :      -57538.28731719 eV  <-- do not rely on this value for anything but (periodic) metals
  | Electronic free energy per atom                       :      -57538.28731719 eV

  Self-consistency convergence accuracy:
  | Change of charge density      :  0.1038E+00
  | Change of sum of eigenvalues  :  0.9082E+00 eV
  | Change of total energy        :  0.2674E-01 eV

  End self-consistency iteration #     1       :  max(cpu_time)    wall_clock(cpu1)
  | Time for this iteration                    :        0.360 s           0.360 s
  | Charge density update                      :        0.133 s           0.133 s
  | Density mixing & preconditioning           :        0.046 s           0.046 s
  | Hartree multipole update                   :        0.001 s           0.001 s
  | Hartree multipole summation                :        0.091 s           0.091 s
  | Integration                                :        0.085 s           0.085 s
  | Solution of K.-S. eqns.                    :        0.003 s           0.004 s
  | Total energy evaluation                    :        0.000 s           0.000 s

  Partial memory accounting:
  | Current value for overall tracked memory usage:
  |   Minimum:        1.173 MB (on task 0)
  |   Maximum:        1.215 MB (on task 1)
  |   Average:        1.205 MB
  | Peak value for overall tracked memory usage:
  |   Minimum:        5.427 MB (on task 0 after allocating gradient_basis_wave)
  |   Maximum:        5.777 MB (on task 3 after allocating gradient_basis_wave)
  |   Average:        5.556 MB
  | Largest tracked array allocation so far:
  |   Minimum:        2.079 MB (hamiltonian_shell on task 0)
  |   Maximum:        2.283 MB (hamiltonian_shell on task 3)
  |   Average:        2.144 MB
  Note:  These values currently only include a subset of arrays which are explicitly tracked.
  The "true" memory usage will be greater.
------------------------------------------------------------

------------------------------------------------------------
          Begin self-consistency iteration #    2

  Date     :  20190817, Time     :  153246.633
------------------------------------------------------------
  Evaluating new KS density using the density matrix
  Evaluating density matrix
  Time summed over all CPUs for getting density from density matrix: real work        0.991 s, elapsed        1.013 s
  Integration grid: deviation in total charge (<rho> - N_e) =   4.831691E-13
  Pulay mixing of updated and previous charge densities.
  Renormalizing the density to the exact electron count on the 3D integration grid.
  | Formal number of electrons (from input files) :      64.0000000000
  | Integrated number of electrons on 3D grid     :      63.9969674994
  | Charge integration error                      :      -0.0030325006
  | Normalization factor for density and gradient :       1.0000473851

  Evaluating partitioned Hartree potential by multipole expansion.
  | Original multipole sum: apparent total charge =   0.115905E-12
  | Sum of charges compensated after spline to logarithmic grids =  -0.700285E-05
  | Analytical far-field extrapolation by fixed multipoles:
  | Hartree multipole sum: apparent total charge =   0.115905E-12
  Summing up the Hartree potential.
  Time summed over all CPUs for potential: real work        0.827 s, elapsed        0.843 s
  | RMS charge density error from multipole expansion :   0.586594E-02
  | Average real-space part of the electrostatic potential :      0.18978708 eV

  Integrating Hamiltonian matrix: batch-based integration.
  Time summed over all CPUs for integration: real work        0.645 s, elapsed        0.660 s

  Updating Kohn-Sham eigenvalues and eigenvectors using ELSI and the (modified) LAPACK eigensolver.
  Starting LAPACK eigensolver
  Finished Cholesky decomposition
  | Time :     0.000 s
  Finished transformation to standard eigenproblem
  | Time :     0.000 s
  Finished solving standard eigenproblem
  | Time :     0.001 s
  Finished back-transformation of eigenvectors
  | Time :     0.000 s

  Obtaining occupation numbers and chemical potential using ELSI.
  | Chemical potential (Fermi level):    -4.67683588 eV
  What follows are estimated values for band gap, HOMO, LUMO, etc.
  | They are estimated on a discrete k-point grid and not necessarily exact.
  | For converged numbers, create a DOS and/or band structure plot on a denser k-grid.

  Highest occupied state (VBM) at     -5.17603661 eV (relative to internal zero)
  | Occupation number:      2.00000000
  | K-point:       1 at    0.000000    0.000000    0.000000 (in units of recip. lattice)

  Lowest unoccupied state (CBM) at    -4.62891709 eV (relative to internal zero)
  | Occupation number:      0.00000000
  | K-point:       1 at    0.000000    0.000000    0.000000 (in units of recip. lattice)

  ESTIMATED overall HOMO-LUMO gap:      0.54711952 eV between HOMO at k-point 1 and LUMO at k-point 1
  | This appears to be a direct band gap.
  The gap value is above 0.2 eV. Unless you are using a very sparse k-point grid,
  this system is most likely an insulator or a semiconductor.

  Checking to see if s.c.f. parameters should be adjusted.
  The system likely has a gap. Increased the default Pulay mixing parameter (charge_mix_param). Value:   0.200000 .
  Kept the default occupation width. Value:   0.010000 eV.

  Total energy components:
  | Sum of eigenvalues            :       -2468.73249647 Ha      -67177.62918896 eV
  | XC energy correction          :        -159.88291093 Ha       -4350.63536421 eV
  | XC potential correction       :         207.94812305 Ha        5658.55633227 eV
  | Free-atom electrostatic energy:       -1807.86525006 Ha      -49194.51644364 eV
  | Hartree energy correction     :          -0.44808421 Ha         -12.19299161 eV
  | Entropy correction            :          -0.00000000 Ha          -0.00000000 eV
  | ---------------------------
  | Total energy                  :       -4228.98061861 Ha     -115076.41765617 eV
  | Total energy, T -> 0          :       -4228.98061861 Ha     -115076.41765617 eV  <-- do not rely on this value for anything but (periodic) metals
  | Electronic free energy        :       -4228.98061861 Ha     -115076.41765617 eV

  Derived energy quantities:
  | Kinetic energy                :        4306.75861009 Ha      117192.86448786 eV
  | Electrostatic energy          :       -8375.85631778 Ha     -227918.64677981 eV
  | Energy correction for multipole
  | error in Hartree potential    :           0.01096600 Ha           0.29840000 eV
  | Sum of eigenvalues per atom                           :      -33588.81459448 eV
  | Total energy (T->0) per atom                          :      -57538.20882808 eV  <-- do not rely on this value for anything but (periodic) metals
  | Electronic free energy per atom                       :      -57538.20882808 eV

  Self-consistency convergence accuracy:
  | Change of charge density      :  0.9740E-01
  | Change of sum of eigenvalues  :  0.1144E+02 eV
  | Change of total energy        :  0.1570E+00 eV

  End self-consistency iteration #     2       :  max(cpu_time)    wall_clock(cpu1)
  | Time for this iteration                    :        0.369 s           0.369 s
  | Charge density update                      :        0.128 s           0.128 s
  | Density mixing & preconditioning           :        0.046 s           0.045 s
  | Hartree multipole update                   :        0.001 s           0.001 s
  | Hartree multipole summation                :        0.107 s           0.107 s
  | Integration                                :        0.084 s           0.084 s
  | Solution of K.-S. eqns.                    :        0.003 s           0.004 s
  | Total energy evaluation                    :        0.000 s           0.000 s

  Partial memory accounting:
  | Current value for overall tracked memory usage:
  |   Minimum:        1.174 MB (on task 0)
  |   Maximum:        1.216 MB (on task 1)
  |   Average:        1.205 MB
  | Peak value for overall tracked memory usage:
  |   Minimum:        5.427 MB (on task 0 after allocating gradient_basis_wave)
  |   Maximum:        5.777 MB (on task 3 after allocating gradient_basis_wave)
  |   Average:        5.556 MB
  | Largest tracked array allocation so far:
  |   Minimum:        2.079 MB (hamiltonian_shell on task 0)
  |   Maximum:        2.283 MB (hamiltonian_shell on task 3)
  |   Average:        2.144 MB
  Note:  These values currently only include a subset of arrays which are explicitly tracked.
  The "true" memory usage will be greater.
------------------------------------------------------------

------------------------------------------------------------
          Begin self-consistency iteration #    3

  Date     :  20190817, Time     :  153247.002
------------------------------------------------------------
  Evaluating new KS density using the density matrix
  Evaluating density matrix
  Time summed over all CPUs for getting density from density matrix: real work        1.001 s, elapsed        1.079 s
  Integration grid: deviation in total charge (<rho> - N_e) =   4.831691E-13
  Pulay mixing of updated and previous charge densities.
  Renormalizing the density to the exact electron count on the 3D integration grid.
  | Formal number of electrons (from input files) :      64.0000000000
  | Integrated number of electrons on 3D grid     :      63.9971226059
  | Charge integration error                      :      -0.0028773941
  | Normalization factor for density and gradient :       1.0000449613

  Evaluating partitioned Hartree potential by multipole expansion.
  | Original multipole sum: apparent total charge =   0.961034E-13
  | Sum of charges compensated after spline to logarithmic grids =  -0.104472E-04
  | Analytical far-field extrapolation by fixed multipoles:
  | Hartree multipole sum: apparent total charge =   0.959804E-13
  Summing up the Hartree potential.
  Time summed over all CPUs for potential: real work        0.857 s, elapsed        0.881 s
  | RMS charge density error from multipole expansion :   0.902866E-02
  | Average real-space part of the electrostatic potential :      0.26463614 eV

  Integrating Hamiltonian matrix: batch-based integration.
  Time summed over all CPUs for integration: real work        0.649 s, elapsed        0.662 s

  Updating Kohn-Sham eigenvalues and eigenvectors using ELSI and the (modified) LAPACK eigensolver.
  Starting LAPACK eigensolver
  Finished Cholesky decomposition
  | Time :     0.000 s
  Finished transformation to standard eigenproblem
  | Time :     0.000 s
  Finished solving standard eigenproblem
  | Time :     0.001 s
  Finished back-transformation of eigenvectors
  | Time :     0.000 s

  Obtaining occupation numbers and chemical potential using ELSI.
  | Chemical potential (Fermi level):    -4.56463660 eV
  What follows are estimated values for band gap, HOMO, LUMO, etc.
  | They are estimated on a discrete k-point grid and not necessarily exact.
  | For converged numbers, create a DOS and/or band structure plot on a denser k-grid.

  Highest occupied state (VBM) at     -5.05574108 eV (relative to internal zero)
  | Occupation number:      2.00000000
  | K-point:       1 at    0.000000    0.000000    0.000000 (in units of recip. lattice)

  Lowest unoccupied state (CBM) at    -4.51701052 eV (relative to internal zero)
  | Occupation number:      0.00000000
  | K-point:       1 at    0.000000    0.000000    0.000000 (in units of recip. lattice)

  ESTIMATED overall HOMO-LUMO gap:      0.53873057 eV between HOMO at k-point 1 and LUMO at k-point 1
  | This appears to be a direct band gap.
  The gap value is above 0.2 eV. Unless you are using a very sparse k-point grid,
  this system is most likely an insulator or a semiconductor.

  Total energy components:
  | Sum of eigenvalues            :       -2468.51258877 Ha      -67171.64519616 eV
  | XC energy correction          :        -159.89402926 Ha       -4350.93790938 eV
  | XC potential correction       :         207.96159694 Ha        5658.92297545 eV
  | Free-atom electrostatic energy:       -1807.86525006 Ha      -49194.51644364 eV
  | Hartree energy correction     :          -0.67025956 Ha         -18.23869057 eV
  | Entropy correction            :          -0.00000000 Ha          -0.00000000 eV
  | ---------------------------
  | Total energy                  :       -4228.98053072 Ha     -115076.41526430 eV
  | Total energy, T -> 0          :       -4228.98053072 Ha     -115076.41526430 eV  <-- do not rely on this value for anything but (periodic) metals
  | Electronic free energy        :       -4228.98053072 Ha     -115076.41526430 eV

  Derived energy quantities:
  | Kinetic energy                :        4306.83906329 Ha      117195.05373093 eV
  | Electrostatic energy          :       -8375.92556475 Ha     -227920.53108586 eV
  | Energy correction for multipole
  | error in Hartree potential    :           0.01693952 Ha           0.46094779 eV
  | Sum of eigenvalues per atom                           :      -33585.82259808 eV
  | Total energy (T->0) per atom                          :      -57538.20763215 eV  <-- do not rely on this value for anything but (periodic) metals
  | Electronic free energy per atom                       :      -57538.20763215 eV

  Self-consistency convergence accuracy:
  | Change of charge density      :  0.4208E-01
  | Change of sum of eigenvalues  :  0.5984E+01 eV
  | Change of total energy        :  0.2392E-02 eV

  End self-consistency iteration #     3       :  max(cpu_time)    wall_clock(cpu1)
  | Time for this iteration                    :        0.382 s           0.383 s
  | Charge density update                      :        0.136 s           0.137 s
  | Density mixing & preconditioning           :        0.046 s           0.046 s
  | Hartree multipole update                   :        0.001 s           0.001 s
  | Hartree multipole summation                :        0.112 s           0.111 s
  | Integration                                :        0.084 s           0.084 s
  | Solution of K.-S. eqns.                    :        0.003 s           0.004 s
  | Total energy evaluation                    :        0.000 s           0.000 s

  Partial memory accounting:
  | Current value for overall tracked memory usage:
  |   Minimum:        1.174 MB (on task 0)
  |   Maximum:        1.216 MB (on task 1)
  |   Average:        1.205 MB
  | Peak value for overall tracked memory usage:
  |   Minimum:        5.427 MB (on task 0 after allocating gradient_basis_wave)
  |   Maximum:        5.777 MB (on task 3 after allocating gradient_basis_wave)
  |   Average:        5.557 MB
  | Largest tracked array allocation so far:
  |   Minimum:        2.079 MB (hamiltonian_shell on task 0)
  |   Maximum:        2.283 MB (hamiltonian_shell on task 3)
  |   Average:        2.144 MB
  Note:  These values currently only include a subset of arrays which are explicitly tracked.
  The "true" memory usage will be greater.
------------------------------------------------------------

------------------------------------------------------------
          Begin self-consistency iteration #    4

  Date     :  20190817, Time     :  153247.385
------------------------------------------------------------
  Evaluating new KS density using the density matrix
  Evaluating density matrix
  Time summed over all CPUs for getting density from density matrix: real work        0.998 s, elapsed        1.019 s
  Integration grid: deviation in total charge (<rho> - N_e) =   6.252776E-13
  Pulay mixing of updated and previous charge densities.
  Renormalizing the density to the exact electron count on the 3D integration grid.
  | Formal number of electrons (from input files) :      64.0000000000
  | Integrated number of electrons on 3D grid     :      63.9996243164
  | Charge integration error                      :      -0.0003756836
  | Normalization factor for density and gradient :       1.0000058701

  Evaluating partitioned Hartree potential by multipole expansion.
  | Original multipole sum: apparent total charge =   0.789833E-13
  | Sum of charges compensated after spline to logarithmic grids =  -0.109486E-04
  | Analytical far-field extrapolation by fixed multipoles:
  | Hartree multipole sum: apparent total charge =   0.787374E-13
  Summing up the Hartree potential.
  Time summed over all CPUs for potential: real work        0.848 s, elapsed        0.861 s
  | RMS charge density error from multipole expansion :   0.952757E-02
  | Average real-space part of the electrostatic potential :      0.26689805 eV

  Integrating Hamiltonian matrix: batch-based integration.
  Time summed over all CPUs for integration: real work        0.649 s, elapsed        0.664 s

  Updating Kohn-Sham eigenvalues and eigenvectors using ELSI and the (modified) LAPACK eigensolver.
  Starting LAPACK eigensolver
  Finished Cholesky decomposition
  | Time :     0.001 s
  Finished transformation to standard eigenproblem
  | Time :     0.000 s
  Finished solving standard eigenproblem
  | Time :     0.001 s
  Finished back-transformation of eigenvectors
  | Time :     0.000 s

  Obtaining occupation numbers and chemical potential using ELSI.
  | Chemical potential (Fermi level):    -4.56165146 eV
  What follows are estimated values for band gap, HOMO, LUMO, etc.
  | They are estimated on a discrete k-point grid and not necessarily exact.
  | For converged numbers, create a DOS and/or band structure plot on a denser k-grid.

  Highest occupied state (VBM) at     -5.06070995 eV (relative to internal zero)
  | Occupation number:      2.00000000
  | K-point:       1 at    0.000000    0.000000    0.000000 (in units of recip. lattice)

  Lowest unoccupied state (CBM) at    -4.51377573 eV (relative to internal zero)
  | Occupation number:      0.00000000
  | K-point:       1 at    0.000000    0.000000    0.000000 (in units of recip. lattice)

  ESTIMATED overall HOMO-LUMO gap:      0.54693421 eV between HOMO at k-point 1 and LUMO at k-point 1
  | This appears to be a direct band gap.
  The gap value is above 0.2 eV. Unless you are using a very sparse k-point grid,
  this system is most likely an insulator or a semiconductor.

  Total energy components:
  | Sum of eigenvalues            :       -2468.56548458 Ha      -67173.08456441 eV
  | XC energy correction          :        -159.89201412 Ha       -4350.88307464 eV
  | XC potential correction       :         207.95873694 Ha        5658.84515113 eV
  | Free-atom electrostatic energy:       -1807.86525006 Ha      -49194.51644364 eV
  | Hartree energy correction     :          -0.61647181 Ha         -16.77505138 eV
  | Entropy correction            :          -0.00000000 Ha          -0.00000000 eV
  | ---------------------------
  | Total energy                  :       -4228.98048363 Ha     -115076.41398295 eV
  | Total energy, T -> 0          :       -4228.98048363 Ha     -115076.41398295 eV  <-- do not rely on this value for anything but (periodic) metals
  | Electronic free energy        :       -4228.98048363 Ha     -115076.41398295 eV

  Derived energy quantities:
  | Kinetic energy                :        4306.74557156 Ha      117192.50969129 eV
  | Electrostatic energy          :       -8375.83404106 Ha     -227918.04059960 eV
  | Energy correction for multipole
  | error in Hartree potential    :           0.01786955 Ha           0.48625521 eV
  | Sum of eigenvalues per atom                           :      -33586.54228221 eV
  | Total energy (T->0) per atom                          :      -57538.20699148 eV  <-- do not rely on this value for anything but (periodic) metals
  | Electronic free energy per atom                       :      -57538.20699148 eV

  Self-consistency convergence accuracy:
  | Change of charge density      :  0.1359E-01
  | Change of sum of eigenvalues  : -0.1439E+01 eV
  | Change of total energy        :  0.1281E-02 eV

  End self-consistency iteration #     4       :  max(cpu_time)    wall_clock(cpu1)
  | Time for this iteration                    :        0.373 s           0.374 s
  | Charge density update                      :        0.129 s           0.129 s
  | Density mixing & preconditioning           :        0.046 s           0.046 s
  | Hartree multipole update                   :        0.001 s           0.001 s
  | Hartree multipole summation                :        0.109 s           0.110 s
  | Integration                                :        0.084 s           0.084 s
  | Solution of K.-S. eqns.                    :        0.003 s           0.003 s
  | Total energy evaluation                    :        0.000 s           0.001 s

  Partial memory accounting:
  | Current value for overall tracked memory usage:
  |   Minimum:        1.174 MB (on task 0)
  |   Maximum:        1.216 MB (on task 1)
  |   Average:        1.206 MB
  | Peak value for overall tracked memory usage:
  |   Minimum:        5.427 MB (on task 0 after allocating gradient_basis_wave)
  |   Maximum:        5.777 MB (on task 3 after allocating gradient_basis_wave)
  |   Average:        5.557 MB
  | Largest tracked array allocation so far:
  |   Minimum:        2.079 MB (hamiltonian_shell on task 0)
  |   Maximum:        2.283 MB (hamiltonian_shell on task 3)
  |   Average:        2.144 MB
  Note:  These values currently only include a subset of arrays which are explicitly tracked.
  The "true" memory usage will be greater.
------------------------------------------------------------

------------------------------------------------------------
          Begin self-consistency iteration #    5

  Date     :  20190817, Time     :  153247.759
------------------------------------------------------------
  Evaluating new KS density using the density matrix
  Evaluating density matrix
  Time summed over all CPUs for getting density from density matrix: real work        0.996 s, elapsed        1.021 s
  Integration grid: deviation in total charge (<rho> - N_e) =   5.115908E-13
  Pulay mixing of updated and previous charge densities.
  Renormalizing the density to the exact electron count on the 3D integration grid.
[...]
     72       0.00000                      -1.402787          -1.335765             0.000000
     73       0.00000                       4.028276           4.028276             5.364041
     74       0.00000                       4.028276           4.028276             0.000000
     75       0.00000                       5.415205           5.415526             1.387250
     76       0.00000                       5.415205           5.415526             0.000000
     77       0.00000                       5.415205           5.415533             0.000007
     78       0.00000                       5.415205           5.415533             0.000000
     79       0.00000                      10.471294          10.426573             5.011041
     80       0.00000                      10.471294          10.426573             0.000000
     81       0.00000                      10.471294          10.496389             0.069816
     82       0.00000                      10.471294          10.496389             0.000000
     83       0.00000                      10.471294          10.496753             0.000364
     84       0.00000                      10.471294          10.496753             0.000000
     85       0.00000                      22.813903          22.527779            12.031026
     86       0.00000                      22.813903          22.527779             0.000000
     87       0.00000                      22.813903          22.966926             0.439146
     88       0.00000                      22.813903          22.966926             0.000000
     89       0.00000                      22.813903          22.967452             0.000527
     90       0.00000                      22.813903          22.967452             0.000000
     91       0.00000                      25.817524          25.817525             2.850072
     92       0.00000                      25.817524          25.817525             0.000000
     93       0.00000                      26.148009          26.147213             0.329689
     94       0.00000                      26.148009          26.147213             0.000000
     95       0.00000                      26.148009          26.147265             0.000052
     96       0.00000                      26.148009          26.147265             0.000000
     97       0.00000                      28.275625          28.256161             2.108896
     98       0.00000                      28.275625          28.256161             0.000000
     99       0.00000                      28.275625          28.260229             0.004068
    100       0.00000                      28.275625          28.260229             0.000000
    101       0.00000                      28.275625          28.316325             0.056096
    102       0.00000                      28.275625          28.316325             0.000000

  What follows are estimated values for band gap, HOMO, LUMO, etc.
  | They are estimated on a discrete k-point grid and not necessarily exact.
  | For converged numbers, create a DOS and/or band structure plot on a denser k-grid.

  Highest occupied state (VBM) at     -4.97311418 eV (relative to internal zero)
  | Occupation number:      1.00000000
  | K-point:       1 at    0.000000    0.000000    0.000000 (in units of recip. lattice)

  Lowest unoccupied state (CBM) at    -4.53775087 eV (relative to internal zero)
  | Occupation number:      0.00000000
  | K-point:       1 at    0.000000    0.000000    0.000000 (in units of recip. lattice)

  ESTIMATED overall HOMO-LUMO gap:      0.43536331 eV between HOMO at k-point 1 and LUMO at k-point 1
  | This appears to be a direct band gap.
  The gap value is above 0.2 eV. Unless you are using a very sparse k-point grid,
  this system is most likely an insulator or a semiconductor.

  Spin-orbit coupling                                     :  max(cpu_time)    wall_clock(cpu1)
  | Computing matrix elements for SOC operator            :          0.513               0.513
  | Constructing second-variational Hamiltonian           :          0.001               0.001
  | Diagonalizing second-variational Hamiltonian          :          0.011               0.030
  | Syncing data and calculating occupations              :          0.009               0.007
  | Writing out data, calculating band gaps, etc.         :          0.001               0.001
  | Total SOC time                                        :          0.535               0.553

  Partial memory accounting:
  | Current value for overall tracked memory usage:
  |   Minimum:        1.196 MB (on task 0)
  |   Maximum:        1.238 MB (on task 1)
  |   Average:        1.227 MB
  | Peak value for overall tracked memory usage:
  |   Minimum:        6.865 MB (on task 0 after allocating potential_shell)
  |   Maximum:        7.163 MB (on task 3 after allocating potential_shell)
  |   Average:        6.978 MB
  | Largest tracked array allocation so far:
  |   Minimum:        2.079 MB (hamiltonian_shell on task 0)
  |   Maximum:        2.283 MB (hamiltonian_shell on task 3)
  |   Average:        2.144 MB
  Note:  These values currently only include a subset of arrays which are explicitly tracked.
  The "true" memory usage will be greater.
 ------------------------------------------------------------
  Post-scf processing of Kohn-Sham eigenvalues on a denser k-point grid.
  | Using dos_kgrid_factors to calculate post-scf total density of states.
  | Electron chemical potential:    -4.585444612294 eV.
  Integrating Hamiltonian matrix: batch-based integration.
  Time summed over all CPUs for integration: real work        0.649 s, elapsed        0.667 s
  Allocating        1.357 MB for soc_matrix
  Integrating SOC matrix: batch-based integration p2 version.
  Allocating        0.070 MB for dist_tab
  Allocating        0.070 MB for dist_tab_sq
  Allocating        0.210 MB for dir_tab
  Allocating        0.008 MB for i_basis_fns
  Allocating        0.369 MB for i_basis_fns_inv
  Allocating        0.008 MB for i_atom_fns
  Allocating        1.087 MB for gradient_basis_wave
  Allocating        0.002 MB for ylm_tab
  Allocating        0.001 MB for radial_wave
  Allocating        0.001 MB for radial_wave_deriv
  Allocating        0.005 MB for i_basis
  Allocating        2.079 MB for soc_shell
  Allocating        0.004 MB for cartesians
  Allocating        0.006 MB for sum_gradient
  Allocating        0.012 MB for sum_hessian
  Allocating        0.001 MB for potential_shell
  Processing batch of k-points:     1     1     1
  Starting LAPACK eigensolver
  Finished Cholesky decomposition
  | Time :     0.000 s
  Finished transformation to standard eigenproblem
  | Time :     0.000 s
  Finished solving standard eigenproblem
  | Time :     0.001 s
  Finished back-transformation of eigenvectors
  | Time :     0.000 s
  Processing batch of k-points:     1     1     2
  Processing batch of k-points:     1     1     3
  Processing batch of k-points:     1     2     1
  Processing batch of k-points:     1     2     2
  Processing batch of k-points:     1     2     3
  Processing batch of k-points:     1     3     1
  Processing batch of k-points:     1     3     2
  Processing batch of k-points:     1     3     3
  Processing batch of k-points:     2     1     1
  Processing batch of k-points:     2     1     2
  Processing batch of k-points:     2     1     3
  Processing batch of k-points:     2     2     1
  Processing batch of k-points:     2     2     2
  Processing batch of k-points:     2     2     3
  Processing batch of k-points:     2     3     1
  Processing batch of k-points:     2     3     2
  Processing batch of k-points:     2     3     3
  Processing batch of k-points:     3     1     1
  Processing batch of k-points:     3     1     2
  Processing batch of k-points:     3     1     3
  Processing batch of k-points:     3     2     1
  Processing batch of k-points:     3     2     2
  Processing batch of k-points:     3     2     3
  Processing batch of k-points:     3     3     1
  Processing batch of k-points:     3     3     2
  Processing batch of k-points:     3     3     3
  | writing scalar-relativistic perturbative DOS (shifted by electron chemical potential) to file KS_dos_total.dat.no_soc
  | writing scalar-relativistic perturbative DOS (raw data) to file KS_dos_total_raw.dat.no_soc
  | writing spin-orbit-coupled perturbative DOS (shifted by electron chemical potential) to file KS_dos_total.dat
  | writing spin-orbit-coupled perturbative DOS (raw data) to file KS_dos_total_raw.dat

  Perturbative DOS                                        :  max(cpu_time) wall_clock(cpu1)
  | Total Time                                            :          2.011            2.031
  ------------------------------------------------------------

  -------------------------------------------------------------------
  Writing the requested band structure output (LAPACK version):
  -------------------------------------------------------------------

  Integrating Hamiltonian matrix: batch-based integration.
  Time summed over all CPUs for integration: real work        0.648 s, elapsed        0.664 s
  Integrating SOC matrix: batch-based integration p2 version.
  Allocating        0.070 MB for dist_tab
  Allocating        0.070 MB for dist_tab_sq
  Allocating        0.210 MB for dir_tab
  Allocating        0.008 MB for i_basis_fns
  Allocating        0.369 MB for i_basis_fns_inv
  Allocating        0.008 MB for i_atom_fns
  Allocating        1.087 MB for gradient_basis_wave
  Allocating        0.002 MB for ylm_tab
  Allocating        0.001 MB for radial_wave
  Allocating        0.001 MB for radial_wave_deriv
  Allocating        0.005 MB for i_basis
  Allocating        2.079 MB for soc_shell
  Allocating        0.004 MB for cartesians
  Allocating        0.006 MB for sum_gradient
  Allocating        0.012 MB for sum_hessian
  Allocating        0.001 MB for potential_shell

  Treating all   21 k-points in band plot segment #   1:


  Scalar-relativistic "band gap" along reciprocal space direction number:    1
  | Lowest unoccupied state:      -4.53775095 eV
  | Highest occupied state :      -5.08692966 eV
  | Energy difference      :       0.54917871 eV


  Spin-orbit-coupled "band gap" along reciprocal space direction number:    1
  | Lowest unoccupied state:      -4.53775087 eV
  | Highest occupied state :      -4.97311418 eV
  | Energy difference      :       0.43536331 eV


  Treating all   21 k-points in band plot segment #   2:


  Scalar-relativistic "band gap" along reciprocal space direction number:    2
  | Lowest unoccupied state:      -3.64735313 eV
  | Highest occupied state :      -7.78971219 eV
  | Energy difference      :       4.14235905 eV


  Spin-orbit-coupled "band gap" along reciprocal space direction number:    2
  | Lowest unoccupied state:      -3.64652963 eV
  | Highest occupied state :      -7.74622026 eV
  | Energy difference      :       4.09969063 eV


  Treating all   21 k-points in band plot segment #   3:


  Scalar-relativistic "band gap" along reciprocal space direction number:    3
  | Lowest unoccupied state:      -3.13475894 eV
  | Highest occupied state :      -7.36742882 eV
  | Energy difference      :       4.23266988 eV


  Spin-orbit-coupled "band gap" along reciprocal space direction number:    3
  | Lowest unoccupied state:      -3.13620328 eV
  | Highest occupied state :      -7.36293058 eV
  | Energy difference      :       4.22672731 eV


  Treating all   21 k-points in band plot segment #   4:


  Scalar-relativistic "band gap" along reciprocal space direction number:    4
  | Lowest unoccupied state:      -4.53775095 eV
  | Highest occupied state :      -5.08692966 eV
  | Energy difference      :       0.54917871 eV


  Spin-orbit-coupled "band gap" along reciprocal space direction number:    4
  | Lowest unoccupied state:      -4.53775087 eV
  | Highest occupied state :      -4.97311418 eV
  | Energy difference      :       0.43536331 eV

  Scalar-relativistic "band gap" of total set of bands:
  | Lowest unoccupied state:      -4.53775095 eV
  | Highest occupied state :      -5.08692966 eV
  | Energy difference      :       0.54917871 eV

  Spin-orbit-coupled "band gap" of total set of bands:
  | Lowest unoccupied state:      -4.53775087 eV
  | Highest occupied state :      -4.97311418 eV
  | Energy difference      :       0.43536331 eV


  Band Structure                                          :  max(cpu_time) wall_clock(cpu1)
  | Total Time                                            :          0.689            0.698
------------------------------------------------------------

------------------------------------------------------------------------------
  Final output of selected total energy values:

  The following output summarizes some interesting total energy values
  at the end of a run (AFTER all relaxation, molecular dynamics, etc.).

  | Total energy of the DFT / Hartree-Fock s.c.f. calculation      :        -115076.411562204 eV
  | Final zero-broadening corrected energy (caution - metals only) :        -115076.411562204 eV
  | Total energy after non-SC SOC correction (DO NOT USE)          :        -115076.502069177 eV
  | For reference only, the value of 1 Hartree used in FHI-aims is :             27.211384500 eV
  | For reference only, the overall average (free atom contribution
  | + realspace contribution) of the electrostatic potential after
  | s.c.f. convergence is                                          :            -14.302765661 eV

  Before relying on these values, please be sure to understand exactly which
  total energy value is referred to by a given number. Different objects may
  all carry the same name 'total energy'. Definitions:

  Total energy of the DFT / Hartree-Fock s.c.f. calculation:
  | Note that this energy does not include ANY quantities calculated after the
  | s.c.f. cycle, in particular not ANY RPA, MP2, etc. many-body perturbation terms.

  Final zero-broadening corrected energy:
  | For metallic systems only, a broadening of the occupation numbers at the Fermi
  | level can be extrapolated back to zero broadening by an electron-gas inspired
  | formula. For all systems that are not real metals, this value can be
  | meaningless and should be avoided.

------------------------------------------------------------------------------
  Methods described in the following list of references were used in this FHI-aims run.
  If you publish the results, please make sure to cite these reference if they apply.
  FHI-aims is an academic code, and for our developers (often, Ph.D. students
  and postdocs), scientific credit in the community is essential.
  Thank you for helping us!

  For any use of FHI-aims, please cite:

    Volker Blum, Ralf Gehrke, Felix Hanke, Paula Havu, Ville Havu,
    Xinguo Ren, Karsten Reuter, and Matthias Scheffler
    'Ab initio molecular simulations with numeric atom-centered orbitals'
    Computer Physics Communications 180, 2175-2196 (2009)
    http://dx.doi.org/10.1016/j.cpc.2009.06.022


  The provided symmetry information was generated with SPGlib:

    Atsushi Togo, Yusuke Seto, Dimitar Pashov
    SPGlib 1.7.3 obtained from http://spglib.sourceforge.net
    Copyright (C) 2008 Atsushi Togo


  For second-variational spin-orbit coupling used in your run, please cite:

    William P. Huhn and Volker Blum,
    'One-hundred-three compound band-structure benchmark of post-self-consistent'
    'spin-orbit coupling treatments in density functional theory'
    Phys. Rev. Materials 1, 033803 (2017).


  The ELSI infrastructure was used in your run to solve the Kohn-Sham electronic structure.
  Please check out http://elsi-interchange.org to learn more.
  If scalability is important for your project, please acknowledge ELSI by citing:

    V. W-z. Yu, F. Corsetti, A. Garcia, W. P. Huhn, M. Jacquelin, W. Jia,
    B. Lange, L. Lin, J. Lu, W. Mi, A. Seifitokaldani, A. Vazquez-Mayagoitia,
    C. Yang, H. Yang, and V. Blum
    'ELSI: A unified software interface for Kohn-Sham electronic structure solvers'
    Computer Physics Communications 222, 267-285 (2018).
    http://dx.doi.org/10.1016/j.cpc.2017.09.007


  For the real-space grid partitioning and parallelization used in this calculation, please cite:

    Ville Havu, Volker Blum, Paula Havu, and Matthias Scheffler,
    'Efficient O(N) integration for all-electron electronic structure calculation'
    'using numerically tabulated basis functions'
    Journal of Computational Physics 228, 8367-8379 (2009).
    http://dx.doi.org/10.1016/j.jcp.2009.08.008

  Of course, there are many other important community references, e.g., those cited in the
  above references. Our list is limited to references that describe implementations in the
  FHI-aims code. The reason is purely practical (length of this list) - please credit others as well.

 * A warning was issued further up regarding the accuracy of onsite integrals.
   An integral with a negative eigenvalue was among the flagged integrals.
   In most standard situations, this warning is probably harmless.
   If needed, this can be verified by adjusting the radial_multiplier flag.

------------------------------------------------------------
          Leaving FHI-aims.
          Date     :  20190817, Time     :  153254.817

          Computational steps:
          | Number of self-consistency cycles          :           14
          | Number of SCF (re)initializations          :            1

          Detailed time accounting                     :  max(cpu_time)    wall_clock(cpu1)
          | Total time                                 :        9.233 s           9.269 s
          | Preparation time                           :        0.393 s           0.393 s
          | Boundary condition initalization           :        0.050 s           0.051 s
          | Grid partitioning                          :        0.023 s           0.023 s
          | Preloading free-atom quantities on grid    :        0.003 s           0.003 s
          | Free-atom superposition energy             :        0.007 s           0.007 s
          | Total time for integrations                :        1.322 s           1.323 s
          | Total time for solution of K.-S. equations :        0.052 s           0.053 s
          | Total time for density update              :        1.828 s           1.830 s
          | Total time for mixing & preconditioning    :        0.646 s           0.646 s
          | Total time for Hartree multipole update    :        0.013 s           0.014 s
          | Total time for Hartree multipole sum       :        1.527 s           1.527 s
          | Total time for total energy evaluation     :        0.002 s           0.003 s
          | Total time for scaled ZORA corrections     :        0.000 s           0.000 s
          | Total time for perturbative SOC            :        0.535 s           0.553 s
          | Total time for band structures, DOS        :        2.699 s           2.729 s

          Partial memory accounting:
          | Residual value for overall tracked memory usage across tasks:     0.000000 MB (should be 0.000000 MB)
          | Peak values for overall tracked memory usage:
          |   Minimum:        6.865 MB (on task 0 after allocating potential_shell)
          |   Maximum:        7.163 MB (on task 3 after allocating potential_shell)
          |   Average:        6.978 MB
          | Largest tracked array allocation:
          |   Minimum:        2.079 MB (hamiltonian_shell on task 0)
          |   Maximum:        2.283 MB (hamiltonian_shell on task 3)
          |   Average:        2.144 MB
          Note:  These values currently only include a subset of arrays which are explicitly tracked.
          The "true" memory usage will be greater.

          Have a nice day.
------------------------------------------------------------
