  MPI-parallelism will be employed.
------------------------------------------------------------
          Invoking FHI-aims ...

          When using FHI-aims, please cite the following reference:

          Volker Blum, Ralf Gehrke, Felix Hanke, Paula Havu,
          Ville Havu, Xinguo Ren, Karsten Reuter, and Matthias Scheffler,
          'Ab Initio Molecular Simulations with Numeric Atom-Centered Orbitals',
          Computer Physics Communications 180, 2175-2196 (2009)

          For any questions about FHI-aims, please visit the aimsclub website
          with its forums and wiki. Contributions to both the forums and the
          wiki are warmly encouraged - they are for you, and everyone is welcome there.

------------------------------------------------------------



  Date     :  20190817, Time     :  153415.701
  Time zero on CPU 1             :   0.259600000000000E-01  s.
  Internal wall clock time zero  :           335288055.701  s.

  FHI-aims created a unique identifier for this run for later identification
  aims_uuid : F84A4D5F-88E7-4A15-A731-C1BA2399D6BC

  Build configuration of the current instance of FHI-aims
  -------------------------------------------------------
  FHI-aims version      : 190813
  Commit number         : 3da7baeb3
  CMake host system     : Linux-4.4.180-94.97-default
  CMake version         : 3.5.2
  Fortran compiler      : /mpcdf/soft/SLE_12_SP3/packages/x86_64/intel_parallel_studio/2018.4/compilers_and_libraries_2018.5.274/linux/mpi/bin64/mpiifort (Intel) version 18.0.5.20180823
  Fortran compiler flags: -O3 -ip -fp-model precise
  C compiler            : /mpcdf/soft/SLE_12_SP3/packages/skylake/intel/18.0.5/bin/icc (Intel) version 18.0.5.20180823
  C compiler flags      : -O3 -ip -fp-model precise
  Architecture          :
  Using MPI
  Using Scalapack
  Using C files
  Using SPGlib
  Using i-PI
  Linking against: /mpcdf/soft/SLE_12_SP3/packages/x86_64/anaconda/3.5.1.0/lib/libmkl_intel_lp64.so
                   /mpcdf/soft/SLE_12_SP3/packages/x86_64/anaconda/3.5.1.0/lib/libmkl_sequential.so
                   /mpcdf/soft/SLE_12_SP3/packages/x86_64/anaconda/3.5.1.0/lib/libmkl_core.so
                   /mpcdf/soft/SLE_12_SP3/packages/x86_64/anaconda/3.5.1.0/lib/libmkl_blacs_intelmpi_lp64.so
                   /mpcdf/soft/SLE_12_SP3/packages/x86_64/anaconda/3.5.1.0/lib/libmkl_scalapack_lp64.so

  Using        8 parallel tasks.
  Task        0 on host co1631 reporting.
  Task        1 on host co1631 reporting.
  Task        2 on host co1631 reporting.
  Task        3 on host co1631 reporting.
  Task        4 on host co1631 reporting.
  Task        5 on host co1631 reporting.
  Task        6 on host co1631 reporting.
  Task        7 on host co1631 reporting.

  Performing system and environment tests:
  | Environment variable OMP_NUM_THREADS correctly set to 1.
  | Maximum stacksize for task 0: unlimited
  | Maximum stacksize for task 1: unlimited
  | Maximum stacksize for task 2: unlimited
  | Maximum stacksize for task 3: unlimited
  | Maximum stacksize for task 4: unlimited
  | Maximum stacksize for task 5: unlimited
  | Maximum stacksize for task 6: unlimited
  | Maximum stacksize for task 7: unlimited
  | Current stacksize for task 0: unlimited
  | Current stacksize for task 1: unlimited
  | Current stacksize for task 2: unlimited
  | Current stacksize for task 3: unlimited
  | Current stacksize for task 4: unlimited
  | Current stacksize for task 5: unlimited
  | Current stacksize for task 6: unlimited
  | Current stacksize for task 7: unlimited
  | Checking for scalapack...
  | Testing pdtran()...
  | All pdtran() tests passed.

  Obtaining array dimensions for all initial allocations:
  
  -----------------------------------------------------------------------
  Parsing control.in (first pass over file, find array dimensions only).
  The contents of control.in will be repeated verbatim below
  unless switched off by setting 'verbatim_writeout .false.' .
  in the first line of control.in .
  -----------------------------------------------------------------------
  
  #########################################################################################
  #
  #  Volker Blum, FHI 2008 : Test run input file control.in for simple H2O
  #
  #########################################################################################
  #
  #  Physical model
  #
    xc                 pbe
    spin               none
    relativistic       none
    charge             0.
  #
  #  SCF convergence
  #
    occupation_type    gaussian 0.01
    mixer              pulay
      n_max_pulay        10
      charge_mix_param   0.5
    sc_accuracy_rho    1E-5
    sc_accuracy_eev    1E-3
    sc_accuracy_etot   1E-6
    sc_iter_limit      100
  
    k_grid 10 10 10
  
  output esp
  esp state 4 6
  esp radius 3. 8.0
  esp equal_grid_n 20 20 20
  esp R_c 40
  esp grid 4
  ################################################################################
  #
  #  FHI-aims code project
  #  VB, Fritz-Haber Institut, 2009
  #
  #  Suggested "light" defaults for H atom (to be pasted into control.in file)
  #  Be sure to double-check any results obtained with these settings for post-processing,
  #  e.g., with the "tight" defaults and larger basis sets.
  #
  ################################################################################
    species        H
  #     global species definitions
      nucleus             1
      mass                1.00794
  #
      l_hartree           4
  #
      cut_pot             3.5  1.5  1.0
      basis_dep_cutoff    1e-4
  #
      radial_base         24 5.0
      radial_multiplier   1
      angular_grids       specified
        division   0.2421   50
        division   0.3822  110
        division   0.4799  194
        division   0.5341  302
  #      division   0.5626  434
  #      division   0.5922  590
  #      division   0.6542  770
  #      division   0.6868 1202
  #      outer_grid  770
        outer_grid  302
  ################################################################################
  #
  #  Definition of "minimal" basis
  #
  ################################################################################
  #     valence basis states
      valence      1  s   1.
  #     ion occupancy
      ion_occ      1  s   0.5
  ################################################################################
  #
  #  Suggested additional basis functions. For production calculations,
  #  uncomment them one after another (the most important basis functions are
  #  listed first).
  #
  #  Basis constructed for dimers: 0.5 A, 0.7 A, 1.0 A, 1.5 A, 2.5 A
  #
  ################################################################################
  #  "First tier" - improvements: -1014.90 meV to -62.69 meV
       hydro 2 s 2.1
       hydro 2 p 3.5
  #  "Second tier" - improvements: -12.89 meV to -1.83 meV
  #     hydro 1 s 0.85
  #     hydro 2 p 3.7
  #     hydro 2 s 1.2
  #     hydro 3 d 7
  #  "Third tier" - improvements: -0.25 meV to -0.12 meV
  #     hydro 4 f 11.2
  #     hydro 3 p 4.8
  #     hydro 4 d 9
  #     hydro 3 s 3.2
  ################################################################################
  #
  #  FHI-aims code project
  #  VB, Fritz-Haber Institut, 2009
  #
  #  Suggested "light" defaults for O atom (to be pasted into control.in file)
  #  Be sure to double-check any results obtained with these settings for post-processing,
  #  e.g., with the "tight" defaults and larger basis sets.
  #
  ################################################################################
    species        O
  #     global species definitions
      nucleus             8
      mass                15.9994
  #
      l_hartree           4
  #
      cut_pot             3.5  1.5  1.0
      basis_dep_cutoff    1e-4
  #
      radial_base         36 5.0
      radial_multiplier   1
       angular_grids specified
        division   0.2659   50
        division   0.4451  110
        division   0.6052  194
        division   0.7543  302
  #      division   0.8014  434
  #      division   0.8507  590
  #      division   0.8762  770
  #      division   0.9023  974
  #      division   1.2339 1202
  #      outer_grid 974
        outer_grid 302
  ################################################################################
  #
  #  Definition of "minimal" basis
  #
  ################################################################################
  #     valence basis states
      valence      2  s   2.
      valence      2  p   4.
  #     ion occupancy
      ion_occ      2  s   1.
      ion_occ      2  p   3.
  ################################################################################
  #
  #  Suggested additional basis functions. For production calculations,
  #  uncomment them one after another (the most important basis functions are
  #  listed first).
  #
  #  Constructed for dimers: 1.0 A, 1.208 A, 1.5 A, 2.0 A, 3.0 A
  #
  ################################################################################
  #  "First tier" - improvements: -699.05 meV to -159.38 meV
       hydro 2 p 1.8
       hydro 3 d 7.6
       hydro 3 s 6.4
  #  "Second tier" - improvements: -49.91 meV to -5.39 meV
  #     hydro 4 f 11.6
  #     hydro 3 p 6.2
  #     hydro 3 d 5.6
  #     hydro 5 g 17.6
  #     hydro 1 s 0.75
  #  "Third tier" - improvements: -2.83 meV to -0.50 meV
  #     ionic 2 p auto
  #     hydro 4 f 10.8
  #     hydro 4 d 4.7
  #     hydro 2 s 6.8
  #  "Fourth tier" - improvements: -0.40 meV to -0.12 meV
  #     hydro 3 p 5
  #     hydro 3 s 3.3
  #     hydro 5 g 15.6
  #     hydro 4 f 17.6
  #     hydro 4 d 14
  # Further basis functions - -0.08 meV and below
  #     hydro 3 s 2.1
  #     hydro 4 d 11.6
  #     hydro 3 p 16
  #     hydro 2 s 17.2
  
  
  
  -----------------------------------------------------------------------
  Completed first pass over input file control.in .
  -----------------------------------------------------------------------
  
  
  -----------------------------------------------------------------------
  Parsing geometry.in (first pass over file, find array dimensions only).
  The contents of geometry.in will be repeated verbatim below
  unless switched off by setting 'verbatim_writeout .false.' .
  in the first line of geometry.in .
  -----------------------------------------------------------------------
  
  # Geometry for water -- needs to be relaxed as the water molecule
  # described here has a 90degree bond angle and a
  # 1 Angstrom bond distance ...
  lattice_vector 20 0 0
  lattice_vector 0 20 0
  lattice_vector 0 0 20
              atom         0.00000000       -0.07313571        0.00000000  O
              atom         0.76748093       -0.67043214        0.00000000  H
              atom        -0.76748093       -0.67043214        0.00000000  H
  
  -----------------------------------------------------------------------
  Completed first pass over input file geometry.in .
  -----------------------------------------------------------------------
  

  Basic array size parameters:
  | Number of species                 :        2
  | Number of atoms                   :        3
  | Number of lattice vectors         :        3
  | Max. basis fn. angular momentum   :        2
  | Max. atomic/ionic basis occupied n:        2
  | Max. number of basis fn. types    :        2
  | Max. radial fns per species/type  :        3
  | Max. logarithmic grid size        :     1301
  | Max. radial integration grid size :       36
  | Max. angular integration grid size:      302
  | Max. angular grid division number :        8
  | Radial grid for Hartree potential :     1301
  | Number of spin channels           :        1

------------------------------------------------------------
          Reading file control.in.
------------------------------------------------------------
  XC: Using PBE gradient-corrected functionals.
  Spin treatment: No spin polarisation.
  Non-relativistic treatment of kinetic energy.
  Charge =   0.000000E+00: Neutral system requested explicitly.
  Occupation type: Gaussian broadening, width =   0.100000E-01 eV.
  Using pulay charge density mixing.
  Pulay mixing - number of memorized iterations:   10
  Charge density mixing - mixing parameter:     0.5000
  Convergence accuracy of self-consistent charge density:  0.1000E-04
  Convergence accuracy of sum of eigenvalues:  0.1000E-02
  Convergence accuracy of total energy:  0.1000E-05
  Maximum number of s.-c. iterations  :   100
  Found k-point grid:        10        10        10
  Fitting ESP-charges to Potential. 
  | Esp charge output options: 
  | Transistion Eigenstate i -> j:  0004 0006
  | Esp radis (inner/outer x vdw-radius):       3.00000000      8.00000000
  | ESP Grid method: 3, cubic grid
  | Number of points in x, ,y, z:  0020 0020 0020
  | Real space cut off:      40.00000000
  | ESP Grid method: 4, cubic grid from radii
  |
 
  Reading configuration options for species H                   .
  | Found nuclear charge :   1.0000
  | Found atomic mass :    1.00794000000000      amu
  | Found l_max for Hartree potential  :   4
  | Found cutoff potl. onset [A], width [A], scale factor :    3.50000    1.50000    1.00000
  | Threshold for basis-dependent cutoff potential is   0.100000E-03
  | Found data for basic radial integration grid :    24 points, outermost radius =    5.000 A
  | Found multiplier for basic radial grid :   1
  | Found angular grid specification: user-specified.
  | Specified grid contains     5 separate shells.
  | Check grid settings after all constraints further below.
  | Found free-atom valence shell :  1 s   1.000
  | No ionic wave fns used. Skipping ion_occ.
  | Found hydrogenic basis function :  2 s   2.100
  | Found hydrogenic basis function :  2 p   3.500
  Species H                   : Missing cutoff potential type.
  Defaulting to exp(1/x)/(1-x)^2 type cutoff potential.
  Species H : No 'logarithmic' tag. Using default grid for free atom:
  | Default logarithmic grid data [bohr] : 0.1000E-03 0.1000E+03 0.1012E+01
  Species H : On-site basis accuracy parameter (for Gram-Schmidt orthonormalisation) not specified.
  Using default value basis_acc =  0.1000000E-03.
  Species H                   : Using default innermost maximum threshold i_radial=  2 for radial functions.
  Species H                   : Default cutoff onset for free atom density etc. : 0.35000000E+01 AA.
  Species H                   : Basic radial grid will be enhanced according to radial_multiplier =   1, to contain    24 grid points.
 
  Reading configuration options for species O                   .
  | Found nuclear charge :   8.0000
  | Found atomic mass :    15.9994000000000      amu
  | Found l_max for Hartree potential  :   4
  | Found cutoff potl. onset [A], width [A], scale factor :    3.50000    1.50000    1.00000
  | Threshold for basis-dependent cutoff potential is   0.100000E-03
  | Found data for basic radial integration grid :    36 points, outermost radius =    5.000 A
  | Found multiplier for basic radial grid :   1
  | Found angular grid specification: user-specified.
  | Specified grid contains     5 separate shells.
  | Check grid settings after all constraints further below.
  | Found free-atom valence shell :  2 s   2.000
  | Found free-atom valence shell :  2 p   4.000
  | No ionic wave fns used. Skipping ion_occ.
  | No ionic wave fns used. Skipping ion_occ.
  | Found hydrogenic basis function :  2 p   1.800
  | Found hydrogenic basis function :  3 d   7.600
  | Found hydrogenic basis function :  3 s   6.400
  Species O                   : Missing cutoff potential type.
  Defaulting to exp(1/x)/(1-x)^2 type cutoff potential.
  Species O : No 'logarithmic' tag. Using default grid for free atom:
  | Default logarithmic grid data [bohr] : 0.1000E-03 0.1000E+03 0.1012E+01
  Species O : On-site basis accuracy parameter (for Gram-Schmidt orthonormalisation) not specified.
  Using default value basis_acc =  0.1000000E-03.
  Species O                   : Using default innermost maximum threshold i_radial=  2 for radial functions.
  Species O                   : Default cutoff onset for free atom density etc. : 0.35000000E+01 AA.
  Species O                   : Basic radial grid will be enhanced according to radial_multiplier =   1, to contain    36 grid points.
 
  Finished reading input file 'control.in'. Consistency checks are next.
 
  MPI_IN_PLACE appears to work with this MPI implementation.
  | Keeping use_mpi_in_place .true. (see manual).
  Target number of points in a grid batch is not set. Defaulting to  100
  Method for grid partitioning is not set. Defaulting to parallel hash+maxmin partitioning.
  Batch size limit is not set. Defaulting to    200
  By default, will store active basis functions for each batch.
  If in need of memory, prune_basis_once .false. can be used to disable this option.
  communication_type for Hartree potential was not specified.
  Defaulting to calc_hartree .
  Pulay mixer: Number of initial linear mixing iterations not set.
  Defaulting to    0 iterations.
  Work space size for distributed Hartree potential not set.
  Defaulting to   0.200000E+03 MB.
  Algorithm-dependent basis array size parameters:
  | n_max_pulay                         :       10
  Presetting      1001 iterations before the initial mixing cycle
  is restarted anyway using the sc_init_iter criterion / keyword.
  Presetting a factor      1.000 between actual scf density residual
  and density convergence criterion sc_accuracy_rho below which sc_init_iter
  takes no effect.
  Calculation of forces was not defined in control.in. No forces will be calculated.
  Geometry relaxation not requested: no relaxation will be performed.
  No accuracy limit for integral partition fn. given. Defaulting to  0.1000E-14.
  No threshold value for u(r) in integrations given. Defaulting to  0.1000E-05.
  No accuracy for occupation numbers given. Defaulting to  0.1000E-12.
  No threshold value for occupation numbers given. Defaulting to  0.0000E+00.
  No accuracy for fermi level given. Defaulting to  0.1000E-19.
  Maximum # of iterations to find E_F not set. Defaulting to  200.
  Preferred method for the eigenvalue solver ('KS_method') not specified in 'control.in'.
  Defaulting to serial version, LAPACK (via ELSI), since more k-points than CPUs available.
  Will not use alltoall communication since running on < 1024 CPUs.
  Threshold for basis singularities not set.
  Default threshold for basis singularities:  0.1000E-04
  partition_type (choice of integration weights) for integrals was not specified.
  | Using a version of the partition function of Stratmann and coworkers ('stratmann_sparse').
  | At each grid point, the set of atoms used to build the partition table is smoothly restricted to
  | only those atoms whose free-atom density would be non-zero at that grid point.
  Partitioning for Hartree potential was not defined. Using partition_type for integrals.
  | Adjusted default value of keyword multip_moments_threshold to:       0.10000000E-11
  | This value may affect high angular momentum components of the Hartree potential in periodic systems.
  Angular momentum expansion for Kerker preconditioner not set explicitly.
  | Using default value of   0
  No explicit requirement for turning off preconditioner.
  | By default, it will be turned off when the charge convergence reaches
  | sc_accuracy_rho  =   0.100000E-04
  | sc_accuracy_eev  =   0.100000E-02
  | sc_accuracy_etot =   0.100000E-05
  No special mixing parameter while Kerker preconditioner is on.
  Using default: charge_mix_param =     0.5000.
  No q(lm)/r^(l+1) cutoff set for long-range Hartree potential.
  | Using default value of  0.100000E-09 .
  | Verify using the multipole_threshold keyword.
  Defaulting to new monopole extrapolation.
  Density update method: automatic selection selected.
  Using density matrix based charge density update.
  Using density matrix based charge density update.
  Using packed matrix style: index .
  Defaulting to use time-reversal symmetry for k-point grid.
  Charge integration errors on the 3D integration grid will be compensated
  by explicit normalization and distribution of residual charges.
  Use the "compensate_multipole_errors" flag to change this behaviour.
------------------------------------------------------------


------------------------------------------------------------
          Reading geometry description geometry.in.
------------------------------------------------------------
  Input structure read successfully.
  The structure contains        3 atoms,  and a total of         10.000 electrons.

  Input geometry:
  | Unit cell:
  |       20.00000000        0.00000000        0.00000000
  |        0.00000000       20.00000000        0.00000000
  |        0.00000000        0.00000000       20.00000000
  | Atomic structure:
  |       Atom                x [A]            y [A]            z [A]
  |    1: Species O             0.00000000       -0.07313571        0.00000000
  |    2: Species H             0.76748093       -0.67043214        0.00000000
  |    3: Species H            -0.76748093       -0.67043214        0.00000000

  Lattice parameters for 3D lattice (in Angstroms) :    20.000000   20.000000   20.000000
  Angle(s) between unit vectors (in degrees)       :    90.000000   90.000000   90.000000

  | The smallest distance between any two atoms is         0.97251735 AA.
  | The first atom of this pair is atom number                      1 .
  | The second atom of this pair is atom number                     2 .
  | Wigner-Seitz cell of the first atom image           0     0     0 .
  | (The Wigner-Seitz cell of the second atom is 0 0 0  by definition.)

  Symmetry information by spglib:
  | Precision set to  0.1E-04
  | Number of Operations  : 4
  | Space group           : 25
  | International         : Pmm2
  | Schoenflies           : C2v^1

  Quantities derived from the lattice vectors:
  | Reciprocal lattice vector 1:  0.314159  0.000000  0.000000
  | Reciprocal lattice vector 2:  0.000000  0.314159  0.000000
  | Reciprocal lattice vector 3:  0.000000  0.000000  0.314159
  | Unit cell volume                               :   0.800000E+04  A^3

  Range separation radius for Ewald summation (hartree_convergence_parameter):      5.00000000 bohr.

  Fractional coordinates:
                         L1                L2                L3
       atom_frac         0.00000000       -0.00365679        0.00000000  O
       atom_frac         0.03837405       -0.03352161        0.00000000  H
       atom_frac        -0.03837405       -0.03352161        0.00000000  H

  Number of empty states per atom not set in control.in - providing a guess from actual geometry.
  | Total number of empty states used during s.c.f. cycle:        6
  If you use a very high smearing, use empty_states (per atom!) in control.in to increase this value.

  Structure-dependent array size parameters: 
  | Maximum number of distinct radial functions  :        9
  | Maximum number of basis functions            :       24
  | Number of Kohn-Sham states (occupied + empty):       11
------------------------------------------------------------

------------------------------------------------------------
          Preparing all fixed parts of the calculation.
------------------------------------------------------------
  Determining machine precision:
    2.225073858507201E-308
  Setting up grids for atomic and cluster calculations.

  Creating wave function, potential, and density for free atoms.

  Species: H

  List of occupied orbitals and eigenvalues:
    n    l              occ      energy [Ha]    energy [eV]
    1    0           1.0000        -0.237589        -6.4651


  Species: O

  List of occupied orbitals and eigenvalues:
    n    l              occ      energy [Ha]    energy [eV]
    1    0           2.0000       -18.898188      -514.2459
    2    0           2.0000        -0.878505       -23.9053
    2    1           4.0000        -0.331779        -9.0282

  Creating fixed part of basis set: Ionic, confined, hydrogenic.
 
  H                    hydrogenic:
 
  List of hydrogenic basis orbitals: 
    n    l      effective z      eigenvalue [eV]  inner max. [A]     outer max. [A]     outer radius [A]   
    2    0         2.100000       -14.9728           0.193243           1.317208           4.583499
    2    1         3.500000       -41.6669           0.602369           0.602369           3.723403
 
 
  O                    hydrogenic:
 
  List of hydrogenic basis orbitals: 
    n    l      effective z      eigenvalue [eV]  inner max. [A]     outer max. [A]     outer radius [A]   
    2    1         1.800000       -10.9749           1.164242           1.164242           4.578029
    3    2         7.600000       -87.3180           0.624125           0.624125           3.251020
    3    0         6.400000       -61.9207           0.061167           1.081902           4.001998
 

  Adding cutoff potential to free-atom effective potential.
  Creating atomic-like basis functions for current effective potential.

  Species H                   :

  List of atomic basis orbitals and eigenvalues:
    n    l      energy [Ha]    energy [eV]    outer radius [A]
    1    0        -0.237589        -6.4651       4.527807


  Species O                   :

  List of atomic basis orbitals and eigenvalues:
    n    l      energy [Ha]    energy [eV]    outer radius [A]
    1    0       -18.898188      -514.2459       1.415765
    2    0        -0.878505       -23.9053       4.413171
    2    1        -0.331779        -9.0282       4.522403

  Assembling full basis from fixed parts.
  | Species H :   atomic orbital   1 s accepted.
  | Species H :    hydro orbital   2 s accepted.
  | Species H :    hydro orbital   2 p accepted.
  | Species O :   atomic orbital   1 s accepted.
  | Species O :    hydro orbital   3 s accepted.
  | Species O :   atomic orbital   2 s accepted.
  | Species O :   atomic orbital   2 p accepted.
  | Species O :    hydro orbital   2 p accepted.
  | Species O :    hydro orbital   3 d accepted.
 
  Basis size parameters after reduction:
  | Total number of radial functions:        9
  | Total number of basis functions :       24
 
  Per-task memory consumption for arrays in subroutine allocate_ext:
  |           2.249332MB.
  Testing on-site integration grid accuracy.
  |  Species  Function  <phi|h_atom|phi> (log., in eV)  <phi|h_atom|phi> (rad., in eV)
           1        1                 -6.4663192853                 -6.4651273558
           1        2                 13.7111246313                 13.7170609718
           1        3                 25.2673269279                 25.2674696378
           2        4               -514.2458688638               -514.2457643834
           2        5                 15.1795651126                 15.1795290741
           2        6                -21.5359799773                -21.5360846185
           2        7                 -9.0283069236                 -9.0284644067
           2        8                  8.3027758563                  8.2834874195
           2        9                 45.8339351984                 45.8338762260

  Preparing densities etc. for the partition functions (integrals / Hartree potential).

  Preparations completed.
  max(cpu_time)          :      0.096 s.
  Wall clock time (cpu1) :      0.095 s.
------------------------------------------------------------

------------------------------------------------------------
          Begin self-consistency loop: Initialization.

          Date     :  20190817, Time     :  153415.859
------------------------------------------------------------

  Initializing index lists of integration centers etc. from given atomic structure:
  Mapping all atomic coordinates to central unit cell.

  Initializing the k-points
          Using symmetry for reducing the k-points
  | k-points reduced from:     1000 to      504
  | Number of k-points                             :       504
  The eigenvectors in the calculations are COMPLEX.
  | K-points in task   0:        63
  | K-points in task   1:        63
  | K-points in task   2:        63
  | K-points in task   3:        63
  | K-points in task   4:        63
  | K-points in task   5:        63
  | K-points in task   6:        63
  | K-points in task   7:        63
  | Number of basis functions in the Hamiltonian integrals :        24
  | Number of basis functions in a single unit cell        :        24
  | Number of centers in hartree potential         :         3
  | Number of centers in hartree multipole         :         3
  | Number of centers in electron density summation:         3
  | Number of centers in basis integrals           :         3
  | Number of centers in integrals                 :         3
  | Number of centers in hamiltonian               :         3
  | Consuming         15 KiB for k_phase.
  | Number of super-cells (origin) [n_cells]                     :         125
  | Number of super-cells (after PM_index) [n_cells]             :           2
  | Number of super-cells in hamiltonian [n_cells_in_hamiltonian]:           2
  | Size of matrix packed + index [n_hamiltonian_matrix_size] :         301
  | Estimated reciprocal-space cutoff momentum G_max:         1.84432723 bohr^-1 .
  | Reciprocal lattice points for long-range Hartree potential:    5742
  Partitioning the integration grid into batches with parallel hashing+maxmin method.
  | Number of batches:      247
  | Maximal batch size:     104
  | Minimal batch size:      49
  | Average batch size:      64.470
  | Standard deviation of batch sizes:       9.597

  Integration load balanced across     8 MPI tasks.
  Work distribution over tasks is as follows:
  Task     0 has       1961 integration points.
  Task     1 has       1996 integration points.
  Task     2 has       2037 integration points.
  Task     3 has       2002 integration points.
  Task     4 has       1982 integration points.
  Task     5 has       1994 integration points.
  Task     6 has       1988 integration points.
  Task     7 has       1964 integration points.
  Initializing partition tables, free-atom densities, potentials, etc. across the integration grid (initialize_grid_storage).
  | initialize_grid_storage: Actual outermost partition radius vs. multipole_radius_free
  | (-- VB: in principle, multipole_radius_free should be larger, hence this output)
  | Species        1: Confinement radius =              4.999999999999999 AA, multipole_radius_free =              5.054417573612229 AA.
  | Species        1: outer_partition_radius set to              5.054417573612229 AA .
  | Species        2: Confinement radius =              4.999999999999999 AA, multipole_radius_free =              5.048384829883283 AA.
  | Species        2: outer_partition_radius set to              5.048384829883283 AA .
  | The sparse table of interatomic distances needs          0.09 kbyte instead of         0.07 kbyte of memory.
  | Using the partition_type stratmann_smoother will reduce your memory usage.
  | Net number of integration points:    15924
  | of which are non-zero points    :    14544
  | Numerical average free-atom electrostatic potential    :     -0.02002327 eV
  Renormalizing the initial density to the exact electron count on the 3D integration grid.
  | Initial density: Formal number of electrons (from input files) :      10.0000000000
  | Integrated number of electrons on 3D grid     :       9.9999463253
  | Charge integration error                      :      -0.0000536747
  | Normalization factor for density and gradient :       1.0000053675
  Renormalizing the free-atom superposition density to the exact electron count on the 3D integration grid.
  | Formal number of electrons (from input files) :      10.0000000000
  | Integrated number of electrons on 3D grid     :       9.9999463253
  | Charge integration error                      :      -0.0000536747
  | Normalization factor for density and gradient :       1.0000053675
  Obtaining max. number of non-zero basis functions in each batch (get_n_compute_maxes).
  | Maximal number of non-zero basis functions:       24 in task     0
  | Maximal number of non-zero basis functions:       24 in task     1
  | Maximal number of non-zero basis functions:       24 in task     2
  | Maximal number of non-zero basis functions:       24 in task     3
  | Maximal number of non-zero basis functions:       24 in task     4
  | Maximal number of non-zero basis functions:       24 in task     5
  | Maximal number of non-zero basis functions:       24 in task     6
  | Maximal number of non-zero basis functions:       24 in task     7
  Allocating        0.254 MB for KS_eigenvector_complex
  Integrating Hamiltonian matrix: batch-based integration.
  Time summed over all CPUs for integration: real work        0.036 s, elapsed        0.039 s
  Integrating overlap matrix.
  Time summed over all CPUs for integration: real work        0.012 s, elapsed        0.012 s
  Decreasing sparse matrix size:
   Tolerance:  9.999999824516700E-014
   Hamiltonian matrix
  | Array has      168 nonzero elements out of      301 elements
  | Sparsity factor is 0.442
   Overlap matrix
  | Array has      168 nonzero elements out of      301 elements
  | Sparsity factor is 0.442
  New size of hamiltonian matrix:         241

  Updating Kohn-Sham eigenvalues and eigenvectors using ELSI and the (modified) LAPACK eigensolver.
  Singularity check in k-point 8, task 0 (analysis for other k-points/tasks may follow below):
  Overlap matrix is not singular
  | Lowest and highest eigenvalues :  0.1660E-01,  0.2705E+01
  Finished singularity check of overlap matrix
  | Time :     0.001 s
  Starting LAPACK eigensolver
  Finished Cholesky decomposition
  | Time :     0.000 s
  Finished transformation to standard eigenproblem
  | Time :     0.000 s
  Finished solving standard eigenproblem
  | Time :     0.000 s
  Finished back-transformation of eigenvectors
  | Time :     0.000 s

  Obtaining occupation numbers and chemical potential using ELSI.
  | Chemical potential (Fermi level):    -1.40267630 eV
  Writing Kohn-Sham eigenvalues.
  K-point:       1 at    0.000000    0.000000    0.000000 (in units of recip. lattice)

  State    Occupation    Eigenvalue [Ha]    Eigenvalue [eV]
      1       2.00000         -19.002470         -517.08352
      2       2.00000          -1.092398          -29.72566
      3       2.00000          -0.623827          -16.97519
      4       2.00000          -0.507523          -13.81039
      5       2.00000          -0.434960          -11.83586
      6       0.00000          -0.049676           -1.35177
      7       0.00000           0.031879            0.86748
      8       0.00000           0.215975            5.87698
      9       0.00000           0.249412            6.78683
     10       0.00000           0.302870            8.24151
     11       0.00000           0.505798           13.76346

  What follows are estimated values for band gap, HOMO, LUMO, etc.
  | They are estimated on a discrete k-point grid and not necessarily exact.
  | For converged numbers, create a DOS and/or band structure plot on a denser k-grid.

  Highest occupied state (VBM) at    -11.83585962 eV (relative to internal zero)
  | Occupation number:      2.00000000
  | K-point:       1 at    0.000000    0.000000    0.000000 (in units of recip. lattice)

  Lowest unoccupied state (CBM) at    -1.35176562 eV (relative to internal zero)
  | Occupation number:      0.00000000
  | K-point:       1 at    0.000000    0.000000    0.000000 (in units of recip. lattice)

  ESTIMATED overall HOMO-LUMO gap:     10.48409400 eV between HOMO at k-point 1 and LUMO at k-point 1
  | This appears to be a direct band gap.
  The gap value is above 0.2 eV. Unless you are using a very sparse k-point grid,
  this system is most likely an insulator or a semiconductor.
  Calculating total energy contributions from superposition of free atom densities.

  Total energy components:
  | Sum of eigenvalues            :         -43.32235444 Ha       -1178.86124398 eV
  | XC energy correction          :          -9.01272410 Ha        -245.24870088 eV
  | XC potential correction       :          11.58837182 Ha         315.33564139 eV
  | Free-atom electrostatic energy:         -35.71003035 Ha        -971.71936649 eV
  | Hartree energy correction     :           0.00000000 Ha           0.00000000 eV
  | Entropy correction            :          -0.00000000 Ha          -0.00000000 eV
  | ---------------------------
  | Total energy                  :         -76.45673707 Ha       -2080.49366995 eV
  | Total energy, T -> 0          :         -76.45673707 Ha       -2080.49366995 eV  <-- do not rely on this value for anything but (periodic) metals
  | Electronic free energy        :         -76.45673707 Ha       -2080.49366995 eV

  Derived energy quantities:
  | Kinetic energy                :          75.52975287 Ha        2055.26914649 eV
  | Electrostatic energy          :        -142.97376584 Ha       -3890.51411557 eV
  | Energy correction for multipole
  | error in Hartree potential    :           0.00000000 Ha           0.00000000 eV
  | Sum of eigenvalues per atom                           :        -392.95374799 eV
  | Total energy (T->0) per atom                          :        -693.49788998 eV  <-- do not rely on this value for anything but (periodic) metals
  | Electronic free energy per atom                       :        -693.49788998 eV
  Initialize hartree_potential_storage
  Max. number of atoms included in rho_multipole:            3

  End scf initialization - timings             :  max(cpu_time)    wall_clock(cpu1)
  | Time for scf. initialization               :        0.088 s           0.088 s
  | Boundary condition initialization          :        0.043 s           0.043 s
  | Integration                                :        0.007 s           0.007 s
  | Solution of K.-S. eqns.                    :        0.023 s           0.023 s
  | Grid partitioning                          :        0.007 s           0.007 s
  | Preloading free-atom quantities on grid    :        0.003 s           0.003 s
  | Free-atom superposition energy             :        0.002 s           0.002 s
  | Total energy evaluation                    :        0.000 s           0.000 s

  Partial memory accounting:
  | Current value for overall tracked memory usage:
  |   Minimum:        0.259 MB (on task 0)
  |   Maximum:        0.259 MB (on task 0)
  |   Average:        0.259 MB
  | Peak value for overall tracked memory usage:
  |   Minimum:        0.322 MB (on task 0 after allocating wave)
  |   Maximum:        0.322 MB (on task 0 after allocating wave)
  |   Average:        0.322 MB
  | Largest tracked array allocation so far:
  |   Minimum:        0.254 MB (KS_eigenvector_complex on task 0)
  |   Maximum:        0.254 MB (KS_eigenvector_complex on task 0)
  |   Average:        0.254 MB
  Note:  These values currently only include a subset of arrays which are explicitly tracked.
  The "true" memory usage will be greater.
------------------------------------------------------------

------------------------------------------------------------
          Begin self-consistency iteration #    1

  Date     :  20190817, Time     :  153415.948
------------------------------------------------------------
  Evaluating new KS density using the density matrix
  Evaluating density matrix
  Time summed over all CPUs for getting density from density matrix: real work        0.024 s, elapsed        0.025 s
  Integration grid: deviation in total charge (<rho> - N_e) =   6.057377E-13
  Pulay mixing of updated and previous charge densities.
  Renormalizing the density to the exact electron count on the 3D integration grid.
  | Formal number of electrons (from input files) :      10.0000000000
  | Integrated number of electrons on 3D grid     :       9.9993112367
  | Charge integration error                      :      -0.0006887633
  | Normalization factor for density and gradient :       1.0000688811

  Evaluating partitioned Hartree potential by multipole expansion.
  | Original multipole sum: apparent total charge =  -0.806806E-14
  | Sum of charges compensated after spline to logarithmic grids =  -0.961778E-05
  | Analytical far-field extrapolation by fixed multipoles:
  | Hartree multipole sum: apparent total charge =  -0.787128E-14
  Summing up the Hartree potential.
  Time summed over all CPUs for potential: real work        0.314 s, elapsed        0.323 s
  | RMS charge density error from multipole expansion :   0.296370E-02
  | Average real-space part of the electrostatic potential :      0.00126495 eV

  Integrating Hamiltonian matrix: batch-based integration.
  Time summed over all CPUs for integration: real work        0.035 s, elapsed        0.036 s

  Updating Kohn-Sham eigenvalues and eigenvectors using ELSI and the (modified) LAPACK eigensolver.
  Starting LAPACK eigensolver
  Finished Cholesky decomposition
  | Time :     0.000 s
  Finished transformation to standard eigenproblem
  | Time :     0.000 s
  Finished solving standard eigenproblem
  | Time :     0.000 s
  Finished back-transformation of eigenvectors
  | Time :     0.000 s

  Obtaining occupation numbers and chemical potential using ELSI.
  | Chemical potential (Fermi level):    -0.50031082 eV
  Writing Kohn-Sham eigenvalues.
  K-point:       1 at    0.000000    0.000000    0.000000 (in units of recip. lattice)

  State    Occupation    Eigenvalue [Ha]    Eigenvalue [eV]
      1       2.00000         -18.708991         -509.09754
      2       2.00000          -0.956436          -26.02595
      3       2.00000          -0.510984          -13.90458
      4       2.00000          -0.368959          -10.03990
      5       2.00000          -0.289850           -7.88722
      6       0.00000          -0.016518           -0.44947
      7       0.00000           0.079304            2.15798
      8       0.00000           0.280341            7.62847
      9       0.00000           0.319030            8.68125
     10       0.00000           0.345000            9.38792
     11       0.00000           0.544553           14.81805

  What follows are estimated values for band gap, HOMO, LUMO, etc.
  | They are estimated on a discrete k-point grid and not necessarily exact.
  | For converged numbers, create a DOS and/or band structure plot on a denser k-grid.

  Highest occupied state (VBM) at     -7.88721799 eV (relative to internal zero)
  | Occupation number:      2.00000000
  | K-point:       1 at    0.000000    0.000000    0.000000 (in units of recip. lattice)

  Lowest unoccupied state (CBM) at    -0.44947112 eV (relative to internal zero)
  | Occupation number:      0.00000000
  | K-point:       1 at    0.000000    0.000000    0.000000 (in units of recip. lattice)

  ESTIMATED overall HOMO-LUMO gap:      7.43774687 eV between HOMO at k-point 1 and LUMO at k-point 1
  | This appears to be a direct band gap.
  The gap value is above 0.2 eV. Unless you are using a very sparse k-point grid,
  this system is most likely an insulator or a semiconductor.

  Total energy components:
  | Sum of eigenvalues            :         -41.67044001 Ha       -1133.91036530 eV
  | XC energy correction          :          -9.20696921 Ha        -250.53437928 eV
  | XC potential correction       :          11.84075473 Ha         322.20332985 eV
  | Free-atom electrostatic energy:         -35.71003035 Ha        -971.71936649 eV
  | Hartree energy correction     :          -1.64196692 Ha         -44.68019309 eV
  | Entropy correction            :          -0.00000000 Ha          -0.00000000 eV
  | ---------------------------
  | Total energy                  :         -76.38865175 Ha       -2078.64097431 eV
  | Total energy, T -> 0          :         -76.38865175 Ha       -2078.64097431 eV  <-- do not rely on this value for anything but (periodic) metals
  | Electronic free energy        :         -76.38865175 Ha       -2078.64097431 eV

  Derived energy quantities:
  | Kinetic energy                :          76.61860721 Ha        2084.89838068 eV
  | Electrostatic energy          :        -143.80028975 Ha       -3913.00497571 eV
  | Energy correction for multipole
  | error in Hartree potential    :           0.00139417 Ha           0.03793730 eV
  | Sum of eigenvalues per atom                           :        -377.97012177 eV
  | Total energy (T->0) per atom                          :        -692.88032477 eV  <-- do not rely on this value for anything but (periodic) metals
  | Electronic free energy per atom                       :        -692.88032477 eV

  Self-consistency convergence accuracy:
  | Change of charge density      :  0.3060E+00
  | Change of sum of eigenvalues  :  0.4495E+02 eV
  | Change of total energy        :  0.1853E+01 eV

  End self-consistency iteration #     1       :  max(cpu_time)    wall_clock(cpu1)
  | Time for this iteration                    :        0.076 s           0.076 s
  | Charge density update                      :        0.004 s           0.004 s
  | Density mixing & preconditioning           :        0.004 s           0.004 s
  | Hartree multipole update                   :        0.001 s           0.001 s
  | Hartree multipole summation                :        0.046 s           0.046 s
  | Integration                                :        0.005 s           0.005 s
  | Solution of K.-S. eqns.                    :        0.015 s           0.015 s
  | Total energy evaluation                    :        0.000 s           0.001 s

  Partial memory accounting:
  | Current value for overall tracked memory usage:
  |   Minimum:        0.259 MB (on task 0)
  |   Maximum:        0.259 MB (on task 0)
  |   Average:        0.259 MB
  | Peak value for overall tracked memory usage:
  |   Minimum:        0.377 MB (on task 0 after allocating gradient_basis_wave)
  |   Maximum:        0.377 MB (on task 0 after allocating gradient_basis_wave)
  |   Average:        0.377 MB
  | Largest tracked array allocation so far:
  |   Minimum:        0.254 MB (KS_eigenvector_complex on task 0)
  |   Maximum:        0.254 MB (KS_eigenvector_complex on task 0)
  |   Average:        0.254 MB
  Note:  These values currently only include a subset of arrays which are explicitly tracked.
  The "true" memory usage will be greater.
------------------------------------------------------------

------------------------------------------------------------
          Begin self-consistency iteration #    2

  Date     :  20190817, Time     :  153416.024
------------------------------------------------------------
  Evaluating new KS density using the density matrix
  Evaluating density matrix
  Time summed over all CPUs for getting density from density matrix: real work        0.022 s, elapsed        0.023 s
  Integration grid: deviation in total charge (<rho> - N_e) =   6.430412E-13
  Pulay mixing of updated and previous charge densities.
  Renormalizing the density to the exact electron count on the 3D integration grid.
  | Formal number of electrons (from input files) :      10.0000000000
  | Integrated number of electrons on 3D grid     :       9.9997808591
  | Charge integration error                      :      -0.0002191409
  | Normalization factor for density and gradient :       1.0000219146

  Evaluating partitioned Hartree potential by multipole expansion.
  | Original multipole sum: apparent total charge =  -0.755151E-14
  | Sum of charges compensated after spline to logarithmic grids =   0.839925E-05
  | Analytical far-field extrapolation by fixed multipoles:
  | Hartree multipole sum: apparent total charge =  -0.676438E-14
  Summing up the Hartree potential.
  Time summed over all CPUs for potential: real work        0.315 s, elapsed        0.323 s
  | RMS charge density error from multipole expansion :   0.421226E-02
  | Average real-space part of the electrostatic potential :      0.00187055 eV

  Integrating Hamiltonian matrix: batch-based integration.
  Time summed over all CPUs for integration: real work        0.035 s, elapsed        0.036 s

  Updating Kohn-Sham eigenvalues and eigenvectors using ELSI and the (modified) LAPACK eigensolver.
  Starting LAPACK eigensolver
  Finished Cholesky decomposition
  | Time :     0.000 s
  Finished transformation to standard eigenproblem
  | Time :     0.000 s
  Finished solving standard eigenproblem
  | Time :     0.001 s
  Finished back-transformation of eigenvectors
  | Time :     0.000 s

  Obtaining occupation numbers and chemical potential using ELSI.
  | Chemical potential (Fermi level):    -0.35787308 eV
  What follows are estimated values for band gap, HOMO, LUMO, etc.
  | They are estimated on a discrete k-point grid and not necessarily exact.
  | For converged numbers, create a DOS and/or band structure plot on a denser k-grid.

  Highest occupied state (VBM) at     -7.66779721 eV (relative to internal zero)
  | Occupation number:      2.00000000
  | K-point:       1 at    0.000000    0.000000    0.000000 (in units of recip. lattice)

  Lowest unoccupied state (CBM) at    -0.30690243 eV (relative to internal zero)
  | Occupation number:      0.00000000
  | K-point:       1 at    0.000000    0.000000    0.000000 (in units of recip. lattice)

  ESTIMATED overall HOMO-LUMO gap:      7.36089478 eV between HOMO at k-point 1 and LUMO at k-point 1
  | This appears to be a direct band gap.
  The gap value is above 0.2 eV. Unless you are using a very sparse k-point grid,
  this system is most likely an insulator or a semiconductor.

  Checking to see if s.c.f. parameters should be adjusted.

  Total energy components:
  | Sum of eigenvalues            :         -41.65954795 Ha       -1133.61397743 eV
  | XC energy correction          :          -9.20794975 Ha        -250.56106111 eV
  | XC potential correction       :          11.84249859 Ha         322.25078264 eV
  | Free-atom electrostatic energy:         -35.71003035 Ha        -971.71936649 eV
  | Hartree energy correction     :          -1.65060678 Ha         -44.91529571 eV
  | Entropy correction            :          -0.00000000 Ha          -0.00000000 eV
  | ---------------------------
  | Total energy                  :         -76.38563624 Ha       -2078.55891810 eV
  | Total energy, T -> 0          :         -76.38563624 Ha       -2078.55891810 eV  <-- do not rely on this value for anything but (periodic) metals
  | Electronic free energy        :         -76.38563624 Ha       -2078.55891810 eV

  Derived energy quantities:
  | Kinetic energy                :          76.37313922 Ha        2078.21885673 eV
  | Electrostatic energy          :        -143.55082571 Ha       -3906.21671372 eV
  | Energy correction for multipole
  | error in Hartree potential    :          -0.00038514 Ha          -0.01048009 eV
  | Sum of eigenvalues per atom                           :        -377.87132581 eV
  | Total energy (T->0) per atom                          :        -692.85297270 eV  <-- do not rely on this value for anything but (periodic) metals
  | Electronic free energy per atom                       :        -692.85297270 eV

  Self-consistency convergence accuracy:
  | Change of charge density      :  0.1293E+00
  | Change of sum of eigenvalues  :  0.2964E+00 eV
  | Change of total energy        :  0.8206E-01 eV

  End self-consistency iteration #     2       :  max(cpu_time)    wall_clock(cpu1)
  | Time for this iteration                    :        0.076 s           0.076 s
  | Charge density update                      :        0.004 s           0.004 s
  | Density mixing & preconditioning           :        0.004 s           0.004 s
  | Hartree multipole update                   :        0.001 s           0.001 s
  | Hartree multipole summation                :        0.046 s           0.046 s
  | Integration                                :        0.005 s           0.004 s
  | Solution of K.-S. eqns.                    :        0.015 s           0.016 s
  | Total energy evaluation                    :        0.000 s           0.001 s

  Partial memory accounting:
  | Current value for overall tracked memory usage:
  |   Minimum:        0.260 MB (on task 0)
  |   Maximum:        0.260 MB (on task 0)
  |   Average:        0.260 MB
  | Peak value for overall tracked memory usage:
  |   Minimum:        0.377 MB (on task 0 after allocating gradient_basis_wave)
  |   Maximum:        0.377 MB (on task 0 after allocating gradient_basis_wave)
  |   Average:        0.377 MB
  | Largest tracked array allocation so far:
  |   Minimum:        0.254 MB (KS_eigenvector_complex on task 0)
  |   Maximum:        0.254 MB (KS_eigenvector_complex on task 0)
  |   Average:        0.254 MB
  Note:  These values currently only include a subset of arrays which are explicitly tracked.
  The "true" memory usage will be greater.
------------------------------------------------------------

------------------------------------------------------------
          Begin self-consistency iteration #    3

  Date     :  20190817, Time     :  153416.100
------------------------------------------------------------
  Evaluating new KS density using the density matrix
  Evaluating density matrix
  Time summed over all CPUs for getting density from density matrix: real work        0.023 s, elapsed        0.024 s
  Integration grid: deviation in total charge (<rho> - N_e) =   5.684342E-13
  Pulay mixing of updated and previous charge densities.
  Renormalizing the density to the exact electron count on the 3D integration grid.
  | Formal number of electrons (from input files) :      10.0000000000
  | Integrated number of electrons on 3D grid     :       9.9993584437
  | Charge integration error                      :      -0.0006415563
  | Normalization factor for density and gradient :       1.0000641597

  Evaluating partitioned Hartree potential by multipole expansion.
  | Original multipole sum: apparent total charge =  -0.639541E-14
  | Sum of charges compensated after spline to logarithmic grids =   0.735910E-04
  | Analytical far-field extrapolation by fixed multipoles:
  | Hartree multipole sum: apparent total charge =  -0.553449E-14
  Summing up the Hartree potential.
  Time summed over all CPUs for potential: real work        0.313 s, elapsed        0.320 s
  | RMS charge density error from multipole expansion :   0.647871E-02
  | Average real-space part of the electrostatic potential :      0.00286690 eV

  Integrating Hamiltonian matrix: batch-based integration.
  Time summed over all CPUs for integration: real work        0.035 s, elapsed        0.037 s

  Updating Kohn-Sham eigenvalues and eigenvectors using ELSI and the (modified) LAPACK eigensolver.
  Starting LAPACK eigensolver
  Finished Cholesky decomposition
  | Time :     0.000 s
  Finished transformation to standard eigenproblem
  | Time :     0.000 s
  Finished solving standard eigenproblem
  | Time :     0.000 s
  Finished back-transformation of eigenvectors
  | Time :     0.000 s

  Obtaining occupation numbers and chemical potential using ELSI.
  | Chemical potential (Fermi level):    -0.08387553 eV
  What follows are estimated values for band gap, HOMO, LUMO, etc.
  | They are estimated on a discrete k-point grid and not necessarily exact.
  | For converged numbers, create a DOS and/or band structure plot on a denser k-grid.

  Highest occupied state (VBM) at     -7.17888246 eV (relative to internal zero)
  | Occupation number:      2.00000000
  | K-point:       1 at    0.000000    0.000000    0.000000 (in units of recip. lattice)

  Lowest unoccupied state (CBM) at    -0.03294295 eV (relative to internal zero)
  | Occupation number:      0.00000000
  | K-point:       1 at    0.000000    0.000000    0.000000 (in units of recip. lattice)

  ESTIMATED overall HOMO-LUMO gap:      7.14593950 eV between HOMO at k-point 1 and LUMO at k-point 1
  | This appears to be a direct band gap.
  The gap value is above 0.2 eV. Unless you are using a very sparse k-point grid,
  this system is most likely an insulator or a semiconductor.

  Total energy components:
  | Sum of eigenvalues            :         -41.56178726 Ha       -1130.95377360 eV
  | XC energy correction          :          -9.22477249 Ha        -251.01883102 eV
  | XC potential correction       :          11.86554864 Ha         322.87800624 eV
  | Free-atom electrostatic energy:         -35.71003035 Ha        -971.71936649 eV
  | Hartree energy correction     :          -1.75236175 Ha         -47.68418936 eV
  | Entropy correction            :          -0.00000000 Ha          -0.00000000 eV
  | ---------------------------
  | Total energy                  :         -76.38340321 Ha       -2078.49815422 eV
  | Total energy, T -> 0          :         -76.38340321 Ha       -2078.49815422 eV  <-- do not rely on this value for anything but (periodic) metals
  | Electronic free energy        :         -76.38340321 Ha       -2078.49815422 eV

  Derived energy quantities:
  | Kinetic energy                :          76.08263569 Ha        2070.31385364 eV
  | Electrostatic energy          :        -143.24126642 Ha       -3897.79317685 eV
  | Energy correction for multipole
  | error in Hartree potential    :          -0.00301407 Ha          -0.08201691 eV
  | Sum of eigenvalues per atom                           :        -376.98459120 eV
  | Total energy (T->0) per atom                          :        -692.83271807 eV  <-- do not rely on this value for anything but (periodic) metals
  | Electronic free energy per atom                       :        -692.83271807 eV

  Self-consistency convergence accuracy:
  | Change of charge density      :  0.7441E-01
  | Change of sum of eigenvalues  :  0.2660E+01 eV
  | Change of total energy        :  0.6076E-01 eV

  End self-consistency iteration #     3       :  max(cpu_time)    wall_clock(cpu1)
  | Time for this iteration                    :        0.075 s           0.075 s
  | Charge density update                      :        0.004 s           0.004 s
  | Density mixing & preconditioning           :        0.004 s           0.004 s
  | Hartree multipole update                   :        0.001 s           0.001 s
  | Hartree multipole summation                :        0.045 s           0.045 s
  | Integration                                :        0.005 s           0.005 s
  | Solution of K.-S. eqns.                    :        0.015 s           0.015 s
  | Total energy evaluation                    :        0.000 s           0.000 s

  Partial memory accounting:
  | Current value for overall tracked memory usage:
  |   Minimum:        0.260 MB (on task 0)
  |   Maximum:        0.260 MB (on task 0)
  |   Average:        0.260 MB
  | Peak value for overall tracked memory usage:
  |   Minimum:        0.378 MB (on task 0 after allocating gradient_basis_wave)
  |   Maximum:        0.378 MB (on task 0 after allocating gradient_basis_wave)
  |   Average:        0.378 MB
  | Largest tracked array allocation so far:
  |   Minimum:        0.254 MB (KS_eigenvector_complex on task 0)
  |   Maximum:        0.254 MB (KS_eigenvector_complex on task 0)
  |   Average:        0.254 MB
  Note:  These values currently only include a subset of arrays which are explicitly tracked.
  The "true" memory usage will be greater.
------------------------------------------------------------

------------------------------------------------------------
          Begin self-consistency iteration #    4

  Date     :  20190817, Time     :  153416.175
------------------------------------------------------------
  Evaluating new KS density using the density matrix
  Evaluating density matrix
  Time summed over all CPUs for getting density from density matrix: real work        0.024 s, elapsed        0.026 s
  Integration grid: deviation in total charge (<rho> - N_e) =   5.933032E-13
  Pulay mixing of updated and previous charge densities.
  Renormalizing the density to the exact electron count on the 3D integration grid.
  | Formal number of electrons (from input files) :      10.0000000000
  | Integrated number of electrons on 3D grid     :       9.9993290678
  | Charge integration error                      :      -0.0006709322
  | Normalization factor for density and gradient :       1.0000670977

  Evaluating partitioned Hartree potential by multipole expansion.
  | Original multipole sum: apparent total charge =  -0.799426E-14
  | Sum of charges compensated after spline to logarithmic grids =   0.152108E-03
  | Analytical far-field extrapolation by fixed multipoles:
  | Hartree multipole sum: apparent total charge =  -0.892898E-14
  Summing up the Hartree potential.
  Time summed over all CPUs for potential: real work        0.322 s, elapsed        0.329 s
  | RMS charge density error from multipole expansion :   0.644630E-02
  | Average real-space part of the electrostatic potential :      0.00301515 eV

  Integrating Hamiltonian matrix: batch-based integration.
  Time summed over all CPUs for integration: real work        0.034 s, elapsed        0.036 s

  Updating Kohn-Sham eigenvalues and eigenvectors using ELSI and the (modified) LAPACK eigensolver.
  Starting LAPACK eigensolver
  Finished Cholesky decomposition
  | Time :     0.000 s
  Finished transformation to standard eigenproblem
  | Time :     0.000 s
  Finished solving standard eigenproblem
  | Time :     0.000 s
  Finished back-transformation of eigenvectors
  | Time :     0.000 s

  Obtaining occupation numbers and chemical potential using ELSI.
  | Chemical potential (Fermi level):    -0.02138996 eV
  What follows are estimated values for band gap, HOMO, LUMO, etc.
  | They are estimated on a discrete k-point grid and not necessarily exact.
  | For converged numbers, create a DOS and/or band structure plot on a denser k-grid.

  Highest occupied state (VBM) at     -7.11894791 eV (relative to internal zero)
  | Occupation number:      2.00000000
  | K-point:       1 at    0.000000    0.000000    0.000000 (in units of recip. lattice)

  Lowest unoccupied state (CBM) at     0.02954013 eV (relative to internal zero)
  | Occupation number:      0.00000000
  | K-point:       1 at    0.000000    0.000000    0.000000 (in units of recip. lattice)

  ESTIMATED overall HOMO-LUMO gap:      7.14848805 eV between HOMO at k-point 1 and LUMO at k-point 1
  | This appears to be a direct band gap.
  The gap value is above 0.2 eV. Unless you are using a very sparse k-point grid,
  this system is most likely an insulator or a semiconductor.

  Total energy components:
  | Sum of eigenvalues            :         -41.53511597 Ha       -1130.22801082 eV
  | XC energy correction          :          -9.22868037 Ha        -251.12516987 eV
  | XC potential correction       :          11.87084515 Ha         323.02213159 eV
  | Free-atom electrostatic energy:         -35.71003035 Ha        -971.71936649 eV
  | Hartree energy correction     :          -1.78038207 Ha         -48.44666111 eV
  | Entropy correction            :          -0.00000000 Ha          -0.00000000 eV
  | ---------------------------
  | Total energy                  :         -76.38336361 Ha       -2078.49707670 eV
  | Total energy, T -> 0          :         -76.38336361 Ha       -2078.49707670 eV  <-- do not rely on this value for anything but (periodic) metals
  | Electronic free energy        :         -76.38336361 Ha       -2078.49707670 eV

  Derived energy quantities:
  | Kinetic energy                :          76.09512266 Ha        2070.65364134 eV
  | Electrostatic energy          :        -143.24980591 Ha       -3898.02554817 eV
  | Energy correction for multipole
  | error in Hartree potential    :          -0.00322920 Ha          -0.08787114 eV
  | Sum of eigenvalues per atom                           :        -376.74267027 eV
  | Total energy (T->0) per atom                          :        -692.83235890 eV  <-- do not rely on this value for anything but (periodic) metals
  | Electronic free energy per atom                       :        -692.83235890 eV

  Self-consistency convergence accuracy:
  | Change of charge density      :  0.6899E-02
  | Change of sum of eigenvalues  :  0.7258E+00 eV
  | Change of total energy        :  0.1078E-02 eV

  End self-consistency iteration #     4       :  max(cpu_time)    wall_clock(cpu1)
  | Time for this iteration                    :        0.077 s           0.077 s
  | Charge density update                      :        0.004 s           0.004 s
  | Density mixing & preconditioning           :        0.004 s           0.004 s
  | Hartree multipole update                   :        0.001 s           0.001 s
  | Hartree multipole summation                :        0.046 s           0.046 s
  | Integration                                :        0.005 s           0.005 s
  | Solution of K.-S. eqns.                    :        0.015 s           0.015 s
  | Total energy evaluation                    :        0.001 s           0.001 s

  Partial memory accounting:
  | Current value for overall tracked memory usage:
  |   Minimum:        0.260 MB (on task 0)
  |   Maximum:        0.260 MB (on task 0)
  |   Average:        0.260 MB
  | Peak value for overall tracked memory usage:
  |   Minimum:        0.378 MB (on task 0 after allocating gradient_basis_wave)
  |   Maximum:        0.378 MB (on task 0 after allocating gradient_basis_wave)
  |   Average:        0.378 MB
  | Largest tracked array allocation so far:
  |   Minimum:        0.254 MB (KS_eigenvector_complex on task 0)
  |   Maximum:        0.254 MB (KS_eigenvector_complex on task 0)
  |   Average:        0.254 MB
  Note:  These values currently only include a subset of arrays which are explicitly tracked.
  The "true" memory usage will be greater.
------------------------------------------------------------

------------------------------------------------------------
          Begin self-consistency iteration #    5

  Date     :  20190817, Time     :  153416.252
------------------------------------------------------------
  Evaluating new KS density using the density matrix
  Evaluating density matrix
  Time summed over all CPUs for getting density from density matrix: real work        0.023 s, elapsed        0.024 s
  Integration grid: deviation in total charge (<rho> - N_e) =   5.879741E-13
  Pulay mixing of updated and previous charge densities.
  Renormalizing the density to the exact electron count on the 3D integration grid.
  | Formal number of electrons (from input files) :      10.0000000000
  | Integrated number of electrons on 3D grid     :       9.9993356868
  | Charge integration error                      :      -0.0006643132
  | Normalization factor for density and gradient :       1.0000664357

  Evaluating partitioned Hartree potential by multipole expansion.
  | Original multipole sum: apparent total charge =  -0.983910E-14
  | Sum of charges compensated after spline to logarithmic grids =   0.177923E-03
  | Analytical far-field extrapolation by fixed multipoles:
  | Hartree multipole sum: apparent total charge =  -0.100851E-13
  Summing up the Hartree potential.
  Time summed over all CPUs for potential: real work        0.322 s, elapsed        0.330 s
  | RMS charge density error from multipole expansion :   0.649147E-02
  | Average real-space part of the electrostatic potential :      0.00310784 eV

  Integrating Hamiltonian matrix: batch-based integration.
  Time summed over all CPUs for integration: real work        0.036 s, elapsed        0.037 s

  Updating Kohn-Sham eigenvalues and eigenvectors using ELSI and the (modified) LAPACK eigensolver.
  Starting LAPACK eigensolver
  Finished Cholesky decomposition
  | Time :     0.000 s
  Finished transformation to standard eigenproblem
  | Time :     0.000 s
  Finished solving standard eigenproblem
  | Time :     0.000 s
  Finished back-transformation of eigenvectors
  | Time :     0.000 s

  Obtaining occupation numbers and chemical potential using ELSI.
  | Chemical potential (Fermi level):     0.01619815 eV
  What follows are estimated values for band gap, HOMO, LUMO, etc.
  | They are estimated on a discrete k-point grid and not necessarily exact.
  | For converged numbers, create a DOS and/or band structure plot on a denser k-grid.

  Highest occupied state (VBM) at     -7.07670019 eV (relative to internal zero)
  | Occupation number:      2.00000000
  | K-point:       1 at    0.000000    0.000000    0.000000 (in units of recip. lattice)

  Lowest unoccupied state (CBM) at     0.06708145 eV (relative to internal zero)
  | Occupation number:      0.00000000
  | K-point:       1 at    0.000000    0.000000    0.000000 (in units of recip. lattice)

  ESTIMATED overall HOMO-LUMO gap:      7.14378164 eV between HOMO at k-point 1 and LUMO at k-point 1
  | This appears to be a direct band gap.
  The gap value is above 0.2 eV. Unless you are using a very sparse k-point grid,
  this system is most likely an insulator or a semiconductor.

  Total energy components:
  | Sum of eigenvalues            :         -41.52009133 Ha       -1129.81916967 eV
  | XC energy correction          :          -9.23072878 Ha        -251.18091018 eV
  | XC potential correction       :          11.87364356 Ha         323.09828039 eV
  | Free-atom electrostatic energy:         -35.71003035 Ha        -971.71936649 eV
  | Hartree energy correction     :          -1.79615717 Ha         -48.87592326 eV
  | Entropy correction            :          -0.00000000 Ha          -0.00000000 eV
  | ---------------------------
  | Total energy                  :         -76.38336407 Ha       -2078.49708921 eV
  | Total energy, T -> 0          :         -76.38336407 Ha       -2078.49708921 eV  <-- do not rely on this value for anything but (periodic) metals
  | Electronic free energy        :         -76.38336407 Ha       -2078.49708921 eV

  Derived energy quantities:
  | Kinetic energy                :          76.08995723 Ha        2070.51308265 eV
  | Electrostatic energy          :        -143.24259251 Ha       -3897.82926168 eV
  | Energy correction for multipole
  | error in Hartree potential    :          -0.00337688 Ha          -0.09188964 eV
  | Sum of eigenvalues per atom                           :        -376.60638989 eV
  | Total energy (T->0) per atom                          :        -692.83236307 eV  <-- do not rely on this value for anything but (periodic) metals
  | Electronic free energy per atom                       :        -692.83236307 eV

  Self-consistency convergence accuracy:
  | Change of charge density      :  0.2166E-02
  | Change of sum of eigenvalues  :  0.4088E+00 eV
  | Change of total energy        : -0.1251E-04 eV

  End self-consistency iteration #     5       :  max(cpu_time)    wall_clock(cpu1)
  | Time for this iteration                    :        0.076 s           0.077 s
  | Charge density update                      :        0.004 s           0.004 s
  | Density mixing & preconditioning           :        0.004 s           0.004 s
  | Hartree multipole update                   :        0.001 s           0.001 s
  | Hartree multipole summation                :        0.047 s           0.047 s
  | Integration                                :        0.005 s           0.005 s
  | Solution of K.-S. eqns.                    :        0.015 s           0.015 s
  | Total energy evaluation                    :        0.000 s           0.001 s

  Partial memory accounting:
  | Current value for overall tracked memory usage:
  |   Minimum:        0.260 MB (on task 0)
  |   Maximum:        0.260 MB (on task 0)
  |   Average:        0.260 MB
  | Peak value for overall tracked memory usage:
  |   Minimum:        0.378 MB (on task 0 after allocating gradient_basis_wave)
  |   Maximum:        0.378 MB (on task 0 after allocating gradient_basis_wave)
  |   Average:        0.378 MB
  | Largest tracked array allocation so far:
  |   Minimum:        0.254 MB (KS_eigenvector_complex on task 0)
  |   Maximum:        0.254 MB (KS_eigenvector_complex on task 0)
  |   Average:        0.254 MB
  Note:  These values currently only include a subset of arrays which are explicitly tracked.
  The "true" memory usage will be greater.
------------------------------------------------------------

------------------------------------------------------------
          Begin self-consistency iteration #    6

  Date     :  20190817, Time     :  153416.329
------------------------------------------------------------
  Evaluating new KS density using the density matrix
  Evaluating density matrix
  Time summed over all CPUs for getting density from density matrix: real work        0.023 s, elapsed        0.024 s
  Integration grid: deviation in total charge (<rho> - N_e) =   6.146195E-13
  Pulay mixing of updated and previous charge densities.
  Renormalizing the density to the exact electron count on the 3D integration grid.
  | Formal number of electrons (from input files) :      10.0000000000
  | Integrated number of electrons on 3D grid     :       9.9997150908
  | Charge integration error                      :      -0.0002849092
  | Normalization factor for density and gradient :       1.0000284917

  Evaluating partitioned Hartree potential by multipole expansion.
  | Original multipole sum: apparent total charge =  -0.106754E-13
  | Sum of charges compensated after spline to logarithmic grids =   0.164916E-03
  | Analytical far-field extrapolation by fixed multipoles:
  | Hartree multipole sum: apparent total charge =  -0.113888E-13
  Summing up the Hartree potential.
  Time summed over all CPUs for potential: real work        0.321 s, elapsed        0.328 s
  | RMS charge density error from multipole expansion :   0.646325E-02
  | Average real-space part of the electrostatic potential :      0.00310414 eV

  Integrating Hamiltonian matrix: batch-based integration.
  Time summed over all CPUs for integration: real work        0.035 s, elapsed        0.037 s

  Updating Kohn-Sham eigenvalues and eigenvectors using ELSI and the (modified) LAPACK eigensolver.
  Starting LAPACK eigensolver
  Finished Cholesky decomposition
  | Time :     0.000 s
  Finished transformation to standard eigenproblem
  | Time :     0.000 s
  Finished solving standard eigenproblem
  | Time :     0.000 s
  Finished back-transformation of eigenvectors
  | Time :     0.000 s

  Obtaining occupation numbers and chemical potential using ELSI.
  | Chemical potential (Fermi level):     0.01516985 eV
  What follows are estimated values for band gap, HOMO, LUMO, etc.
  | They are estimated on a discrete k-point grid and not necessarily exact.
  | For converged numbers, create a DOS and/or band structure plot on a denser k-grid.

  Highest occupied state (VBM) at     -7.08365708 eV (relative to internal zero)
  | Occupation number:      2.00000000
  | K-point:       1 at    0.000000    0.000000    0.000000 (in units of recip. lattice)

  Lowest unoccupied state (CBM) at     0.06605274 eV (relative to internal zero)
  | Occupation number:      0.00000000
  | K-point:       1 at    0.000000    0.000000    0.000000 (in units of recip. lattice)

  ESTIMATED overall HOMO-LUMO gap:      7.14970982 eV between HOMO at k-point 1 and LUMO at k-point 1
  | This appears to be a direct band gap.
  The gap value is above 0.2 eV. Unless you are using a very sparse k-point grid,
  this system is most likely an insulator or a semiconductor.

  Total energy components:
  | Sum of eigenvalues            :         -41.52276378 Ha       -1129.89189085 eV
  | XC energy correction          :          -9.23013032 Ha        -251.16462526 eV
  | XC potential correction       :          11.87286826 Ha         323.07718329 eV
  | Free-atom electrostatic energy:         -35.71003035 Ha        -971.71936649 eV
  | Hartree energy correction     :          -1.79330737 Ha         -48.79837627 eV
  | Entropy correction            :          -0.00000000 Ha          -0.00000000 eV
  | ---------------------------
  | Total energy                  :         -76.38336357 Ha       -2078.49707557 eV
  | Total energy, T -> 0          :         -76.38336357 Ha       -2078.49707557 eV  <-- do not rely on this value for anything but (periodic) metals
  | Electronic free energy        :         -76.38336357 Ha       -2078.49707557 eV

  Derived energy quantities:
  | Kinetic energy                :          76.08728447 Ha        2070.44035331 eV
  | Electrostatic energy          :        -143.24051772 Ha       -3897.77280362 eV
  | Energy correction for multipole
  | error in Hartree potential    :          -0.00336858 Ha          -0.09166368 eV
  | Sum of eigenvalues per atom                           :        -376.63063028 eV
  | Total energy (T->0) per atom                          :        -692.83235852 eV  <-- do not rely on this value for anything but (periodic) metals
  | Electronic free energy per atom                       :        -692.83235852 eV

  Self-consistency convergence accuracy:
  | Change of charge density      :  0.9199E-03
  | Change of sum of eigenvalues  : -0.7272E-01 eV
  | Change of total energy        :  0.1364E-04 eV

  End self-consistency iteration #     6       :  max(cpu_time)    wall_clock(cpu1)
  | Time for this iteration                    :        0.075 s           0.075 s
  | Charge density update                      :        0.004 s           0.004 s
  | Density mixing & preconditioning           :        0.004 s           0.003 s
  | Hartree multipole update                   :        0.001 s           0.001 s
  | Hartree multipole summation                :        0.046 s           0.046 s
  | Integration                                :        0.005 s           0.005 s
  | Solution of K.-S. eqns.                    :        0.015 s           0.015 s
  | Total energy evaluation                    :        0.000 s           0.001 s

  Partial memory accounting:
  | Current value for overall tracked memory usage:
  |   Minimum:        0.260 MB (on task 0)
  |   Maximum:        0.260 MB (on task 0)
  |   Average:        0.260 MB
  | Peak value for overall tracked memory usage:
  |   Minimum:        0.378 MB (on task 0 after allocating gradient_basis_wave)
  |   Maximum:        0.378 MB (on task 0 after allocating gradient_basis_wave)
  |   Average:        0.378 MB
  | Largest tracked array allocation so far:
  |   Minimum:        0.254 MB (KS_eigenvector_complex on task 0)
  |   Maximum:        0.254 MB (KS_eigenvector_complex on task 0)
  |   Average:        0.254 MB
  Note:  These values currently only include a subset of arrays which are explicitly tracked.
  The "true" memory usage will be greater.
------------------------------------------------------------

------------------------------------------------------------
          Begin self-consistency iteration #    7

  Date     :  20190817, Time     :  153416.404
------------------------------------------------------------
  Evaluating new KS density using the density matrix
  Evaluating density matrix
  Time summed over all CPUs for getting density from density matrix: real work        0.022 s, elapsed        0.023 s
  Integration grid: deviation in total charge (<rho> - N_e) =   6.110668E-13
  Pulay mixing of updated and previous charge densities.
  Renormalizing the density to the exact electron count on the 3D integration grid.
  | Formal number of electrons (from input files) :      10.0000000000
  | Integrated number of electrons on 3D grid     :       9.9998555549
  | Charge integration error                      :      -0.0001444451
  | Normalization factor for density and gradient :       1.0000144447

  Evaluating partitioned Hartree potential by multipole expansion.
  | Original multipole sum: apparent total charge =   0.737932E-15
[...]

  Self-consistency convergence accuracy:
  | Change of charge density      :  0.6088E-05
  | Change of sum of eigenvalues  :  0.1019E-02 eV
  | Change of total energy        : -0.1601E-06 eV

  End self-consistency iteration #     9       :  max(cpu_time)    wall_clock(cpu1)
  | Time for this iteration                    :        0.074 s           0.074 s
  | Charge density update                      :        0.004 s           0.004 s
  | Density mixing & preconditioning           :        0.003 s           0.003 s
  | Hartree multipole update                   :        0.001 s           0.001 s
  | Hartree multipole summation                :        0.045 s           0.046 s
  | Integration                                :        0.005 s           0.004 s
  | Solution of K.-S. eqns.                    :        0.015 s           0.015 s
  | Total energy evaluation                    :        0.000 s           0.000 s

  Partial memory accounting:
  | Current value for overall tracked memory usage:
  |   Minimum:        0.260 MB (on task 0)
  |   Maximum:        0.260 MB (on task 0)
  |   Average:        0.260 MB
  | Peak value for overall tracked memory usage:
  |   Minimum:        0.378 MB (on task 0 after allocating gradient_basis_wave)
  |   Maximum:        0.378 MB (on task 0 after allocating gradient_basis_wave)
  |   Average:        0.378 MB
  | Largest tracked array allocation so far:
  |   Minimum:        0.254 MB (KS_eigenvector_complex on task 0)
  |   Maximum:        0.254 MB (KS_eigenvector_complex on task 0)
  |   Average:        0.254 MB
  Note:  These values currently only include a subset of arrays which are explicitly tracked.
  The "true" memory usage will be greater.
------------------------------------------------------------

------------------------------------------------------------
          Begin self-consistency iteration #   10

  Date     :  20190817, Time     :  153416.630
------------------------------------------------------------
  Evaluating new KS density using the density matrix
  Evaluating density matrix
  Time summed over all CPUs for getting density from density matrix: real work        0.023 s, elapsed        0.025 s
  Integration grid: deviation in total charge (<rho> - N_e) =   6.288303E-13
  Pulay mixing of updated and previous charge densities.
  Renormalizing the density to the exact electron count on the 3D integration grid.
  | Formal number of electrons (from input files) :      10.0000000000
  | Integrated number of electrons on 3D grid     :      10.0000013536
  | Charge integration error                      :       0.0000013536
  | Normalization factor for density and gradient :       0.9999998646

  Evaluating partitioned Hartree potential by multipole expansion.
  | Original multipole sum: apparent total charge =  -0.919955E-14
  | Sum of charges compensated after spline to logarithmic grids =   0.163105E-03
  | Analytical far-field extrapolation by fixed multipoles:
  | Hartree multipole sum: apparent total charge =  -0.814185E-14
  Summing up the Hartree potential.
  Time summed over all CPUs for potential: real work        0.315 s, elapsed        0.323 s
  | RMS charge density error from multipole expansion :   0.646960E-02
  | Average real-space part of the electrostatic potential :      0.00311153 eV

  Integrating Hamiltonian matrix: batch-based integration.
  Time summed over all CPUs for integration: real work        0.035 s, elapsed        0.037 s

  Updating Kohn-Sham eigenvalues and eigenvectors using ELSI and the (modified) LAPACK eigensolver.
  Starting LAPACK eigensolver
  Finished Cholesky decomposition
  | Time :     0.000 s
  Finished transformation to standard eigenproblem
  | Time :     0.000 s
  Finished solving standard eigenproblem
  | Time :     0.000 s
  Finished back-transformation of eigenvectors
  | Time :     0.000 s

  Obtaining occupation numbers and chemical potential using ELSI.
  | Chemical potential (Fermi level):     0.01875782 eV
  What follows are estimated values for band gap, HOMO, LUMO, etc.
  | They are estimated on a discrete k-point grid and not necessarily exact.
  | For converged numbers, create a DOS and/or band structure plot on a denser k-grid.

  Highest occupied state (VBM) at     -7.07930245 eV (relative to internal zero)
  | Occupation number:      2.00000000
  | K-point:       1 at    0.000000    0.000000    0.000000 (in units of recip. lattice)

  Lowest unoccupied state (CBM) at     0.06974572 eV (relative to internal zero)
  | Occupation number:      0.00000000
  | K-point:       1 at    0.000000    0.000000    0.000000 (in units of recip. lattice)

  ESTIMATED overall HOMO-LUMO gap:      7.14904817 eV between HOMO at k-point 1 and LUMO at k-point 1
  | This appears to be a direct band gap.
  The gap value is above 0.2 eV. Unless you are using a very sparse k-point grid,
  this system is most likely an insulator or a semiconductor.

  Total energy components:
  | Sum of eigenvalues            :         -41.52170661 Ha       -1129.86312366 eV
  | XC energy correction          :          -9.23018347 Ha        -251.16607136 eV
  | XC potential correction       :          11.87294772 Ha         323.07934560 eV
  | Free-atom electrostatic energy:         -35.71003035 Ha        -971.71936649 eV
  | Hartree energy correction     :          -1.79439119 Ha         -48.82786875 eV
  | Entropy correction            :          -0.00000000 Ha          -0.00000000 eV
  | ---------------------------
  | Total energy                  :         -76.38336391 Ha       -2078.49708465 eV
  | Total energy, T -> 0          :         -76.38336391 Ha       -2078.49708465 eV  <-- do not rely on this value for anything but (periodic) metals
  | Electronic free energy        :         -76.38336391 Ha       -2078.49708465 eV

  Derived energy quantities:
  | Kinetic energy                :          76.08325091 Ha        2070.33059440 eV
  | Electrostatic energy          :        -143.23643134 Ha       -3897.66160769 eV
  | Energy correction for multipole
  | error in Hartree potential    :          -0.00339028 Ha          -0.09225433 eV
  | Sum of eigenvalues per atom                           :        -376.62104122 eV
  | Total energy (T->0) per atom                          :        -692.83236155 eV  <-- do not rely on this value for anything but (periodic) metals
  | Electronic free energy per atom                       :        -692.83236155 eV

  Self-consistency convergence accuracy:
  | Change of charge density      :  0.3403E-05
  | Change of sum of eigenvalues  : -0.5531E-03 eV
  | Change of total energy        :  0.2166E-07 eV

  Preliminary charge convergence reached. Turning off preconditioner.

  Writing Kohn-Sham eigenvalues.
  K-point:       1 at    0.000000    0.000000    0.000000 (in units of recip. lattice)

  State    Occupation    Eigenvalue [Ha]    Eigenvalue [eV]
      1       2.00000         -18.759746         -510.47865
      2       2.00000          -0.923866          -25.13966
      3       2.00000          -0.478711          -13.02639
      4       2.00000          -0.338372           -9.20756
      5       2.00000          -0.260160           -7.07930
      6       0.00000           0.002563            0.06975
      7       0.00000           0.100228            2.72734
      8       0.00000           0.297965            8.10805
      9       0.00000           0.333990            9.08832
     10       0.00000           0.369387           10.05153
     11       0.00000           0.574859           15.64270

  What follows are estimated values for band gap, HOMO, LUMO, etc.
  | They are estimated on a discrete k-point grid and not necessarily exact.
  | For converged numbers, create a DOS and/or band structure plot on a denser k-grid.

  Highest occupied state (VBM) at     -7.07930245 eV (relative to internal zero)
  | Occupation number:      2.00000000
  | K-point:       1 at    0.000000    0.000000    0.000000 (in units of recip. lattice)

  Lowest unoccupied state (CBM) at     0.06974572 eV (relative to internal zero)
  | Occupation number:      0.00000000
  | K-point:       1 at    0.000000    0.000000    0.000000 (in units of recip. lattice)

  ESTIMATED overall HOMO-LUMO gap:      7.14904817 eV between HOMO at k-point 1 and LUMO at k-point 1
  | This appears to be a direct band gap.
  The gap value is above 0.2 eV. Unless you are using a very sparse k-point grid,
  this system is most likely an insulator or a semiconductor.

  Self-consistency cycle converged.

  End self-consistency iteration #    10       :  max(cpu_time)    wall_clock(cpu1)
  | Time for this iteration                    :        0.075 s           0.074 s
  | Charge density update                      :        0.004 s           0.003 s
  | Density mixing                             :        0.003 s           0.003 s
  | Hartree multipole update                   :        0.001 s           0.002 s
  | Hartree multipole summation                :        0.046 s           0.045 s
  | Integration                                :        0.005 s           0.005 s
  | Solution of K.-S. eqns.                    :        0.015 s           0.015 s
  | Total energy evaluation                    :        0.000 s           0.000 s

  Partial memory accounting:
  | Current value for overall tracked memory usage:
  |   Minimum:        0.260 MB (on task 0)
  |   Maximum:        0.260 MB (on task 0)
  |   Average:        0.260 MB
  | Peak value for overall tracked memory usage:
  |   Minimum:        0.378 MB (on task 0 after allocating gradient_basis_wave)
  |   Maximum:        0.378 MB (on task 0 after allocating gradient_basis_wave)
  |   Average:        0.378 MB
  | Largest tracked array allocation so far:
  |   Minimum:        0.254 MB (KS_eigenvector_complex on task 0)
  |   Maximum:        0.254 MB (KS_eigenvector_complex on task 0)
  |   Average:        0.254 MB
  Note:  These values currently only include a subset of arrays which are explicitly tracked.
  The "true" memory usage will be greater.
------------------------------------------------------------

  Energy and forces in a compact form:
  | Total energy uncorrected      :         -0.207849708464901E+04 eV
  | Total energy corrected        :         -0.207849708464901E+04 eV  <-- do not rely on this value for anything but (periodic) metals
  | Electronic free energy        :         -0.207849708464901E+04 eV

  ------------------------------------ 
  Start decomposition of the XC Energy 
  ------------------------------------ 
  X and C from original XC functional choice 
  Hartree-Fock Energy :          0.000000000 Ha              0.000000000 eV
  X Energy            :         -8.905142393 Ha           -242.321253672 eV
  C Energy            :         -0.325041076 Ha             -8.844817689 eV
  Total XC Energy     :         -9.230183468 Ha           -251.166071361 eV
  ------------------------------------ 
  LDA X and C from self-consistent density 
  X Energy LDA        :         -8.090505998 Ha           -220.153869504 eV
  C Energy LDA        :         -0.659238328 Ha            -17.938787621 eV
  ------------------------------------ 
  End decomposition of the XC Energy 
  ------------------------------------ 

------------------------------------------------------------
   
  ESP charge fitting starts.
  | Calculation :  00000001  of  00000001
  | Transistion Eigenstate i -> j:  00000004 00000006
  | Spin:  00000001
  | k-point:  00000001
  Computing density with Density matrix.
  Evaluating density matrix
  Evaluating density matrix
  Computing multipole expansion for transition density.
  | Original multipole sum: apparent total charge =  -0.368966E-16
  | Sum of charges compensated after spline to logarithmic grids =  -0.184746E-04
  Generating points for esp charges.
  Partitioning the integration grid into batches with parallel hashing+maxmin method.
  | Number of batches:       71
  | Maximal batch size:     121
  | Minimal batch size:      58
  | Average batch size:     106.972
  | Standard deviation of batch sizes:      23.605

  Integration load balanced across     8 MPI tasks.
  Work distribution over tasks is as follows:
  Summing up potential from multipole expanded  density.
  Summing up the Hartree potential.
  Time summed over all CPUs for potential: real work        0.195 s, elapsed        0.208 s
  | Average real-space part of the electrostatic potential :      0.00018125 eV
  Fitting esp charges to potential.
  |
  | ESP charges fitted to the electrostatic potential :
  |
  | Atom         1: O, ESP charge:      0.52171713
  |
  | Atom         2: H, ESP charge:     -0.26085856
  |
  | Atom         3: H, ESP charge:     -0.26085856
  |
  | Potential offset:       0.00057887 eV

  Dipole matrix element:       0.00000000    -0.58887604     0.00000000
  RRMS:       0.08815877

  Done.
  |------------------------------------------------------
  | Final ELSI Output
  |------------------------------------------------------
  |
  | Physical Properties
  |   Number of electrons       :        0.10000000E+02
  |   Number of states          :                    11
  |
  | Matrix Properties
  |   Matrix format             :           BLACS_DENSE
  |   Number of basis functions :                    24
  |
  | Computational Details
  |   Parallel mode             :           SINGLE_PROC
  |   Solver requested          :                LAPACK
  |   Number of ELSI calls      :                   693
  |
  |------------------------------------------------------
  | ELSI Project (c)  elsi-interchange.org
  |------------------------------------------------------

------------------------------------------------------------------------------
  Final output of selected total energy values:

  The following output summarizes some interesting total energy values
  at the end of a run (AFTER all relaxation, molecular dynamics, etc.).

  | Total energy of the DFT / Hartree-Fock s.c.f. calculation      :          -2078.497084649 eV
  | Final zero-broadening corrected energy (caution - metals only) :          -2078.497084649 eV
  | For reference only, the value of 1 Hartree used in FHI-aims is :             27.211384500 eV
  | For reference only, the overall average (free atom contribution
  | + realspace contribution) of the electrostatic potential after
  | s.c.f. convergence is                                          :             -0.016911735 eV

  Before relying on these values, please be sure to understand exactly which
  total energy value is referred to by a given number. Different objects may
  all carry the same name 'total energy'. Definitions:

  Total energy of the DFT / Hartree-Fock s.c.f. calculation:
  | Note that this energy does not include ANY quantities calculated after the
  | s.c.f. cycle, in particular not ANY RPA, MP2, etc. many-body perturbation terms.

  Final zero-broadening corrected energy:
  | For metallic systems only, a broadening of the occupation numbers at the Fermi
  | level can be extrapolated back to zero broadening by an electron-gas inspired
  | formula. For all systems that are not real metals, this value can be
  | meaningless and should be avoided.

------------------------------------------------------------------------------
  Methods described in the following list of references were used in this FHI-aims run.
  If you publish the results, please make sure to cite these reference if they apply.
  FHI-aims is an academic code, and for our developers (often, Ph.D. students
  and postdocs), scientific credit in the community is essential.
  Thank you for helping us!

  For any use of FHI-aims, please cite:

    Volker Blum, Ralf Gehrke, Felix Hanke, Paula Havu, Ville Havu,
    Xinguo Ren, Karsten Reuter, and Matthias Scheffler
    'Ab initio molecular simulations with numeric atom-centered orbitals'
    Computer Physics Communications 180, 2175-2196 (2009)
    http://dx.doi.org/10.1016/j.cpc.2009.06.022


  The provided symmetry information was generated with SPGlib:

    Atsushi Togo, Yusuke Seto, Dimitar Pashov
    SPGlib 1.7.3 obtained from http://spglib.sourceforge.net
    Copyright (C) 2008 Atsushi Togo


  The ELSI infrastructure was used in your run to solve the Kohn-Sham electronic structure.
  Please check out http://elsi-interchange.org to learn more.
  If scalability is important for your project, please acknowledge ELSI by citing:

    V. W-z. Yu, F. Corsetti, A. Garcia, W. P. Huhn, M. Jacquelin, W. Jia,
    B. Lange, L. Lin, J. Lu, W. Mi, A. Seifitokaldani, A. Vazquez-Mayagoitia,
    C. Yang, H. Yang, and V. Blum
    'ELSI: A unified software interface for Kohn-Sham electronic structure solvers'
    Computer Physics Communications 222, 267-285 (2018).
    http://dx.doi.org/10.1016/j.cpc.2017.09.007


  For the real-space grid partitioning and parallelization used in this calculation, please cite:

    Ville Havu, Volker Blum, Paula Havu, and Matthias Scheffler,
    'Efficient O(N) integration for all-electron electronic structure calculation'
    'using numerically tabulated basis functions'
    Journal of Computational Physics 228, 8367-8379 (2009).
    http://dx.doi.org/10.1016/j.jcp.2009.08.008

  Of course, there are many other important community references, e.g., those cited in the
  above references. Our list is limited to references that describe implementations in the
  FHI-aims code. The reason is purely practical (length of this list) - please credit others as well.

------------------------------------------------------------
          Leaving FHI-aims.
          Date     :  20190817, Time     :  153418.773

          Computational steps:
          | Number of self-consistency cycles          :           10
          | Number of SCF (re)initializations          :            1

          Detailed time accounting                     :  max(cpu_time)    wall_clock(cpu1)
          | Total time                                 :        3.055 s           3.072 s
          | Preparation time                           :        0.096 s           0.095 s
          | Boundary condition initalization           :        0.043 s           0.043 s
          | Grid partitioning                          :        0.007 s           0.007 s
          | Preloading free-atom quantities on grid    :        0.003 s           0.003 s
          | Free-atom superposition energy             :        0.002 s           0.002 s
          | Total time for integrations                :        0.053 s           0.054 s
          | Total time for solution of K.-S. equations :        0.174 s           0.175 s
          | Total time for density update              :        0.037 s           0.038 s
          | Total time for mixing & preconditioning    :        0.038 s           0.036 s
          | Total time for Hartree multipole update    :        0.011 s           0.011 s
          | Total time for Hartree multipole sum       :        0.460 s           0.460 s
          | Total time for total energy evaluation     :        0.004 s           0.006 s

          Partial memory accounting:
          | Residual value for overall tracked memory usage across tasks:     0.000000 MB (should be 0.000000 MB)
          | Peak values for overall tracked memory usage:
          |   Minimum:        0.378 MB (on task 0 after allocating gradient_basis_wave)
          |   Maximum:        0.378 MB (on task 0 after allocating gradient_basis_wave)
          |   Average:        0.378 MB
          | Largest tracked array allocation:
          |   Minimum:        0.254 MB (KS_eigenvector_complex on task 0)
          |   Maximum:        0.254 MB (KS_eigenvector_complex on task 0)
          |   Average:        0.254 MB
          Note:  These values currently only include a subset of arrays which are explicitly tracked.
          The "true" memory usage will be greater.

          Have a nice day.
------------------------------------------------------------
