6 
Energy: -2.6246703026209299e+04 
Cl	  0.000000000000 	  0.000000000000 	  0.000000000000 	
C	  3.044658500000 	  0.000000000000 	  0.000000000000 	
Cl	  4.912552460000 	  0.000000000000 	  0.000000000000 	
H	  2.710916120000 	  1.036019740000 	  0.000000000000 	
H	  2.710214130000 	 -0.517989240000 	  0.896886530000 	
H	  2.710214130000 	 -0.517989240000 	 -0.896886530000 	
6 
Energy: -2.6246698226035998e+04 
Cl	  0.000000000000 	  0.000000000000 	  0.000000000000 	
C	  2.952601306577 	  0.000000000000 	  0.000000000001 	
Cl	  4.827399708196 	  0.000000000000 	 -0.000000000002 	
H	  2.620284747045 	  1.037802972983 	  0.000000000000 	
H	  2.620116990263 	 -0.518842027444 	  0.898745649641 	
H	  2.620116990266 	 -0.518842027444 	 -0.898745649640 	
6 
Energy: -2.6246681823767100e+04 
Cl	  0.000000000000 	  0.000000000000 	  0.000000000000 	
C	  2.851520249763 	  0.000000000000 	 -0.000000000003 	
Cl	  4.747066737324 	  0.000000000000 	  0.000000000008 	
H	  2.531462683756 	  1.042114832182 	 -0.000000000004 	
H	  2.531314149594 	 -0.521016921008 	  0.902481978655 	
H	  2.531314149594 	 -0.521016921007 	 -0.902481978663 	
6 
Energy: -2.6246630799692499e+04 
Cl	  0.000000000000 	  0.000000000000 	  0.000000000000 	
C	  2.706828129237 	  0.000000000000 	  0.000000000000 	
Cl	  4.631442117167 	  0.000000000000 	  0.000000000001 	
H	  2.402196421020 	  1.042341123558 	 -0.000000000001 	
H	  2.402312107062 	 -0.521226239789 	  0.902698257998 	
H	  2.402312107069 	 -0.521226239789 	 -0.902698258001 	
6 
Energy: -2.6246447238234701e+04 
Cl	  0.000000000000 	  0.000000000000 	  0.000000000000 	
C	  2.328806211723 	  0.000000000000 	 -0.000000000002 	
Cl	  4.669906681746 	  0.000000000000 	  0.000000000002 	
H	  2.333486799996 	  1.077116923000 	 -0.000000000002 	
H	  2.333554761858 	 -0.538606038721 	  0.932800152925 	
H	  2.333554761868 	 -0.538606038720 	 -0.932800152929 	
6 
Energy: -2.6246548663405199e+04 
Cl	  0.000000000000 	  0.000000000000 	  0.000000000000 	
C	  2.113219691310 	  0.000000000000 	  0.000000000003 	
Cl	  4.741462281051 	  0.000000000000 	 -0.000000000003 	
H	  2.317471921279 	  1.063166071537 	  0.000000000002 	
H	  2.317496233758 	 -0.531588841864 	  0.920716759064 	
H	  2.317496233751 	 -0.531588841864 	 -0.920716759060 	
6 
Energy: -2.6246644790030401e+04 
Cl	  0.000000000000 	  0.000000000000 	  0.000000000000 	
C	  1.985638314517 	  0.000000000000 	  0.000000000001 	
Cl	  4.894082427874 	  0.000000000000 	 -0.000000000002 	
H	  2.302982109097 	  1.044506057755 	  0.000000000001 	
H	  2.302905371393 	 -0.522274559289 	  0.904590901892 	
H	  2.302905371392 	 -0.522274559289 	 -0.904590901891 	
6 
Energy: -2.6246702317215400e+04 
Cl	  0.000000000000 	  0.000000000000 	  0.000000000000 	
C	  1.868053850000 	  0.000000000000 	  0.000000000000 	
Cl	  4.921360690000 	  0.000000000000 	  0.000000000000 	
H	  2.202371930000 	  1.036162740000 	  0.000000000000 	
H	  2.202122130000 	 -0.517535080000 	  0.897473460000 	
H	  2.202122130000 	 -0.517535080000 	 -0.897473460000 	
