  MPI-parallelism will be employed.
------------------------------------------------------------
          Invoking FHI-aims ...

          When using FHI-aims, please cite the following reference:

          Volker Blum, Ralf Gehrke, Felix Hanke, Paula Havu,
          Ville Havu, Xinguo Ren, Karsten Reuter, and Matthias Scheffler,
          'Ab Initio Molecular Simulations with Numeric Atom-Centered Orbitals',
          Computer Physics Communications 180, 2175-2196 (2009)

          For any questions about FHI-aims, please visit the aimsclub website
          with its forums and wiki. Contributions to both the forums and the
          wiki are warmly encouraged - they are for you, and everyone is welcome there.

------------------------------------------------------------



  Date     :  20190817, Time     :  154338.669
  Time zero on CPU 1             :   0.345250000000000E-01  s.
  Internal wall clock time zero  :           335288618.669  s.

  FHI-aims created a unique identifier for this run for later identification
  aims_uuid : C1BE0165-2959-47D1-AE75-B6DE8EA1BBB6

  Build configuration of the current instance of FHI-aims
  -------------------------------------------------------
  FHI-aims version      : 190813
  Commit number         : 3da7baeb3
  CMake host system     : Linux-4.4.180-94.97-default
  CMake version         : 3.5.2
  Fortran compiler      : /mpcdf/soft/SLE_12_SP3/packages/x86_64/intel_parallel_studio/2018.4/compilers_and_libraries_2018.5.274/linux/mpi/bin64/mpiifort (Intel) version 18.0.5.20180823
  Fortran compiler flags: -O3 -ip -fp-model precise
  C compiler            : /mpcdf/soft/SLE_12_SP3/packages/skylake/intel/18.0.5/bin/icc (Intel) version 18.0.5.20180823
  C compiler flags      : -O3 -ip -fp-model precise
  Architecture          :
  Using MPI
  Using Scalapack
  Using C files
  Using SPGlib
  Using i-PI
  Linking against: /mpcdf/soft/SLE_12_SP3/packages/x86_64/anaconda/3.5.1.0/lib/libmkl_intel_lp64.so
                   /mpcdf/soft/SLE_12_SP3/packages/x86_64/anaconda/3.5.1.0/lib/libmkl_sequential.so
                   /mpcdf/soft/SLE_12_SP3/packages/x86_64/anaconda/3.5.1.0/lib/libmkl_core.so
                   /mpcdf/soft/SLE_12_SP3/packages/x86_64/anaconda/3.5.1.0/lib/libmkl_blacs_intelmpi_lp64.so
                   /mpcdf/soft/SLE_12_SP3/packages/x86_64/anaconda/3.5.1.0/lib/libmkl_scalapack_lp64.so

  Using        8 parallel tasks.
  Task        0 on host co1631 reporting.
  Task        1 on host co1631 reporting.
  Task        2 on host co1631 reporting.
  Task        3 on host co1631 reporting.
  Task        4 on host co1631 reporting.
  Task        5 on host co1631 reporting.
  Task        6 on host co1631 reporting.
  Task        7 on host co1631 reporting.

  Performing system and environment tests:
  | Environment variable OMP_NUM_THREADS correctly set to 1.
  | Maximum stacksize for task 0: unlimited
  | Maximum stacksize for task 1: unlimited
  | Maximum stacksize for task 2: unlimited
  | Maximum stacksize for task 3: unlimited
  | Maximum stacksize for task 4: unlimited
  | Maximum stacksize for task 5: unlimited
  | Maximum stacksize for task 6: unlimited
  | Maximum stacksize for task 7: unlimited
  | Current stacksize for task 0: unlimited
  | Current stacksize for task 1: unlimited
  | Current stacksize for task 2: unlimited
  | Current stacksize for task 3: unlimited
  | Current stacksize for task 4: unlimited
  | Current stacksize for task 5: unlimited
  | Current stacksize for task 6: unlimited
  | Current stacksize for task 7: unlimited
  | Checking for scalapack...
  | Testing pdtran()...
  | All pdtran() tests passed.

  Obtaining array dimensions for all initial allocations:
  
  -----------------------------------------------------------------------
  Parsing control.in (first pass over file, find array dimensions only).
  The contents of control.in will be repeated verbatim below
  unless switched off by setting 'verbatim_writeout .false.' .
  in the first line of control.in .
  -----------------------------------------------------------------------
  
  output_level                       MD_light
  xc                                 pw-lda
  relativistic                       atomic_zora scalar
  relax_geometry                     trm 1E-2
  relax_unit_cell                    full
  k_grid                             2 2 2
  
  ################################################################################
  #
  #  FHI-aims code project
  #  VB, Fritz-Haber Institut, 2009
  #
  #  Suggested "light" defaults for Al atom (to be pasted into control.in file)
  #  Be sure to double-check any results obtained with these settings for post-processing,
  #  e.g., with the "tight" defaults and larger basis sets.
  #
  ################################################################################
    species        Al
  #     global species definitions
      nucleus             13
      mass                26.9815386
  #
      l_hartree           4
  #
      cut_pot             3.5          1.5  1.0
      basis_dep_cutoff    1e-4
  #
      radial_base         41 5.0
      radial_multiplier   1
      angular_grids       specified
        division   0.6594  110
        division   0.8170  194
        division   0.9059  302
  #      division   1.0363  434
  #      division   1.1443  590
  #      division   1.2621  770
  #      division   2.8177  974
  #      outer_grid   974
        outer_grid   302
  ################################################################################
  #
  #  Definition of "minimal" basis
  #
  ################################################################################
  #     valence basis states
      valence      3  s   2.
      valence      3  p   1.
  #     ion occupancy
      ion_occ      3  s   1.
      ion_occ      2  p   6.
  ################################################################################
  #
  #  Suggested additional basis functions. For production calculations,
  #  uncomment them one after another (the most important basis functions are
  #  listed first).
  #
  #  Constructed for dimers: 2.0 A, 2.5 A, 3.0 A, 3.75 A, 4.5 A
  #
  ################################################################################
  #  "First tier" - improvements: -199.47 meV to -10.63 meV
       ionic 3 d auto
       ionic 3 p auto
  #     hydro 4 f 4.7
       ionic 3 s auto
  #  "Second tier" - improvements: -5.35 meV to -1.57 meV
  #     hydro 5 g 7
  #     hydro 3 d 6
  #     hydro 2 s 11.6
  #     hydro 2 p 0.9
  #  "Third tier" - improvements: -0.63 meV to -0.20 meV
  #     hydro 5 f 7.6
  #     hydro 4 p 7.2
  #     hydro 4 s 3.7
  #     hydro 4 d 7.6
  #  "Fourth tier" - improvements: -0.17 meV to -0.08 meV
  #     hydro 4 d 13.6
  #     hydro 5 g 11.2
  #     hydro 4 d 0.9
  #     hydro 1 s 0.4
  #     hydro 4 p 0.1
  #     hydro 5 f 9.8
  #  Further basis functions that fell out of the optimization - noise level...
  #     hydro 4 p 5
  
  ################################################################################
  #
  #  FHI-aims code project
  #  VB, Fritz-Haber Institut, 2009
  #
  #  Suggested "light" defaults for S atom (to be pasted into control.in file)
  #  Be sure to double-check any results obtained with these settings for post-processing,
  #  e.g., with the "tight" defaults and larger basis sets.
  #
  ################################################################################
    species        S
  #     global species definitions
      nucleus             16
      mass                32.065
  #
      l_hartree           4
  #
      cut_pot             3.5          1.5  1.0
      basis_dep_cutoff    1e-4
  #
      radial_base         44 5.0
      radial_multiplier   1
      angular_grids       specified
        division   0.4665  110
        division   0.5810  194
        division   0.7139  302
  #      division   0.8274  434
  #      division   0.9105  590
  #      division   1.0975  770
  #      division   1.2028  974
  #      outer_grid  974
        outer_grid  302
  ################################################################################
  #
  #  Definition of "minimal" basis
  #
  ################################################################################
  #     valence basis states
      valence      3  s   2.
      valence      3  p   4.
  #     ion occupancy
      ion_occ      3  s   1.
      ion_occ      3  p   3.
  ################################################################################
  #
  #  Suggested additional basis functions. For production calculations,
  #  uncomment them one after another (the most important basis functions are
  #  listed first).
  #
  #  Constructed for dimers: 1.6 A, 1.9 A, 2.5 A, 3.25 A, 4.0 A
  #
  ################################################################################
  #  "First tier" - improvements: -652.81 meV to -45.53 meV
       ionic 3 d auto
       hydro 2 p 1.8
  #     hydro 4 f 7
       ionic 3 s auto
  #  "Second tier" - improvements: -30.20 meV to -1.74 meV
  #     hydro 4 d 6.2
  #     hydro 5 g 10.8
  #     hydro 4 p 4.9
  #     hydro 5 f 10
  #     hydro 1 s 0.8
  #  "Third tier" - improvements: -1.04 meV to -0.20 meV
  #     hydro 3 d 3.9
  #     hydro 3 d 2.7
  #     hydro 5 g 12
  #     hydro 4 p 10.4
  #     hydro 5 f 12.4
  #     hydro 2 s 1.9
  #  "Fourth tier" - improvements: -0.35 meV to -0.06 meV
  #     hydro 4 d 10.4
  #     hydro 4 p 7.2
  #     hydro 4 d 10
  #     hydro 5 g 19.2
  #     hydro 4 s 12
  
  ################################################################################
  #
  #  FHI-aims code project
  #  VB, Fritz-Haber Institut, 2010
  #
  #  Suggested "light" defaults for Zn atom (to be pasted into control.in file)
  #  Be sure to double-check any results obtained with these settings for post-processing,
  #  e.g., with the "tight" defaults and larger basis sets.
  #
  ################################################################################
    species        Zn
  #     global species definitions
      nucleus             30
      mass                65.409
  #
      l_hartree           4
  #
      cut_pot             3.5          1.5  1.0
      basis_dep_cutoff    1e-4
  #
      radial_base         53 5.0
      radial_multiplier   1
      angular_grids       specified
        division   0.5114   50
        division   0.8989  110
        division   1.2692  194
        division   1.6226  302
  #      division   1.7854  434
  #      division   2.0877  590
  #      division   2.1298  770
  #      division   2.1730  974
  #      division   2.5659 1202
        outer_grid  302
  ################################################################################
  #
  #  Definition of "minimal" basis
  #
  ################################################################################
  #     valence basis states
      valence      4  s   2.
      valence      3  p   6.
      valence      3  d  10.
  #     ion occupancy
      ion_occ      4  s   1.
      ion_occ      3  p   6.
      ion_occ      3  d   9.
  ################################################################################
  #
  #  Suggested additional basis functions. For production calculations,
  #  uncomment them one after another (the most important basis functions are
  #  listed first).
  #
  #  Constructed for dimers: 2.00 A, 2.30 A, 2.85 A, 3.50 A, 4.25 A
  #
  ################################################################################
  #  "First tier" - improvements: -270.82 meV to -12.81 meV
       hydro 2 p 1.7
       hydro 3 s 2.9
       hydro 4 p 5.4
       hydro 4 f 7.8
       hydro 3 d 4.5
  #  "Second tier" - improvements: -3.35 meV to -0.82 meV
  #     hydro 5 g 10.8
  #     hydro 2 p 2.4
  #     hydro 3 s 6.2
  #     hydro 3 d 3
  #  "Third tier" - improvements: -0.61 meV to -0.12 meV
  #     hydro 6 h 15.2
  #     ionic 4 p auto
  #     hydro 5 s 12.8
  #     hydro 4 f 5.4
  #     hydro 4 d 7
  #  Further functions - improvements: -0.16 meV and below
  #     hydro 4 f 20
  #     hydro 3 p 2.2
  #     hydro 5 f 6.4
  #     hydro 5 g 8
  
  -----------------------------------------------------------------------
  Completed first pass over input file control.in .
  -----------------------------------------------------------------------
  
  
  -----------------------------------------------------------------------
  Parsing geometry.in (first pass over file, find array dimensions only).
  The contents of geometry.in will be repeated verbatim below
  unless switched off by setting 'verbatim_writeout .false.' .
  in the first line of geometry.in .
  -----------------------------------------------------------------------
  
  lattice_vector     -2.61220139      2.61220139      5.09108609
  lattice_vector      2.61220139     -2.61220139      5.09108609
  lattice_vector      2.61220139      2.61220139     -5.09108609
  atom_frac       0.50000000      0.50000000     -0.00000000 Al
  atom_frac       0.75000000      0.25000000      0.50000000 Al
  atom_frac       1.60477086      1.62214613      1.49164250 S
  atom_frac       0.13050362      0.11312836     -1.49164250 S
  atom_frac      -1.62214613     -0.13050362     -0.01737527 S
  atom_frac      -0.11312836     -1.60477086      0.01737527 S
  atom_frac       0.00000000      0.00000000      0.00000000 Zn
  symmetry_n_params 5 2 3
  symmetry_params a c x4 y4 z4
  symmetry_lv -(1.0/2.0)*a , (1.0/2.0)*a , (1.0/2.0)*c
  symmetry_lv (1.0/2.0)*a , -(1.0/2.0)*a , (1.0/2.0)*c
  symmetry_lv (1.0/2.0)*a , (1.0/2.0)*a , -(1.0/2.0)*c
  symmetry_frac (1.0/2.0) , (1.0/2.0) , 0.0
  symmetry_frac (3.0/4.0) , (1.0/4.0) , (1.0/2.0)
  symmetry_frac (y4+z4) , (z4+x4) , (x4+y4)
  symmetry_frac (z4-y4) , (z4-x4) , -(x4+y4)
  symmetry_frac -(z4+x4) , (y4-z4) , (y4-x4)
  symmetry_frac (x4-z4) , -(y4+z4) , (x4-y4)
  symmetry_frac 0.0 , 0.0 , 0.0
  
  -----------------------------------------------------------------------
  Completed first pass over input file geometry.in .
  -----------------------------------------------------------------------
  

  Basic array size parameters:
  | Number of species                 :        3
  | Number of atoms                   :        7
  | Number of lattice vectors         :        3
  | Max. basis fn. angular momentum   :        3
  | Max. atomic/ionic basis occupied n:        4
  | Max. number of basis fn. types    :        3
  | Max. radial fns per species/type  :        7
  | Max. logarithmic grid size        :     1409
  | Max. radial integration grid size :       53
  | Max. angular integration grid size:      302
  | Max. angular grid division number :        8
  | Radial grid for Hartree potential :     1409
  | Number of spin channels           :        1

------------------------------------------------------------
          Reading file control.in.
------------------------------------------------------------
  Requested output level: MD_light            
  XC: Using Perdew-Wang parametrisation of Ceperley-Alder LDA.
  Scalar relativistic treatment of kinetic energy: on-site free-atom approximation to ZORA.
  Geometry relaxation: Modified BFGS - TRM (trust radius method) for lattice optimization.
  Convergence accuracy for geometry relaxation: Maximum force <   0.100000E-01 eV/A.
  Found k-point grid:         2         2         2
 
  Reading configuration options for species Al                  .
  | Found nuclear charge :  13.0000
  | Found atomic mass :    26.9815386000000      amu
  | Found l_max for Hartree potential  :   4
  | Found cutoff potl. onset [A], width [A], scale factor :    3.50000    1.50000    1.00000
  | Threshold for basis-dependent cutoff potential is   0.100000E-03
  | Found data for basic radial integration grid :    41 points, outermost radius =    5.000 A
  | Found multiplier for basic radial grid :   1
  | Found angular grid specification: user-specified.
  | Specified grid contains     4 separate shells.
  | Check grid settings after all constraints further below.
  | Found free-atom valence shell :  3 s   2.000
  | Found free-atom valence shell :  3 p   1.000
  | Found free-ion valence shell :  3 s   1.000
  | Found free-ion valence shell :  2 p   6.000
  | Found ionic basis function :  3 d , default cutoff radius.
  | Found ionic basis function :  3 p , default cutoff radius.
  | Found ionic basis function :  3 s , default cutoff radius.
  Species Al                  : Missing cutoff potential type.
  Defaulting to exp(1/x)/(1-x)^2 type cutoff potential.
  Species Al: No 'logarithmic' tag. Using default grid for free atom:
  | Default logarithmic grid data [bohr] : 0.1000E-03 0.1000E+03 0.1012E+01
  | Will include ionic basis functions of  2.0-fold positive Al                   ion.
  Species Al: On-site basis accuracy parameter (for Gram-Schmidt orthonormalisation) not specified.
  Using default value basis_acc =  0.1000000E-03.
  Species Al                  : Using default innermost maximum threshold i_radial=  2 for radial functions.
  Species Al                  : Default cutoff onset for free atom density etc. : 0.35000000E+01 AA.
  Species Al                  : Basic radial grid will be enhanced according to radial_multiplier =   1, to contain    41 grid points.
 
  Reading configuration options for species S                   .
  | Found nuclear charge :  16.0000
  | Found atomic mass :    32.0650000000000      amu
  | Found l_max for Hartree potential  :   4
  | Found cutoff potl. onset [A], width [A], scale factor :    3.50000    1.50000    1.00000
  | Threshold for basis-dependent cutoff potential is   0.100000E-03
  | Found data for basic radial integration grid :    44 points, outermost radius =    5.000 A
  | Found multiplier for basic radial grid :   1
  | Found angular grid specification: user-specified.
  | Specified grid contains     4 separate shells.
  | Check grid settings after all constraints further below.
  | Found free-atom valence shell :  3 s   2.000
  | Found free-atom valence shell :  3 p   4.000
  | Found free-ion valence shell :  3 s   1.000
  | Found free-ion valence shell :  3 p   3.000
  | Found ionic basis function :  3 d , default cutoff radius.
  | Found hydrogenic basis function :  2 p   1.800
  | Found ionic basis function :  3 s , default cutoff radius.
  Species S                   : Missing cutoff potential type.
  Defaulting to exp(1/x)/(1-x)^2 type cutoff potential.
  Species S : No 'logarithmic' tag. Using default grid for free atom:
  | Default logarithmic grid data [bohr] : 0.1000E-03 0.1000E+03 0.1012E+01
  | Will include ionic basis functions of  2.0-fold positive S                    ion.
  Species S : On-site basis accuracy parameter (for Gram-Schmidt orthonormalisation) not specified.
  Using default value basis_acc =  0.1000000E-03.
  Species S                   : Using default innermost maximum threshold i_radial=  2 for radial functions.
  Species S                   : Default cutoff onset for free atom density etc. : 0.35000000E+01 AA.
  Species S                   : Basic radial grid will be enhanced according to radial_multiplier =   1, to contain    44 grid points.
 
  Reading configuration options for species Zn                  .
  | Found nuclear charge :  30.0000
  | Found atomic mass :    65.4090000000000      amu
  | Found l_max for Hartree potential  :   4
  | Found cutoff potl. onset [A], width [A], scale factor :    3.50000    1.50000    1.00000
  | Threshold for basis-dependent cutoff potential is   0.100000E-03
  | Found data for basic radial integration grid :    53 points, outermost radius =    5.000 A
  | Found multiplier for basic radial grid :   1
  | Found angular grid specification: user-specified.
  | Specified grid contains     5 separate shells.
  | Check grid settings after all constraints further below.
  | Found free-atom valence shell :  4 s   2.000
  | Found free-atom valence shell :  3 p   6.000
  | Found free-atom valence shell :  3 d  10.000
  | Found free-ion valence shell :  4 s   1.000
  | Found free-ion valence shell :  3 p   6.000
  | Found free-ion valence shell :  3 d   9.000
  | Found hydrogenic basis function :  2 p   1.700
  | Found hydrogenic basis function :  3 s   2.900
  | Found hydrogenic basis function :  4 p   5.400
  | Found hydrogenic basis function :  4 f   7.800
  | Found hydrogenic basis function :  3 d   4.500
  Species Zn                  : Missing cutoff potential type.
  Defaulting to exp(1/x)/(1-x)^2 type cutoff potential.
  Species Zn: No 'logarithmic' tag. Using default grid for free atom:
  | Default logarithmic grid data [bohr] : 0.1000E-03 0.1000E+03 0.1012E+01
  Species Zn: On-site basis accuracy parameter (for Gram-Schmidt orthonormalisation) not specified.
  Using default value basis_acc =  0.1000000E-03.
  Species Zn                  : Using default innermost maximum threshold i_radial=  2 for radial functions.
  Species Zn                  : Default cutoff onset for free atom density etc. : 0.35000000E+01 AA.
  Species Zn                  : Basic radial grid will be enhanced according to radial_multiplier =   1, to contain    53 grid points.
 
  Finished reading input file 'control.in'. Consistency checks are next.
 
  MPI_IN_PLACE appears to work with this MPI implementation.
  | Keeping use_mpi_in_place .true. (see manual).
  Target number of points in a grid batch is not set. Defaulting to  100
  Method for grid partitioning is not set. Defaulting to parallel hash+maxmin partitioning.
  Batch size limit is not set. Defaulting to    200
  By default, will store active basis functions for each batch.
  If in need of memory, prune_basis_once .false. can be used to disable this option.
  communication_type for Hartree potential was not specified.
  Defaulting to calc_hartree .
  Defaulting to Pulay charge density mixer.
  Pulay mixer: Number of relevant iterations not set.
  Defaulting to    8 iterations.
  Pulay mixer: Number of initial linear mixing iterations not set.
  Defaulting to    0 iterations.
  Work space size for distributed Hartree potential not set.
  Defaulting to   0.200000E+03 MB.
  Mixing parameter for charge density mixing has not been set.
  Using default: charge_mix_param =     0.0500.
  The mixing parameter will be adjusted in iteration number     2 of the first full s.c.f. cycle only.
  Algorithm-dependent basis array size parameters:
  | n_max_pulay                         :        8
 * Notice: The s.c.f. convergence criterion sc_accuracy_rho was not provided.
 * We used to stop in this case, and ask the user to provide reasonable
 * scf convergence criteria. However, this led some users to employ criteria
 * that led to extremely long run times, e.g., for simple relaxation.
 * We now preset a default value for sc_accuracy_rho if it is not set.
 * You may still wish to check if this setting is too tight or too loose for your needs.
 * Based on n_atoms, FHI-aims chose sc_accuracy_rho =  0.108012E-05 .
  Maximum number of self-consistency iterations not provided.
  Presetting  1000 iterations.
  Presetting      1001 iterations before the initial mixing cycle
  is restarted anyway using the sc_init_iter criterion / keyword.
  Presetting a factor      1.000 between actual scf density residual
  and density convergence criterion sc_accuracy_rho below which sc_init_iter
  takes no effect.
 * No s.c.f. convergence criteria (sc_accuracy_*) were provided in control.in.
 * The run will proceed with a reasonable default guess, but please check whether.
 * the s.c.f. cycles seem to take too much or too little time.
  No maximum number of relaxation steps, defaulting to     1000
  Default initial Hessian is Lindh matrix (thres = 15.00) plus  0.200000E+01 eV/A^2 times unity.
  No maximum energy tolerance for TRM/BFGS moves, defaulting to   0.100000E-02
  Maximum energy tolerance by which TRM/BFGS trajectory may increase over multiple steps:   0.300000E-02
  No harmonic length scale. Defaulting to   0.250000E-01 A.
  No trust radius initializer. Defaulting to   0.200000E+00 A.
  Unit cell relaxation: Unit cell will be relaxed fully.
  Unit cell relaxation: Analytical stress will be used.
  Analytical stress will be computed.
  Analytical stress calculation: Only the upper triangle is calculated.
                                 Final output is symmetrized.
  Analytical stress calculation: scf convergence accuracy of stress not set.
                                 Analytical stress self-consistency will not be checked explicitly.
                                 Be sure to set other criteria like sc_accuracy_rho tight enough.
  Force calculation: scf convergence accuracy of forces not set.
  Defaulting to 'sc_accuracy_forces not_checked'.
  Handling of forces: Unphysical translation and rotation will be removed from forces.
  No accuracy limit for integral partition fn. given. Defaulting to  0.1000E-14.
  No threshold value for u(r) in integrations given. Defaulting to  0.1000E-05.
  No occupation type (smearing scheme) given. Defaulting to Gaussian broadening, width =  0.1000E-01 eV.
  The width will be adjusted in iteration number     2 of the first full s.c.f. cycle only.
  S.C.F. convergence parameters will be adjusted in iteration number     2 of the first full s.c.f. cycle only.
  No accuracy for occupation numbers given. Defaulting to  0.1000E-12.
  No threshold value for occupation numbers given. Defaulting to  0.0000E+00.
  No accuracy for fermi level given. Defaulting to  0.1000E-19.
  Maximum # of iterations to find E_F not set. Defaulting to  200.
  Preferred method for the eigenvalue solver ('KS_method') not specified in 'control.in'.
  Defaulting to serial version, LAPACK (via ELSI), since more k-points than CPUs available.
  Will not use alltoall communication since running on < 1024 CPUs.
  Threshold for basis singularities not set.
  Default threshold for basis singularities:  0.1000E-04
  partition_type (choice of integration weights) for integrals was not specified.
  | Using a version of the partition function of Stratmann and coworkers ('stratmann_sparse').
  | At each grid point, the set of atoms used to build the partition table is smoothly restricted to
  | only those atoms whose free-atom density would be non-zero at that grid point.
  Partitioning for Hartree potential was not defined. Using partition_type for integrals.
  | Adjusted default value of keyword multip_moments_threshold to:       0.10000000E-11
  | This value may affect high angular momentum components of the Hartree potential in periodic systems.
  Spin handling was not defined in control.in. Defaulting to unpolarized case.
  Angular momentum expansion for Kerker preconditioner not set explicitly.
  | Using default value of   0
  No explicit requirement for turning off preconditioner.
  | By default, it will be turned off when the charge convergence reaches
  | sc_accuracy_rho  =   0.108012E-05
  No special mixing parameter while Kerker preconditioner is on.
  Using default: charge_mix_param =     0.0500.
  No q(lm)/r^(l+1) cutoff set for long-range Hartree potential.
  | Using default value of  0.100000E-09 .
  | Verify using the multipole_threshold keyword.
  Defaulting to new monopole extrapolation.
  Density update method: automatic selection selected.
  Using density matrix based charge density update.
  Using density matrix based charge density update.
  Using packed matrix style: index .
  Geometry relaxation: A file "geometry.in.next_step" is written out by default after each step.
  | This file contains the geometry of the current relaxation step as well as
  | the current Hessian matrix needed to restart the relaxation algorithm.
  | If you do not want part or all of this information, use the keywords
  | "write_restart_geometry" or "hessian_to_restart_geometry" to switch the output off.
  Defaulting to use time-reversal symmetry for k-point grid.
  Charge integration errors on the 3D integration grid will be compensated
  by explicit normalization and distribution of residual charges.
  Use the "compensate_multipole_errors" flag to change this behaviour.
------------------------------------------------------------


------------------------------------------------------------
          Reading geometry description geometry.in.
------------------------------------------------------------
  Input structure read successfully.
  The structure contains        7 atoms,  and a total of        120.000 electrons.

  Input geometry:
  | Unit cell:
  |       -2.61220139        2.61220139        5.09108609
  |        2.61220139       -2.61220139        5.09108609
  |        2.61220139        2.61220139       -5.09108609
  | Atomic structure:
  |       Atom                x [A]            y [A]            z [A]
  |    1: Species Al            0.00000000        0.00000000        5.09108609
  |    2: Species Al            0.00000000        2.61220139        2.54554305
  |    3: Species S             3.94185832        3.85108291        8.83443182
  |    4: Species S            -3.94185829       -3.85108293        8.83443177
  |    5: Species S             3.85108293       -3.94185834       -8.83443177
  |    6: Species S            -3.85108291        3.94185832       -8.83443182
  |    7: Species Zn            0.00000000        0.00000000        0.00000000

  Lattice parameters for 3D lattice (in Angstroms) :     6.290179    6.290179    6.290179
  Angle(s) between unit vectors (in degrees)       :   130.925780  130.925780   71.931026

  | The smallest distance between any two atoms is         2.25582048 AA.
  | The first atom of this pair is atom number                      4 .
  | The second atom of this pair is atom number                     2 .
  | Wigner-Seitz cell of the first atom image           0     0     1 .
  | (The Wigner-Seitz cell of the second atom is 0 0 0  by definition.)

  Symmetry information by spglib:
  | Precision set to  0.1E-04
  | Number of Operations  : 4
  | Space group           : 82
  | International         : I-4
  | Schoenflies           : S4^2

  Quantities derived from the lattice vectors:
  | Reciprocal lattice vector 1: -0.000000  1.202661  0.617077
  | Reciprocal lattice vector 2:  1.202661  0.000000  0.617077
  | Reciprocal lattice vector 3:  1.202661  1.202661 -0.000000
  | Unit cell volume                               :   0.138958E+03  A^3

  Range separation radius for Ewald summation (hartree_convergence_parameter):      3.87660696 bohr.

  Number of empty states per atom not set in control.in - providing a guess from actual geometry.
  | Total number of empty states used during s.c.f. cycle:       24
  If you use a very high smearing, use empty_states (per atom!) in control.in to increase this value.

  Structure-dependent array size parameters: 
  | Maximum number of distinct radial functions  :       28
  | Maximum number of basis functions            :      142
  | Number of Kohn-Sham states (occupied + empty):       84
------------------------------------------------------------

------------------------------------------------------------
          Preparing all fixed parts of the calculation.
------------------------------------------------------------
  Determining machine precision:
    2.225073858507201E-308
  Setting up grids for atomic and cluster calculations.

  Creating wave function, potential, and density for free atoms.

  Species: Al

  List of occupied orbitals and eigenvalues:
    n    l              occ      energy [Ha]    energy [eV]
    1    0           2.0000       -55.368617     -1506.6567
    2    0           2.0000        -3.933052      -107.0238
    3    0           2.0000        -0.275173        -7.4878
    2    1           6.0000        -2.544101       -69.2285
    3    1           1.0000        -0.086012        -2.3405


  Species: S

  List of occupied orbitals and eigenvalues:
    n    l              occ      energy [Ha]    energy [eV]
    1    0           2.0000       -88.354837     -2404.2574
    2    0           2.0000        -7.745703      -210.7713
    3    0           2.0000        -0.632869       -17.2213
    2    1           6.0000        -5.749956      -156.4643
    3    1           4.0000        -0.259011        -7.0480


  Species: Zn

  List of occupied orbitals and eigenvalues:
    n    l              occ      energy [Ha]    energy [eV]
    1    0           2.0000      -353.324562     -9614.4505
    2    0           2.0000       -42.556936     -1158.0331
    3    0           2.0000        -4.722571      -128.5077
    4    0           2.0000        -0.224408        -6.1065
    2    1           6.0000       -36.929190     -1004.8944
    3    1           6.0000        -3.054801       -83.1254
    3    2          10.0000        -0.378780       -10.3071

  Creating fixed part of basis set: Ionic, confined, hydrogenic.
 
  Al                   ion:

  List of free ionic orbitals and eigenvalues:
    n    l      energy [Ha]    energy [eV]
    1    0       -56.167517     -1528.3959
    2    0        -4.710173      -128.1703
    3    0        -0.879347       -23.9283
    2    1        -3.321561       -90.3843


  List of ionic basis orbitals and eigenvalues:
    n    l      energy [Ha]    energy [eV]    outer radius [A]
    3    2        -0.349836        -9.5195       4.594041
    3    1        -0.638653       -17.3786       4.538221
    3    0        -0.879312       -23.9273       4.483079

 
  S                    ion:

  List of free ionic orbitals and eigenvalues:
    n    l      energy [Ha]    energy [eV]
    1    0       -89.377212     -2432.0777
    2    0        -8.738531      -237.7875
    3    0        -1.470337       -40.0099
    2    1        -6.744772      -183.5346
    3    1        -1.051741       -28.6193


  List of ionic basis orbitals and eigenvalues:
    n    l      energy [Ha]    energy [eV]    outer radius [A]
    3    2        -0.499012       -13.5788       4.539062
    3    0        -1.470320       -40.0094       3.642502

 
  S                    hydrogenic:
 
  List of hydrogenic basis orbitals: 
    n    l      effective z      eigenvalue [eV]  inner max. [A]     outer max. [A]     outer radius [A]   
    2    1         1.800000       -10.9749           1.168531           1.168531           4.594893
 
 
  Zn                   hydrogenic:
 
  List of hydrogenic basis orbitals: 
    n    l      effective z      eigenvalue [eV]  inner max. [A]     outer max. [A]     outer radius [A]   
    2    1         1.700000        -9.7616           1.235824           1.235824           4.571361
    3    0         2.900000       -12.1225           0.135202           2.305302           4.627589
    4    1         5.400000       -24.5018           0.278118           2.277292           4.627589
    4    3         7.800000       -51.7350           1.080326           1.080326           4.353199
    3    2         4.500000       -30.6110           1.054232           1.054232           4.515816
 

  Adding cutoff potential to free-atom effective potential.
  Creating atomic-like basis functions for current effective potential.

  Species Al                  :

  List of atomic basis orbitals and eigenvalues:
    n    l      energy [Ha]    energy [eV]    outer radius [A]
    1    0       -55.368617     -1506.6567       0.850197
    2    0        -3.933052      -107.0238       3.183593
    3    0        -0.275173        -7.4878       4.594041
    2    1        -2.544101       -69.2285       3.731966
    3    1        -0.086012        -2.3405       4.594041


  Species S                   :

  List of atomic basis orbitals and eigenvalues:
    n    l      energy [Ha]    energy [eV]    outer radius [A]
    1    0       -88.354837     -2404.2574       0.682391
    2    0        -7.745703      -210.7713       2.317169
    3    0        -0.632869       -17.2213       4.483910
    2    1        -5.749956      -156.4643       2.586670
    3    1        -0.259011        -7.0480       4.539062


  Species Zn                  :

  List of atomic basis orbitals and eigenvalues:
    n    l      energy [Ha]    energy [eV]    outer radius [A]
    1    0      -353.324562     -9614.4505       0.355152
    2    0       -42.556936     -1158.0331       1.028769
    3    0        -4.722571      -128.5077       2.943830
    4    0        -0.224408        -6.1065       4.571361
    2    1       -36.929190     -1004.8944       1.067199
    3    1        -3.054801       -83.1254       3.493350
    3    2        -0.378780       -10.3071       4.460946

  Assembling full basis from fixed parts.
  | Species Al :   atomic orbital   1 s accepted.
  | Species Al :   atomic orbital   2 s accepted.
  | Species Al :    ionic orbital   3 s accepted.
  | Species Al :   atomic orbital   3 s accepted.
  | Species Al :   atomic orbital   2 p accepted.
  | Species Al :    ionic orbital   3 p accepted.
  | Species Al :   atomic orbital   3 p accepted.
  | Species Al :    ionic orbital   3 d accepted.
  | Species S :   atomic orbital   1 s accepted.
  | Species S :   atomic orbital   2 s accepted.
  | Species S :    ionic orbital   3 s accepted.
  | Species S :   atomic orbital   3 s accepted.
  | Species S :   atomic orbital   2 p accepted.
  | Species S :   atomic orbital   3 p accepted.
  | Species S :    hydro orbital   2 p accepted.
  | Species S :    ionic orbital   3 d accepted.
  | Species Zn :   atomic orbital   1 s accepted.
  | Species Zn :   atomic orbital   2 s accepted.
  | Species Zn :   atomic orbital   3 s accepted.
  | Species Zn :   atomic orbital   4 s accepted.
  | Species Zn :    hydro orbital   3 s accepted.
  | Species Zn :   atomic orbital   2 p accepted.
  | Species Zn :   atomic orbital   3 p accepted.
  | Species Zn :    hydro orbital   2 p accepted.
  | Species Zn :    hydro orbital   4 p accepted.
  | Species Zn :   atomic orbital   3 d accepted.
  | Species Zn :    hydro orbital   3 d accepted.
  | Species Zn :    hydro orbital   4 f accepted.
 
  Basis size parameters after reduction:
  | Total number of radial functions:       28
  | Total number of basis functions :      142
 
  Per-task memory consumption for arrays in subroutine allocate_ext:
  |          10.105136MB.
  Testing on-site integration grid accuracy.
  |  Species  Function  <phi|h_atom|phi> (log., in eV)  <phi|h_atom|phi> (rad., in eV)
           1        1              -1506.6567349563              -1506.6561595453
           1        2               -107.0238002879               -107.0237973754
           1        3                 -7.0435360886                 -7.0439988225
           1        4                  4.8527617730                  4.7697900123 ***
           1        5                -69.2285135094                -69.2285134423
           1        6                 -1.5497969167                 -1.5527571275
           1        7                  6.4027499806                  6.1501072511 ***
           1        8                  4.3750044185                  4.3418354946 ***
           2        9              -2404.2574387657              -2404.2563420418
           2       10               -210.7713136651               -210.7713061027
           2       11                -16.9518118724                -16.9517111068
           2       12                  6.9162154765                  6.8937433809
           2       13               -156.4642676192               -156.4642675044
           2       14                 -7.0494703044                 -7.0516481800
           2       15                  7.4791817616                  7.4230163122 ***
           2       16                  6.0474252213                  6.0433323174
           3       17              -9614.4504969312              -9614.4406592951
           3       18              -1158.0331440974              -1158.0330284923
           3       19               -128.5077075530               -128.5077049953
           3       20                 -6.1117580936                 -6.1184332271
           3       21                  5.3990707581                  5.2702908583 ***
           3       22              -1004.8943946368              -1004.8943932926
           3       23                -83.1253641045                -83.1253636778
           3       24                 -0.4063240449                 -0.4244695148
           3       25                 11.1469594660                 11.0777655661 ***
           3       26                -10.3071562937                -10.3071795627
           3       27                 16.1411628300                 16.1403150914
           3       28                 31.3870428066                 31.3871391247
 * Note: Onsite integrals marked "***" above are less accurate than
 * onsite_accuracy_threshold =    0.03000 eV. Usually, this is harmless.
 * When in doubt, tighten the "radial" and/or "radial_multiplier" flags to check.

  Preparing densities etc. for the partition functions (integrals / Hartree potential).

  Preparations completed.
  max(cpu_time)          :      0.358 s.
  Wall clock time (cpu1) :      0.358 s.
------------------------------------------------------------

------------------------------------------------------------
          Begin self-consistency loop: Initialization.

          Date     :  20190817, Time     :  154339.113
------------------------------------------------------------

  Initializing index lists of integration centers etc. from given atomic structure:
  Mapping all atomic coordinates to central unit cell.

  Initializing the k-points
          Using symmetry for reducing the k-points
  | k-points reduced from:        8 to        8
  | Number of k-points                             :         8
  The eigenvectors in the calculations are REAL.
  | K-points in task   0:         1
  | K-points in task   1:         1
  | K-points in task   2:         1
  | K-points in task   3:         1
  | K-points in task   4:         1
  | K-points in task   5:         1
  | K-points in task   6:         1
  | K-points in task   7:         1
  | Number of basis functions in the Hamiltonian integrals :      2501
  | Number of basis functions in a single unit cell        :       142
  | Number of centers in hartree potential         :      1135
  | Number of centers in hartree multipole         :       529
  | Number of centers in electron density summation:       371
  | Number of centers in basis integrals           :       441
  | Number of centers in integrals                 :       160
  | Number of centers in hamiltonian               :       371
  | Consuming         12 KiB for k_phase.
  | Number of super-cells (origin) [n_cells]                     :         891
  | Number of super-cells (after PM_index) [n_cells]             :          98
  | Number of super-cells in hamiltonian [n_cells_in_hamiltonian]:          98
  | Size of matrix packed + index [n_hamiltonian_matrix_size] :      176888

  Initializing relaxation algorithms.
  | Estimated reciprocal-space cutoff momentum G_max:         2.40846683 bohr^-1 .
  | Reciprocal lattice points for long-range Hartree potential:     234
  Partitioning the integration grid into batches with parallel hashing+maxmin method.
  | Number of batches:      729
  | Maximal batch size:     122
  | Minimal batch size:      57
  | Average batch size:      78.861
  | Standard deviation of batch sizes:      10.658

  Integration load balanced across     8 MPI tasks.
  Work distribution over tasks is as follows:
  Task     0 has       7213 integration points.
  Task     1 has       7157 integration points.
  Task     2 has       7219 integration points.
  Task     3 has       7191 integration points.
  Task     4 has       7156 integration points.
  Task     5 has       7152 integration points.
  Task     6 has       7191 integration points.
  Task     7 has       7211 integration points.
  Initializing partition tables, free-atom densities, potentials, etc. across the integration grid (initialize_grid_storage).
  | initialize_grid_storage: Actual outermost partition radius vs. multipole_radius_free
  | (-- VB: in principle, multipole_radius_free should be larger, hence this output)
  | Species        1: Confinement radius =              4.999999999999999 AA, multipole_radius_free =              5.004487022111096 AA.
  | Species        1: outer_partition_radius set to              5.004487022111096 AA .
  | Species        2: Confinement radius =              4.999999999999999 AA, multipole_radius_free =              5.005414751018925 AA.
  | Species        2: outer_partition_radius set to              5.005414751018925 AA .
  | Species        3: Confinement radius =              4.999999999999999 AA, multipole_radius_free =              5.041031794424897 AA.
  | Species        3: outer_partition_radius set to              5.041031794424897 AA .
  | The sparse table of interatomic distances needs        685.53 kbyte instead of      1555.85 kbyte of memory.
  | Net number of integration points:    57490
  | of which are non-zero points    :    52176
  | Numerical average free-atom electrostatic potential    :    -12.70445667 eV
  Renormalizing the initial density to the exact electron count on the 3D integration grid.
  | Initial density: Formal number of electrons (from input files) :     120.0000000000
  | Integrated number of electrons on 3D grid     :     120.0057675703
  | Charge integration error                      :       0.0057675703
  | Normalization factor for density and gradient :       0.9999519392
  Renormalizing the free-atom superposition density to the exact electron count on the 3D integration grid.
  | Formal number of electrons (from input files) :     120.0000000000
  | Integrated number of electrons on 3D grid     :     120.0057675703
  | Charge integration error                      :       0.0057675703
  | Normalization factor for density and gradient :       0.9999519392
  Obtaining max. number of non-zero basis functions in each batch (get_n_compute_maxes).
  | Maximal number of non-zero basis functions:      525 in task     0
  | Maximal number of non-zero basis functions:      531 in task     1
  | Maximal number of non-zero basis functions:      531 in task     2
  | Maximal number of non-zero basis functions:      523 in task     3
  | Maximal number of non-zero basis functions:      528 in task     4
  | Maximal number of non-zero basis functions:      562 in task     5
  | Maximal number of non-zero basis functions:      535 in task     6
  | Maximal number of non-zero basis functions:      531 in task     7
  Allocating        0.091 MB for KS_eigenvector
  Integrating Hamiltonian matrix: batch-based integration.
  Time summed over all CPUs for integration: real work        1.976 s, elapsed        2.009 s
  Integrating overlap matrix.
  Time summed over all CPUs for integration: real work        1.546 s, elapsed        1.577 s
  Decreasing sparse matrix size:
   Tolerance:  9.999999824516700E-014
   Hamiltonian matrix
  | Array has   156910 nonzero elements out of   176888 elements
  | Sparsity factor is 0.113
   Overlap matrix
  | Array has   148329 nonzero elements out of   176888 elements
  | Sparsity factor is 0.161
  New size of hamiltonian matrix:      156976

  Updating Kohn-Sham eigenvalues and eigenvectors using ELSI and the (modified) LAPACK eigensolver.
  Singularity check in k-point 8, task 0 (analysis for other k-points/tasks may follow below):

  Obtaining occupation numbers and chemical potential using ELSI.
  | Chemical potential (Fermi level):    -6.15096834 eV
  Writing Kohn-Sham eigenvalues.
  K-point:       1 at    0.000000    0.000000    0.000000 (in units of recip. lattice)

  State    Occupation    Eigenvalue [Ha]    Eigenvalue [eV]
      1       2.00000        -353.334109        -9614.71030
      2       2.00000         -88.378024        -2404.88840
      3       2.00000         -88.378024        -2404.88840
      4       2.00000         -88.378024        -2404.88840
      5       2.00000         -88.378024        -2404.88840
      6       2.00000         -55.380782        -1506.98776
      7       2.00000         -55.380466        -1506.97915
      8       2.00000         -42.566972        -1158.30625
      9       2.00000         -36.939146        -1005.16529
     10       2.00000         -36.939143        -1005.16522
     11       2.00000         -36.939143        -1005.16522
     12       2.00000          -7.771816         -211.48188
     13       2.00000          -7.771816         -211.48188
     14       2.00000          -7.771816         -211.48188
     15       2.00000          -7.771816         -211.48188
     16       2.00000          -5.776538         -157.18760
     17       2.00000          -5.776538         -157.18760
     18       2.00000          -5.776538         -157.18760
     19       2.00000          -5.776538         -157.18759
     20       2.00000          -5.775851         -157.16891
     21       2.00000          -5.775851         -157.16891
     22       2.00000          -5.775851         -157.16891
     23       2.00000          -5.775851         -157.16891
     24       2.00000          -5.774863         -157.14202
     25       2.00000          -5.774863         -157.14202
     26       2.00000          -5.774863         -157.14202
     27       2.00000          -5.774863         -157.14202
     28       2.00000          -4.736214         -128.87893
     29       2.00000          -3.950127         -107.48842
     30       2.00000          -3.949692         -107.47658
     31       2.00000          -3.069246          -83.51843
     32       2.00000          -3.069207          -83.51737
     33       2.00000          -3.069207          -83.51737
     34       2.00000          -2.561615          -69.70510
     35       2.00000          -2.561615          -69.70510
     36       2.00000          -2.561163          -69.69279
     37       2.00000          -2.561066          -69.69015
     38       2.00000          -2.560906          -69.68580
     39       2.00000          -2.560906          -69.68580
     40       2.00000          -0.760368          -20.69067
     41       2.00000          -0.702886          -19.12651
     42       2.00000          -0.702886          -19.12651
     43       2.00000          -0.701187          -19.08027
     44       2.00000          -0.473009          -12.87123
     45       2.00000          -0.433919          -11.80754
     46       2.00000          -0.426768          -11.61294
     47       2.00000          -0.417880          -11.37110
     48       2.00000          -0.416435          -11.33177
     49       2.00000          -0.416435          -11.33177
     50       2.00000          -0.402012          -10.93932
     51       2.00000          -0.388637          -10.57535
     52       2.00000          -0.385349          -10.48587
     53       2.00000          -0.385349          -10.48587
     54       2.00000          -0.377132          -10.26228
     55       2.00000          -0.355721           -9.67966
     56       2.00000          -0.332487           -9.04742
     57       2.00000          -0.332487           -9.04742
     58       2.00000          -0.277908           -7.56227
     59       2.00000          -0.277262           -7.54468
     60       2.00000          -0.277262           -7.54468
     61       0.00000          -0.143392           -3.90189
     62       0.00000          -0.143314           -3.89978
     63       0.00000          -0.102615           -2.79230
     64       0.00000          -0.058682           -1.59682
     65       0.00000          -0.058682           -1.59682
     66       0.00000          -0.017449           -0.47482
     67       0.00000          -0.010109           -0.27507
     68       0.00000          -0.010109           -0.27507
     69       0.00000          -0.010087           -0.27449
     70       0.00000           0.033843            0.92091
     71       0.00000           0.054620            1.48629
     72       0.00000           0.056147            1.52784
     73       0.00000           0.077107            2.09820
     74       0.00000           0.077107            2.09820
     75       0.00000           0.144684            3.93704
     76       0.00000           0.162017            4.40871
     77       0.00000           0.216636            5.89496
     78       0.00000           0.216636            5.89496
     79       0.00000           0.222280            6.04855
     80       0.00000           0.237400            6.45998
     81       0.00000           0.268117            7.29584
     82       0.00000           0.268117            7.29584
     83       0.00000           0.281714            7.66583
     84       0.00000           0.291963            7.94472

  What follows are estimated values for band gap, HOMO, LUMO, etc.
  | They are estimated on a discrete k-point grid and not necessarily exact.
  | For converged numbers, create a DOS and/or band structure plot on a denser k-grid.

  Highest occupied state (VBM) at     -7.54467540 eV (relative to internal zero)
  | Occupation number:      2.00000000
  | K-point:       1 at    0.000000    0.000000    0.000000 (in units of recip. lattice)

  Lowest unoccupied state (CBM) at    -3.90188871 eV (relative to internal zero)
  | Occupation number:      0.00000000
  | K-point:       1 at    0.000000    0.000000    0.000000 (in units of recip. lattice)

  ESTIMATED overall HOMO-LUMO gap:      3.64278669 eV between HOMO at k-point 1 and LUMO at k-point 1
  | This appears to be a direct band gap.
  The gap value is above 0.2 eV. Unless you are using a very sparse k-point grid,
  this system is most likely an insulator or a semiconductor.
  Calculating total energy contributions from superposition of free atom densities.

  Total energy components:
  | Sum of eigenvalues            :       -2235.71136133 Ha      -60836.80148408 eV
  | XC energy correction          :        -202.12829063 Ha       -5500.19063464 eV
  | XC potential correction       :         267.30220555 Ha        7273.66309299 eV
  | Free-atom electrostatic energy:       -1710.80664437 Ha      -46553.41740502 eV
  | Hartree energy correction     :           0.00000000 Ha           0.00000000 eV
  | Entropy correction            :           0.00000000 Ha           0.00000000 eV
  | ---------------------------
  | Total energy                  :       -3881.34409077 Ha     -105616.74643075 eV
  | Total energy, T -> 0          :       -3881.34409077 Ha     -105616.74643075 eV  <-- do not rely on this value for anything but (periodic) metals
  | Electronic free energy        :       -3881.34409077 Ha     -105616.74643075 eV

  Derived energy quantities:
  | Kinetic energy                :        3914.62115832 Ha      106522.26151094 eV
  | Electrostatic energy          :       -7593.83695846 Ha     -206638.81730704 eV
  | Energy correction for multipole
  | error in Hartree potential    :           0.00000000 Ha           0.00000000 eV
  | Sum of eigenvalues per atom                           :       -8690.97164058 eV
  | Total energy (T->0) per atom                          :      -15088.10663296 eV  <-- do not rely on this value for anything but (periodic) metals
  | Electronic free energy per atom                       :      -15088.10663296 eV
  Initialize hartree_potential_storage
  Max. number of atoms included in rho_multipole:            7

  End scf initialization - timings             :  max(cpu_time)    wall_clock(cpu1)
  | Time for scf. initialization               :        0.893 s           0.932 s
  | Boundary condition initialization          :        0.098 s           0.098 s
  | Relaxation initialization                  :        0.003 s           0.041 s
  | Integration                                :        0.457 s           0.456 s
  | Solution of K.-S. eqns.                    :        0.006 s           0.006 s
  | Grid partitioning                          :        0.067 s           0.066 s
  | Preloading free-atom quantities on grid    :        0.005 s           0.005 s
  | Free-atom superposition energy             :        0.045 s           0.045 s
  | Total energy evaluation                    :        0.000 s           0.000 s

  Partial memory accounting:
  | Current value for overall tracked memory usage:
  |   Minimum:        3.091 MB (on task 0)
  |   Maximum:        3.091 MB (on task 0)
  |   Average:        3.091 MB
  | Peak value for overall tracked memory usage:
  |   Minimum:        7.018 MB (on task 3 after allocating wave)
  |   Maximum:        7.450 MB (on task 5 after allocating wave)
  |   Average:        7.130 MB
  | Largest tracked array allocation so far:
  |   Minimum:        2.087 MB (hamiltonian_shell on task 3)
  |   Maximum:        2.410 MB (hamiltonian_shell on task 5)
  |   Average:        2.170 MB
  Note:  These values currently only include a subset of arrays which are explicitly tracked.
  The "true" memory usage will be greater.
------------------------------------------------------------
Convergence:    q app. |  density  | eigen (eV) | Etot (eV) | forces (eV/A) |       CPU time |     Clock time
  SCF    1 :  0.85E-13 |  0.24E+00 |   0.40E+00 |  0.23E+00 |             . |        1.215 s |        1.216 s
  SCF    2 :  0.12E-12 |  0.22E+00 |   0.61E+01 |  0.11E+01 |             . |        1.012 s |        1.012 s
  SCF    3 :  0.15E-12 |  0.11E+00 |   0.15E+02 |  0.17E+00 |             . |        1.037 s |        1.037 s
  SCF    4 :  0.55E-13 |  0.66E-01 |   0.82E+01 |  0.27E-01 |             . |        1.031 s |        1.031 s
  SCF    5 :  0.32E-13 |  0.27E-01 |  -0.14E+02 |  0.95E-02 |             . |        1.031 s |        1.031 s
  SCF    6 :  0.26E-12 |  0.42E-02 |  -0.53E+00 |  0.68E-03 |             . |        1.041 s |        1.041 s
  SCF    7 :  0.12E-12 |  0.25E-02 |  -0.11E+01 |  0.56E-03 |             . |        1.043 s |        1.044 s
  SCF    8 :  0.12E-12 |  0.23E-02 |   0.51E+00 |  0.12E-03 |             . |        1.046 s |        1.046 s
  SCF    9 :  0.16E-12 |  0.49E-03 |   0.11E+00 |  0.40E-04 |             . |        1.048 s |        1.048 s
  SCF   10 : -0.27E-13 |  0.20E-03 |  -0.12E-01 |  0.27E-05 |             . |        1.054 s |        1.054 s
  SCF   11 :  0.15E-12 |  0.43E-04 |  -0.21E-01 |  0.40E-05 |             . |        1.054 s |        1.054 s
  SCF   12 :  0.47E-13 |  0.13E-04 |  -0.51E-02 |  0.87E-06 |             . |        1.035 s |        1.035 s
  SCF   13 :  0.22E-12 |  0.30E-05 |   0.39E-03 | -0.21E-07 |             . |        1.024 s |        1.024 s
  SCF   14 :  0.19E-12 |  0.18E-05 |   0.20E-03 | -0.97E-07 |             . |        1.030 s |        1.030 s
  SCF   15 :  0.20E-12 |  0.61E-06 |   0.18E-03 | -0.79E-07 |             . |        1.013 s |        1.013 s
  SCF   16 :  0.73E-13 |  0.29E-06 |   0.42E-04 | -0.26E-07 |      0.14E+02 |        2.485 s |        2.485 s
  SCF   17 :  0.26E-12
  Analytical stress tensor components [eV]         xx                  yy                  zz                  xy                  xz                  yz
  -----------------------------------------------------------------------------------------------------------------------------------------------------------
    Nuclear Hellmann-Feynman      :    -0.6832773026E+02   -0.6832811982E+02   -0.6557569040E+02    0.1229279076E+01    0.9732878434E-06   -0.1265164160E-05
    Multipole Hellmann-Feynman    :    -0.1316909734E+03   -0.1316909607E+03   -0.1267127671E+03    0.1237812456E+01    0.2460356771E-05   -0.3274213458E-05
    On-site Multipole corrections :    -0.2367387014E+01   -0.2367387014E+01   -0.2367213453E+01    0.9280728761E-10   -0.2320182190E-11   -0.6486842707E-09
    Strain deriv. of the orbitals :     0.2024672029E+03    0.2024675628E+03    0.1946379028E+03   -0.2465990825E+01   -0.2982802956E-05    0.3800542562E-05
  -----------------------------------------------------------------------------------------------------------------------------------------------------------
  Sum of all contributions        :     0.8111215491E-01    0.8109521530E-01   -0.1776808656E-01    0.1100706811E-02    0.4508393384E-06   -0.7394837410E-06

  +-------------------------------------------------------------------+
  |              Analytical stress tensor - Symmetrized               |
  |                  Cartesian components [eV/A**3]                   |
  +-------------------------------------------------------------------+
  |                x                y                z                |
  |                                                                   |
  |  x         0.00058372       0.00000792       0.00000000           |
  |  y         0.00000792       0.00058359      -0.00000001           |
  |  z         0.00000000      -0.00000001      -0.00012787           |
  |                                                                   |
  |  Pressure:      -0.00034648   [eV/A**3]                           |
  |                                                                   |
  +-------------------------------------------------------------------+

 |  0.23E-06 |   0.48E-04 | -0.29E-07 |      0.13E-04 |       10.194 s |       10.198 s

  Total energy components:
  | Sum of eigenvalues            :       -2235.16956395 Ha      -60822.05842739 eV
  | XC energy correction          :        -202.27978146 Ha       -5504.31290997 eV
  | XC potential correction       :         267.50156937 Ha        7279.08805848 eV
  | Free-atom electrostatic energy:       -1710.80664437 Ha      -46553.41740502 eV
  | Hartree energy correction     :          -0.53341762 Ha         -14.51503203 eV
  | Entropy correction            :           0.00000000 Ha           0.00000000 eV
  | ---------------------------
  | Total energy                  :       -3881.28783803 Ha     -105615.21571593 eV
  | Total energy, T -> 0          :       -3881.28783803 Ha     -105615.21571593 eV  <-- do not rely on this value for anything but (periodic) metals
  | Electronic free energy        :       -3881.28783803 Ha     -105615.21571593 eV

  Derived energy quantities:
  | Kinetic energy                :        3914.78770194 Ha      106526.79339332 eV
  | Electrostatic energy          :       -7593.79575851 Ha     -206637.69619929 eV
  | Energy correction for multipole
  | error in Hartree potential    :           0.03407634 Ha           0.92726437 eV
  | Sum of eigenvalues per atom                           :       -8688.86548963 eV
  | Total energy (T->0) per atom                          :      -15087.88795942 eV  <-- do not rely on this value for anything but (periodic) metals
  | Electronic free energy per atom                       :      -15087.88795942 eV
  What follows are estimated values for band gap, HOMO, LUMO, etc.
  | They are estimated on a discrete k-point grid and not necessarily exact.
  | For converged numbers, create a DOS and/or band structure plot on a denser k-grid.

  Highest occupied state (VBM) at     -6.87149847 eV (relative to internal zero)
  | Occupation number:      2.00000000
  | K-point:       1 at    0.000000    0.000000    0.000000 (in units of recip. lattice)

  Lowest unoccupied state (CBM) at    -3.90474508 eV (relative to internal zero)
  | Occupation number:      0.00000000
  | K-point:       1 at    0.000000    0.000000    0.000000 (in units of recip. lattice)

  ESTIMATED overall HOMO-LUMO gap:      2.96675339 eV between HOMO at k-point 1 and LUMO at k-point 1
  | This appears to be a direct band gap.
  The gap value is above 0.2 eV. Unless you are using a very sparse k-point grid,
  this system is most likely an insulator or a semiconductor.

  Self-consistency cycle converged.


  Energy and forces in a compact form:
  | Total energy uncorrected      :         -0.105615215715932E+06 eV
  | Total energy corrected        :         -0.105615215715932E+06 eV  <-- do not rely on this value for anything but (periodic) metals
  | Electronic free energy        :         -0.105615215715932E+06 eV
  Total atomic forces (unitary forces cleaned) [eV/Ang]:
  |    1          0.145794786574222E-06         -0.308655866802395E-06          0.211106495986328E-05
  |    2          0.342844897714836E-06         -0.210043629093447E-06         -0.986004213263618E-06
  |    3         -0.377290181436679E-02         -0.673046830607713E-02          0.639903032057238E-02
  |    4          0.377268498354456E-02          0.673083434343011E-02          0.639960318942383E-02
  |    5         -0.672760501638948E-02          0.376896634018368E-02         -0.639920113305611E-02
  |    6          0.672724767584295E-02         -0.376882188097468E-02         -0.639868283844629E-02
  |    7          0.855316844743470E-07          0.820293391320719E-08         -0.187459924041762E-05

  Relaxation / MD: End force evaluation.       :  max(cpu_time)    wall_clock(cpu1)
  | Time for this force evaluation             :       29.294 s          29.345 s

------------------------------------------------------------
  Geometry optimization: Attempting to predict improved coordinates.

  +-------------------------------------------------------------------+
  | Generalized derivatives on lattice vectors [eV/A]                 |
  +-------------------------------------------------------------------+
  |lattice_vector       0.00021073       0.01552232      -0.00174516  |
  |lattice_vector       0.01552568       0.00021061      -0.00174493  |
  |lattice_vector       0.01573632       0.01573308      -0.00000006  |
  +-------------------------------------------------------------------+
  | Forces on lattice vectors cleaned from atomic contributions [eV/A]|
  +-------------------------------------------------------------------+
  |lattice_vector      -0.00021073      -0.01552232       0.00174516  |
  |lattice_vector      -0.01552568      -0.00021061       0.00174493  |
  |lattice_vector      -0.01573632      -0.01573308       0.00000006  |
  +-------------------------------------------------------------------+
  Symmetrized total atomic cartesian forces [eV/Ang]:
  |   1     0.0000000000E+00     0.0000000000E+00     0.0000000000E+00
  |   2     0.0000000000E+00     0.0000000000E+00     0.0000000000E+00
  |   3    -0.3553058951E-02    -0.5733980050E-02    -0.1342591319E-02
  |   4     0.9952188322E-02     0.1213310942E-01     0.1414085006E-01
  |   5    -0.9279901251E-02    -0.1538180563E-02    -0.8580050469E-02
  |   6     0.2880771881E-02    -0.4860948808E-02    -0.4218208272E-02
  |   7     0.0000000000E+00     0.0000000000E+00     0.0000000000E+00
  Symmetrized total atomic fractional forces [eV/(unitless displacement)]:
  |   1     0.0000000000E+00     0.0000000000E+00     0.0000000000E+00
  |   2     0.0000000000E+00     0.0000000000E+00     0.0000000000E+00
  |   3    -0.9204124034E-02     0.2189886216E-02    -0.4044586709E-01
  |   4     0.4263575331E-01     0.3124174306E-01     0.4044586709E-01
  |   5    -0.2189886216E-02    -0.4263575331E-01    -0.1139401025E-01
  |   6    -0.3124174306E-01     0.9204124034E-02     0.1139401025E-01
  |   7     0.0000000000E+00     0.0000000000E+00     0.0000000000E+00
  +-------------------------------------------------------------------+
  | Symmetrized forces on lattice vectors cleaned from symmetrized
  | atomic contributions [eV/A]|
  +-------------------------------------------------------------------+
  |lattice_vector       0.01034934      -0.01034934       0.00116335  |
  |lattice_vector      -0.01034934       0.01034934       0.00116335  |
  |lattice_vector      -0.01034934      -0.01034934      -0.00116335  |
  +-------------------------------------------------------------------+
  Net remaining forces (excluding translations, rotations) in present geometry:
  || Forces on atoms   || =   0.141409E-01 eV/A.
  || Forces on lattice || =   0.103493E-01 eV/A^3.
  Maximum force component is  0.141409E-01 eV/A.
  Present geometry is not yet converged.

  Symmetry-reduced parameters:
  | atomic   1          0.754508885000000E+00
  | atomic   2          0.737133617500000E+00
  | atomic   3          0.867637242500000E+00
  | lattice  1          0.522440278000000E+01
  | lattice  2          0.101821721800000E+02
  Symmetry-reduced forces:
  | atomic   1         -0.427054446118668E-02
  | atomic   2         -0.762032190453021E-02
  | atomic   3          0.491435917524373E-02
  | lattice  1         -0.319510810511223E-03
  | lattice  2          0.179577470550974E-04
  Relaxation step number      1: Predicting new coordinates.

  Advancing geometry using trust radius method.
  Allocating        0.091 MB for stored_KS_eigenvector
  | Hessian eigenvalues (eV/A^2): 4.68E+00 ... 1.04E+02
  | Use Quasi-Newton step of length |H^-1 F| = 1.33E-03 A.
  Finished advancing geometry
  | Time :      0.001 s
  Updated atomic structure:
                         x [A]             y [A]             z [A]
  lattice_vector        -2.61170309        2.61170309        5.09093412
  lattice_vector         2.61170309       -2.61170309        5.09093412
  lattice_vector         2.61170309        2.61170309       -5.09093412

            atom         0.00000000        0.00000000        5.09093412  Al
            atom         2.61170309        0.00000000       -2.54546706  Al
            atom         1.32912137        1.23836297       -6.43722344  S
            atom        -1.32912137       -1.23836297        3.74464479  S
            atom        -1.37334011        1.28258172        1.34628932  S
            atom         1.37334011       -1.28258172        1.34628932  S
            atom         0.00000000        0.00000000        0.00000000  Zn

  Fractional coordinates:
                         L1                L2                L3
       atom_frac         0.50000000        0.50000000        0.00000000  Al
       atom_frac        -0.25000000        0.25000000        0.50000000  Al
       atom_frac        -0.39514461       -0.37776928        0.49153450  S
       atom_frac         0.13069622        0.11332089       -0.49153450  S
       atom_frac         0.37776928       -0.13069622       -0.01737533  S
       atom_frac        -0.11332089        0.39514461        0.01737533  S
       atom_frac         0.00000000        0.00000000        0.00000000  Zn
------------------------------------------------------------
  Writing the current geometry to file "geometry.in.next_step".

  Quantities derived from the lattice vectors:
  | Reciprocal lattice vector 1: -0.000000  1.202890  0.617096
  | Reciprocal lattice vector 2:  1.202890 -0.000000  0.617096
  | Reciprocal lattice vector 3:  1.202890  1.202890  0.000000
  | Unit cell volume                               :   0.138901E+03  A^3

  Range separation radius for Ewald summation (hartree_convergence_parameter):      3.87602046 bohr.

------------------------------------------------------------
          Begin self-consistency loop: Re-initialization.

  Date     :  20190817, Time     :  154408.464
------------------------------------------------------------

  Initializing index lists of integration centers etc. from given atomic structure:
  Mapping all atomic coordinates to central unit cell.

  Initializing the k-points
          Using symmetry for reducing the k-points
  | k-points reduced from:        8 to        8
  | Number of k-points                             :         8
  The eigenvectors in the calculations are REAL.
  | K-points in task   0:         1
  | K-points in task   1:         1
  | K-points in task   2:         1
  | K-points in task   3:         1
  | K-points in task   4:         1
  | K-points in task   5:         1
  | K-points in task   6:         1
  | K-points in task   7:         1
  | Number of basis functions in the Hamiltonian integrals :      2501
  | Number of basis functions in a single unit cell        :       142
  | Number of centers in hartree potential         :      1135
  | Number of centers in hartree multipole         :       529
  | Number of centers in electron density summation:       371
  | Number of centers in basis integrals           :       441
  | Number of centers in integrals                 :       160
  | Number of centers in hamiltonian               :       371
  | Consuming         12 KiB for k_phase.
  | Number of super-cells (origin) [n_cells]                     :         891
  | Number of super-cells (after PM_index) [n_cells]             :          98
  | Number of super-cells in hamiltonian [n_cells_in_hamiltonian]:          98
  | Size of matrix packed + index [n_hamiltonian_matrix_size] :      176888
  Partitioning the integration grid into batches with parallel hashing+maxmin method.
  Initializing partition tables, free-atom densities, potentials, etc. across the integration grid (initialize_grid_storage).
  | Species        1: outer_partition_radius set to              5.004487022111096 AA .
  | Species        2: outer_partition_radius set to              5.005414751018925 AA .
  | Species        3: outer_partition_radius set to              5.041031794424897 AA .
  | The sparse table of interatomic distances needs        685.53 kbyte instead of      1555.85 kbyte of memory.
  | Net number of integration points:    57490
  | of which are non-zero points    :    52172
  Renormalizing the initial density to the exact electron count on the 3D integration grid.
  | Initial density: Formal number of electrons (from input files) :     120.0000000000
  | Integrated number of electrons on 3D grid     :     120.0058008328
  | Charge integration error                      :       0.0058008328
  | Normalization factor for density and gradient :       0.9999516621
  Renormalizing the free-atom superposition density to the exact electron count on the 3D integration grid.
  | Formal number of electrons (from input files) :     120.0000000000
  | Integrated number of electrons on 3D grid     :     120.0058008328
  | Charge integration error                      :       0.0058008328
  | Normalization factor for density and gradient :       0.9999516621
  Calculating total energy contributions from superposition of free atom densities.
  Initialize hartree_potential_storage
  Max. number of atoms included in rho_multipole:            7
  Integrating overlap matrix.
  Time summed over all CPUs for integration: real work        1.562 s, elapsed        1.579 s
  Orthonormalizing eigenvectors

  End scf reinitialization - timings           :  max(cpu_time)    wall_clock(cpu1)
  | Time for scf. reinitialization             :        0.637 s           0.636 s
  | Boundary condition initialization          :        0.098 s           0.097 s
  | Integration                                :        0.199 s           0.199 s
  | Grid partitioning                          :        0.065 s           0.065 s
  | Preloading free-atom quantities on grid    :        0.210 s           0.211 s
  | Free-atom superposition energy             :        0.042 s           0.041 s
  | K.-S. eigenvector reorthonormalization     :        0.001 s           0.001 s
------------------------------------------------------------
Convergence:    q app. |  density  | eigen (eV) | Etot (eV) | forces (eV/A) |       CPU time |     Clock time
  SCF    1 : -0.29E-13 |  0.16E+00 |  -0.61E+05 | -0.11E+06 |             . |        0.957 s |        0.958 s
  SCF    2 :  0.12E-12 |  0.49E-03 |  -0.42E-01 |  0.33E-05 |             . |        1.020 s |        1.021 s
  SCF    3 :  0.28E-13 |  0.26E-03 |  -0.28E-01 | -0.24E-05 |             . |        1.024 s |        1.024 s
  SCF    4 : -0.16E-12 |  0.10E-03 |   0.19E-01 | -0.66E-05 |             . |        1.014 s |        1.015 s
  SCF    5 : -0.19E-13 |  0.28E-04 |  -0.88E-02 |  0.17E-05 |             . |        1.026 s |        1.026 s
  SCF    6 :  0.54E-14 |  0.58E-05 |  -0.12E-02 |  0.52E-07 |             . |        1.031 s |        1.032 s
  SCF    7 :  0.93E-13 |  0.27E-05 |   0.17E-03 | -0.13E-06 |             . |        1.027 s |        1.027 s
  SCF    8 :  0.96E-13 |  0.58E-06 |   0.11E-04 | -0.29E-07 |             . |        1.059 s |        1.059 s
  SCF    9 : -0.20E-12 |  0.22E-06 |   0.13E-03 | -0.15E-07 |      0.14E+02 |        2.491 s |        2.491 s
  SCF   10 : -0.89E-15
  Analytical stress tensor components [eV]         xx                  yy                  zz                  xy                  xz                  yz
  -----------------------------------------------------------------------------------------------------------------------------------------------------------
    Nuclear Hellmann-Feynman      :    -0.6845755397E+02   -0.6845793777E+02   -0.6573723431E+02    0.1229622489E+01    0.8975075835E-08   -0.1797957054E-08
    Multipole Hellmann-Feynman    :    -0.1318744348E+03   -0.1318744204E+03   -0.1269137431E+03    0.1237624469E+01    0.1029281157E-07   -0.1305489179E-08
    On-site Multipole corrections :    -0.2367402556E+01   -0.2367402556E+01   -0.2367204488E+01   -0.7733940635E-10   -0.4447015865E-11   -0.2064962149E-09
    Strain deriv. of the orbitals :     0.2027365730E+03    0.2027369251E+03    0.1949394764E+03   -0.2466131931E+01   -0.9019560233E-08    0.1539309467E-08
  -----------------------------------------------------------------------------------------------------------------------------------------------------------
  Sum of all contributions        :     0.3718169599E-01    0.3716435971E-01   -0.7870546742E-01    0.1115025949E-02    0.1024388015E-07   -0.1770632981E-08

  +-------------------------------------------------------------------+
  |              Analytical stress tensor - Symmetrized               |
  |                  Cartesian components [eV/A**3]                   |
  +-------------------------------------------------------------------+
  |                x                y                z                |
  |                                                                   |
  |  x         0.00026769       0.00000803       0.00000000           |
  |  y         0.00000803       0.00026756      -0.00000000           |
  |  z         0.00000000      -0.00000000      -0.00056663           |
  |                                                                   |
  |  Pressure:       0.00001046   [eV/A**3]                           |
  |                                                                   |
  +-------------------------------------------------------------------+

 * Warning: Stress tensor is anisotropic. Be aware that pressure is an isotropic quantity.

 |  0.17E-06 |  -0.75E-04 |  0.14E-07 |      0.11E-04 |       10.580 s |       10.585 s

  Total energy components:
  | Sum of eigenvalues            :       -2235.17344974 Ha      -60822.16416513 eV
  | XC energy correction          :        -202.28112811 Ha       -5504.34955404 eV
  | XC potential correction       :         267.50334174 Ha        7279.13628709 eV
  | Free-atom electrostatic energy:       -1710.80035605 Ha      -46553.24629111 eV
  | Hartree energy correction     :          -0.53624716 Ha         -14.59202766 eV
  | Entropy correction            :           0.00000000 Ha           0.00000000 eV
  | ---------------------------
  | Total energy                  :       -3881.28783932 Ha     -105615.21575085 eV
  | Total energy, T -> 0          :       -3881.28783932 Ha     -105615.21575085 eV  <-- do not rely on this value for anything but (periodic) metals
  | Electronic free energy        :       -3881.28783932 Ha     -105615.21575085 eV

  Derived energy quantities:
  | Kinetic energy                :        3914.79507407 Ha      106526.99399922 eV
  | Electrostatic energy          :       -7593.80178528 Ha     -206637.86019603 eV
  | Energy correction for multipole
  | error in Hartree potential    :           0.03415142 Ha           0.92930742 eV
  | Sum of eigenvalues per atom                           :       -8688.88059502 eV
  | Total energy (T->0) per atom                          :      -15087.88796441 eV  <-- do not rely on this value for anything but (periodic) metals
[...]

  End scf reinitialization - timings           :  max(cpu_time)    wall_clock(cpu1)
  | Time for scf. reinitialization             :        0.645 s           0.646 s
  | Boundary condition initialization          :        0.098 s           0.097 s
  | Integration                                :        0.208 s           0.208 s
  | Grid partitioning                          :        0.065 s           0.065 s
  | Preloading free-atom quantities on grid    :        0.214 s           0.214 s
  | Free-atom superposition energy             :        0.042 s           0.042 s
  | K.-S. eigenvector reorthonormalization     :        0.001 s           0.001 s
------------------------------------------------------------
Convergence:    q app. |  density  | eigen (eV) | Etot (eV) | forces (eV/A) |       CPU time |     Clock time
  SCF    1 : -0.36E-13 |  0.16E+00 |  -0.61E+05 | -0.11E+06 |             . |        0.976 s |        0.976 s
  SCF    2 :  0.20E-13 |  0.34E-03 |   0.24E-01 |  0.14E-05 |             . |        1.043 s |        1.043 s
  SCF    3 :  0.59E-13 |  0.19E-03 |   0.16E-01 |  0.13E-05 |             . |        1.045 s |        1.045 s
  SCF    4 : -0.48E-14 |  0.72E-04 |  -0.20E-01 |  0.18E-05 |             . |        1.047 s |        1.047 s
  SCF    5 :  0.53E-13 |  0.17E-04 |   0.30E-03 | -0.91E-06 |             . |        1.035 s |        1.035 s
  SCF    6 :  0.33E-14 |  0.54E-05 |   0.16E-02 | -0.38E-06 |             . |        1.044 s |        1.044 s
  SCF    7 : -0.48E-13 |  0.21E-05 |   0.11E-03 |  0.37E-07 |             . |        1.063 s |        1.063 s
  SCF    8 :  0.38E-13 |  0.47E-06 |  -0.18E-03 |  0.60E-07 |             . |        1.062 s |        1.061 s
  SCF    9 :  0.28E-13 |  0.12E-06 |   0.22E-04 |  0.39E-08 |      0.14E+02 |        2.545 s |        2.545 s
  SCF   10 :  0.15E-13
  Analytical stress tensor components [eV]         xx                  yy                  zz                  xy                  xz                  yz
  -----------------------------------------------------------------------------------------------------------------------------------------------------------
    Nuclear Hellmann-Feynman      :    -0.6845034615E+02   -0.6845073442E+02   -0.6573129971E+02    0.1228292030E+01    0.8561971238E-11    0.3703967325E-11
    Multipole Hellmann-Feynman    :    -0.1318151163E+03   -0.1318151020E+03   -0.1269261868E+03    0.1235946876E+01    0.1121421392E-10    0.5027061412E-11
    On-site Multipole corrections :    -0.2367382279E+01   -0.2367382279E+01   -0.2367212749E+01   -0.1117554422E-09   -0.2320182190E-11   -0.5761785773E-10
    Strain deriv. of the orbitals :     0.2026598512E+03    0.2026602078E+03    0.1949666683E+03   -0.2463123427E+01    0.2175775018E-09   -0.1996299258E-08
  -----------------------------------------------------------------------------------------------------------------------------------------------------------
  Sum of all contributions        :     0.2700641903E-01    0.2698904181E-01   -0.5803094299E-01    0.1115478585E-02    0.2350335047E-09   -0.2045186087E-08

  +-------------------------------------------------------------------+
  |              Analytical stress tensor - Symmetrized               |
  |                  Cartesian components [eV/A**3]                   |
  +-------------------------------------------------------------------+
  |                x                y                z                |
  |                                                                   |
  |  x         0.00019448       0.00000803       0.00000000           |
  |  y         0.00000803       0.00019436      -0.00000000           |
  |  z         0.00000000      -0.00000000      -0.00041790           |
  |                                                                   |
  |  Pressure:       0.00000969   [eV/A**3]                           |
  |                                                                   |
  +-------------------------------------------------------------------+

 * Warning: Stress tensor is anisotropic. Be aware that pressure is an isotropic quantity.

 |  0.74E-07 |  -0.32E-04 |  0.42E-08 |      0.30E-05 |       10.907 s |       10.911 s

  Total energy components:
  | Sum of eigenvalues            :       -2235.17183600 Ha      -60822.12025306 eV
  | XC energy correction          :        -202.28121509 Ha       -5504.35192098 eV
  | XC potential correction       :         267.50345572 Ha        7279.13938868 eV
  | Free-atom electrostatic energy:       -1710.80111002 Ha      -46553.26680780 eV
  | Hartree energy correction     :          -0.53713666 Ha         -14.61623209 eV
  | Entropy correction            :           0.00000000 Ha           0.00000000 eV
  | ---------------------------
  | Total energy                  :       -3881.28784205 Ha     -105615.21582525 eV
  | Total energy, T -> 0          :       -3881.28784205 Ha     -105615.21582525 eV  <-- do not rely on this value for anything but (periodic) metals
  | Electronic free energy        :       -3881.28784205 Ha     -105615.21582525 eV

  Derived energy quantities:
  | Kinetic energy                :        3914.79379687 Ha      106526.95924480 eV
  | Electrostatic energy          :       -7593.80042383 Ha     -206637.82314907 eV
  | Energy correction for multipole
  | error in Hartree potential    :           0.03411635 Ha           0.92835303 eV
  | Sum of eigenvalues per atom                           :       -8688.87432187 eV
  | Total energy (T->0) per atom                          :      -15087.88797504 eV  <-- do not rely on this value for anything but (periodic) metals
  | Electronic free energy per atom                       :      -15087.88797504 eV
  What follows are estimated values for band gap, HOMO, LUMO, etc.
  | They are estimated on a discrete k-point grid and not necessarily exact.
  | For converged numbers, create a DOS and/or band structure plot on a denser k-grid.

  Highest occupied state (VBM) at     -6.87205337 eV (relative to internal zero)
  | Occupation number:      2.00000000
  | K-point:       1 at    0.000000    0.000000    0.000000 (in units of recip. lattice)

  Lowest unoccupied state (CBM) at    -3.90540610 eV (relative to internal zero)
  | Occupation number:      0.00000000
  | K-point:       1 at    0.000000    0.000000    0.000000 (in units of recip. lattice)

  ESTIMATED overall HOMO-LUMO gap:      2.96664727 eV between HOMO at k-point 1 and LUMO at k-point 1
  | This appears to be a direct band gap.
  The gap value is above 0.2 eV. Unless you are using a very sparse k-point grid,
  this system is most likely an insulator or a semiconductor.

  Self-consistency cycle converged.


  Energy and forces in a compact form:
  | Total energy uncorrected      :         -0.105615215825249E+06 eV
  | Total energy corrected        :         -0.105615215825249E+06 eV  <-- do not rely on this value for anything but (periodic) metals
  | Electronic free energy        :         -0.105615215825249E+06 eV
  Total atomic forces (unitary forces cleaned) [eV/Ang]:
  |    1          0.138400639988217E-08          0.798743878264514E-08          0.196711085064317E-05
  |    2          0.109217719522749E-08         -0.101924064028818E-07         -0.881390805590510E-06
  |    3          0.536488809460376E-02         -0.137494706873588E-02          0.314017722046241E-02
  |    4         -0.536489060988869E-02          0.137492518691447E-02          0.314016677046896E-02
  |    5         -0.137163596349457E-02         -0.536908355503128E-02         -0.313984004798858E-02
  |    6          0.137163020650485E-02          0.536908299138394E-02         -0.313987271064106E-02
  |    7          0.579609105380100E-08          0.246504363777766E-07         -0.171695234679654E-05

  Relaxation / MD: End force evaluation.       :  max(cpu_time)    wall_clock(cpu1)
  | Time for this force evaluation             :       22.418 s          22.428 s

------------------------------------------------------------
  Geometry optimization: Attempting to predict improved coordinates.

  +-------------------------------------------------------------------+
  | Generalized derivatives on lattice vectors [eV/A]                 |
  +-------------------------------------------------------------------+
  |lattice_vector       0.00021359       0.00516787      -0.00569900  |
  |lattice_vector       0.00517119       0.00021359      -0.00569900  |
  |lattice_vector       0.00538479       0.00538146      -0.00000000  |
  +-------------------------------------------------------------------+
  | Forces on lattice vectors cleaned from atomic contributions [eV/A]|
  +-------------------------------------------------------------------+
  |lattice_vector      -0.00021359      -0.00516787       0.00569900  |
  |lattice_vector      -0.00517119      -0.00021359       0.00569900  |
  |lattice_vector      -0.00538479      -0.00538146       0.00000000  |
  +-------------------------------------------------------------------+
  Symmetrized total atomic cartesian forces [eV/Ang]:
  |   1     0.0000000000E+00     0.0000000000E+00     0.0000000000E+00
  |   2     0.0000000000E+00     0.0000000000E+00     0.0000000000E+00
  |   3     0.7037506849E-02     0.2066827099E-02     0.6084252926E-02
  |   4    -0.3897492662E-02     0.1073187088E-02     0.1957754489E-03
  |   5    -0.5132588727E-02    -0.8076827466E-02    -0.8110693937E-02
  |   6     0.1992574540E-02     0.4936813278E-02     0.1830665562E-02
  |   7     0.0000000000E+00     0.0000000000E+00     0.0000000000E+00
  Symmetrized total atomic fractional forces [eV/(unitless displacement)]:
  |   1     0.0000000000E+00     0.0000000000E+00     0.0000000000E+00
  |   2     0.0000000000E+00     0.0000000000E+00     0.0000000000E+00
  |   3     0.2907803156E-02     0.2886704602E-01     0.1537620855E-01
  |   4     0.1349083747E-01    -0.1246840539E-01    -0.1537620855E-01
  |   5    -0.2886704602E-01    -0.1349083747E-01    -0.2595924286E-01
  |   6     0.1246840539E-01    -0.2907803156E-02     0.2595924286E-01
  |   7     0.0000000000E+00     0.0000000000E+00     0.0000000000E+00
  +-------------------------------------------------------------------+
  | Symmetrized forces on lattice vectors cleaned from symmetrized
  | atomic contributions [eV/A]|
  +-------------------------------------------------------------------+
  |lattice_vector       0.00344635      -0.00344635       0.00379934  |
  |lattice_vector      -0.00344635       0.00344635       0.00379934  |
  |lattice_vector      -0.00344635      -0.00344635      -0.00379934  |
  +-------------------------------------------------------------------+
  Net remaining forces (excluding translations, rotations) in present geometry:
  || Forces on atoms   || =   0.811069E-02 eV/A.
  || Forces on lattice || =   0.379934E-02 eV/A^3.
  Maximum force component is  0.811069E-02 eV/A.
  Present geometry is converged.

  Symmetry-reduced parameters:
  | atomic   1          0.754439636873427E+00
  | atomic   2          0.737002095409345E+00
  | atomic   3          0.867641804830551E+00
  | lattice  1          0.522247341805582E+01
  | lattice  2          0.101826463809311E+02
  Symmetry-reduced forces:
  | atomic   1          0.607619967443259E-02
  | atomic   2         -0.155567745023147E-02
  | atomic   3          0.241055586509591E-02
  | lattice  1         -0.106397797873363E-03
  | lattice  2          0.586476468257966E-04
------------------------------------------------------------
  Final atomic structure:
                         x [A]             y [A]             z [A]
  lattice_vector        -2.61123671        2.61123671        5.09132319
  lattice_vector         2.61123671       -2.61123671        5.09132319
  lattice_vector         2.61123671        2.61123671       -5.09132319

            atom         0.00000000       -0.00000000        5.09132319  Al
            atom         2.61123671        0.00000000       -2.54566160  Al
            atom         1.32880424        1.23773714       -6.43907989  S
            atom        -1.32880424       -1.23773714        3.74356649  S
            atom        -1.37349957        1.28243247        1.34775670  S
            atom         1.37349957       -1.28243247        1.34775670  S
            atom         0.00000000        0.00000000        0.00000000  Zn

  Fractional coordinates:
                         L1                L2                L3
       atom_frac         0.50000000        0.50000000       -0.00000000  Al
       atom_frac        -0.25000000        0.25000000        0.50000000  Al
       atom_frac        -0.39535610       -0.37791856        0.49144173  S
       atom_frac         0.13063971        0.11320217       -0.49144173  S
       atom_frac         0.37791856       -0.13063971       -0.01743754  S
       atom_frac        -0.11320217        0.39535610        0.01743754  S
       atom_frac         0.00000000        0.00000000        0.00000000  Zn
------------------------------------------------------------

------------------------------------------------------------------------------
  Final output of selected total energy values:

  The following output summarizes some interesting total energy values
  at the end of a run (AFTER all relaxation, molecular dynamics, etc.).

  | Total energy of the DFT / Hartree-Fock s.c.f. calculation      :        -105615.215825249 eV
  | Final zero-broadening corrected energy (caution - metals only) :        -105615.215825249 eV
  | For reference only, the value of 1 Hartree used in FHI-aims is :             27.211384500 eV
  | For reference only, the overall average (free atom contribution
  | + realspace contribution) of the electrostatic potential after
  | s.c.f. convergence is                                          :            -12.512836891 eV

  Before relying on these values, please be sure to understand exactly which
  total energy value is referred to by a given number. Different objects may
  all carry the same name 'total energy'. Definitions:

  Total energy of the DFT / Hartree-Fock s.c.f. calculation:
  | Note that this energy does not include ANY quantities calculated after the
  | s.c.f. cycle, in particular not ANY RPA, MP2, etc. many-body perturbation terms.

  Final zero-broadening corrected energy:
  | For metallic systems only, a broadening of the occupation numbers at the Fermi
  | level can be extrapolated back to zero broadening by an electron-gas inspired
  | formula. For all systems that are not real metals, this value can be
  | meaningless and should be avoided.

------------------------------------------------------------------------------
  Methods described in the following list of references were used in this FHI-aims run.
  If you publish the results, please make sure to cite these reference if they apply.
  FHI-aims is an academic code, and for our developers (often, Ph.D. students
  and postdocs), scientific credit in the community is essential.
  Thank you for helping us!

  For any use of FHI-aims, please cite:

    Volker Blum, Ralf Gehrke, Felix Hanke, Paula Havu, Ville Havu,
    Xinguo Ren, Karsten Reuter, and Matthias Scheffler
    'Ab initio molecular simulations with numeric atom-centered orbitals'
    Computer Physics Communications 180, 2175-2196 (2009)
    http://dx.doi.org/10.1016/j.cpc.2009.06.022


  For the analytical stress tensor used in your run, please cite:

    Franz Knuth, Christian Carbogno, Viktor Atalla, Volker Blum, Matthias Scheffler
    'All-electron formalism for total energy strain derivatives and
    stress tensor components for numeric atom-centered orbitals'
    Computer Physics Communications 190, 33-50 (2015).
    http://dx.doi.org/10.1016/j.cpc.2015.01.003


  The provided symmetry information was generated with SPGlib:

    Atsushi Togo, Yusuke Seto, Dimitar Pashov
    SPGlib 1.7.3 obtained from http://spglib.sourceforge.net
    Copyright (C) 2008 Atsushi Togo


  The ELSI infrastructure was used in your run to solve the Kohn-Sham electronic structure.
  Please check out http://elsi-interchange.org to learn more.
  If scalability is important for your project, please acknowledge ELSI by citing:

    V. W-z. Yu, F. Corsetti, A. Garcia, W. P. Huhn, M. Jacquelin, W. Jia,
    B. Lange, L. Lin, J. Lu, W. Mi, A. Seifitokaldani, A. Vazquez-Mayagoitia,
    C. Yang, H. Yang, and V. Blum
    'ELSI: A unified software interface for Kohn-Sham electronic structure solvers'
    Computer Physics Communications 222, 267-285 (2018).
    http://dx.doi.org/10.1016/j.cpc.2017.09.007


  For the real-space grid partitioning and parallelization used in this calculation, please cite:

    Ville Havu, Volker Blum, Paula Havu, and Matthias Scheffler,
    'Efficient O(N) integration for all-electron electronic structure calculation'
    'using numerically tabulated basis functions'
    Journal of Computational Physics 228, 8367-8379 (2009).
    http://dx.doi.org/10.1016/j.jcp.2009.08.008

  Of course, there are many other important community references, e.g., those cited in the
  above references. Our list is limited to references that describe implementations in the
  FHI-aims code. The reason is purely practical (length of this list) - please credit others as well.

------------------------------------------------------------
          Leaving FHI-aims.
          Date     :  20190817, Time     :  154452.780

          Computational steps:
          | Number of self-consistency cycles          :           37
          | Number of SCF (re)initializations          :            3
          | Number of relaxation steps                 :            2

          Detailed time accounting                     :  max(cpu_time)    wall_clock(cpu1)
          | Total time                                 :       74.013 s          74.111 s
          | Preparation time                           :        0.358 s           0.358 s
          | Boundary condition initalization           :        0.293 s           0.292 s
          | Grid partitioning                          :        0.197 s           0.196 s
          | Preloading free-atom quantities on grid    :        0.429 s           0.430 s
          | Free-atom superposition energy             :        0.128 s           0.128 s
          | Total time for integrations                :       10.263 s          10.264 s
          | Total time for solution of K.-S. equations :        0.141 s           0.145 s
          | Total time for EV reorthonormalization     :        0.002 s           0.002 s
          | Total time for density & force components  :       32.435 s          32.443 s
          | Total time for mixing & preconditioning    :        2.093 s           2.089 s
          | Total time for Hartree multipole update    :        0.048 s           0.047 s
          | Total time for Hartree multipole sum       :       27.261 s          27.271 s
          | Total time for total energy evaluation     :        0.004 s           0.006 s
          | Total time for scaled ZORA corrections     :        0.000 s           0.000 s

          Partial memory accounting:
          | Residual value for overall tracked memory usage across tasks:     0.000000 MB (should be 0.000000 MB)
          | Peak values for overall tracked memory usage:
          |   Minimum:       12.352 MB (on task 3 after allocating d_wave)
          |   Maximum:       13.007 MB (on task 7 after allocating d_wave)
          |   Average:       12.656 MB
          | Largest tracked array allocation:
          |   Minimum:        2.103 MB (hamiltonian_shell on task 0)
          |   Maximum:        2.410 MB (hamiltonian_shell on task 5)
          |   Average:        2.229 MB
          Note:  These values currently only include a subset of arrays which are explicitly tracked.
          The "true" memory usage will be greater.

          Have a nice day.
------------------------------------------------------------
