  MPI-parallelism will be employed.
------------------------------------------------------------
          Invoking FHI-aims ...
          Version 180101-
          Git rev. (modified): fa29f3a Merge branch master of fhiaims.rzberlin.mp[...]
          Compiled on 2018/01/19 at 14:47:46 on host theobook132.

          When using FHI-aims, please cite the following reference:

          Volker Blum, Ralf Gehrke, Felix Hanke, Paula Havu,
          Ville Havu, Xinguo Ren, Karsten Reuter, and Matthias Scheffler,
          'Ab Initio Molecular Simulations with Numeric Atom-Centered Orbitals',
          Computer Physics Communications 180, 2175-2196 (2009)

          For any questions about FHI-aims, please visit the aimsclub website
          with its forums and wiki. Contributions to both the forums and the
          wiki are warmly encouraged - they are for you, and everyone is welcome there.

------------------------------------------------------------



  Date     :  20180215, Time     :  214351.028
  Time zero on CPU 1             :   0.600000000000000E-01  s.
  Internal wall clock time zero  :           287963031.028  s.

  FHI-aims created a unique identifier for this run for later identification
  aims_uuid : 8776D42A-9F86-439F-AEC5-936C84B57DD9

  Using        8 parallel tasks.
  Task        0 on host theobook132 reporting.
  Task        1 on host theobook132 reporting.
  Task        2 on host theobook132 reporting.
  Task        3 on host theobook132 reporting.
  Task        4 on host theobook132 reporting.
  Task        5 on host theobook132 reporting.
  Task        6 on host theobook132 reporting.
  Task        7 on host theobook132 reporting.

  Performing system and environment tests:
  *** Environment variable OMP_NUM_THREADS is not set
  *** For performance reasons you might want to set it to 1
  | Stacksize not measured: no C compiler
  | Checking for scalapack...
  | No scalapack compiled in.

  Obtaining array dimensions for all initial allocations:
  
  -----------------------------------------------------------------------
  Parsing control.in (first pass over file, find array dimensions only).
  The contents of control.in will be repeated verbatim below
  unless switched off by setting 'verbatim_writeout .false.' .
  in the first line of control.in .
  -----------------------------------------------------------------------
  
  ################################################################################
  #
  #		Control.in generated by mkcontrol
  #
  ################################################################################
  xc			pbe
  vdw_correction_hirshfeld
  relativistic		none
  sc_accuracy_rho		1E-5
  sc_accuracy_eev		1E-3
  sc_accuracy_etot	1E-6
  sc_iter_limit		1000	
  
  compute_forces .true.
  final_forces_cleaned .true.
  
  ################################################################################
  #
  #  FHI-aims code project
  #  VB, Fritz-Haber Institut, 2009
  #
  #  Suggested "light" defaults for H atom (to be pasted into control.in file)
  #  Be sure to double-check any results obtained with these settings for post-processing,
  #  e.g., with the "tight" defaults and larger basis sets.
  #
  ################################################################################
    species        H
  #     global species definitions
      nucleus             1
      mass                1.00794
  #
      l_hartree           4
  #
      cut_pot             3.5  1.5  1.0
      basis_dep_cutoff    1e-4
  #
      radial_base         24 5.0
      radial_multiplier   1
      angular_grids       specified
        division   0.2421   50
        division   0.3822  110
        division   0.4799  194
        division   0.5341  302
  #      division   0.5626  434
  #      division   0.5922  590
  #      division   0.6542  770
  #      division   0.6868 1202
  #      outer_grid  770
        outer_grid  302
  ################################################################################
  #
  #  Definition of "minimal" basis
  #
  ################################################################################
  #     valence basis states
      valence      1  s   1.
  #     ion occupancy
      ion_occ      1  s   0.5
  ################################################################################
  #
  #  Suggested additional basis functions. For production calculations,
  #  uncomment them one after another (the most important basis functions are
  #  listed first).
  #
  #  Basis constructed for dimers: 0.5 A, 0.7 A, 1.0 A, 1.5 A, 2.5 A
  #
  ################################################################################
  #  "First tier" - improvements: -1014.90 meV to -62.69 meV
       hydro 2 s 2.1
       hydro 2 p 3.5
  #  "Second tier" - improvements: -12.89 meV to -1.83 meV
  #     hydro 1 s 0.85
  #     hydro 2 p 3.7
  #     hydro 2 s 1.2
  #     hydro 3 d 7
  #  "Third tier" - improvements: -0.25 meV to -0.12 meV
  #     hydro 4 f 11.2
  #     hydro 3 p 4.8
  #     hydro 4 d 9
  #     hydro 3 s 3.2
  
  ################################################################################
  #
  #  FHI-aims code project
  #  VB, Fritz-Haber Institut, 2009
  #
  #  Suggested "light" defaults for C atom (to be pasted into control.in file)
  #  Be sure to double-check any results obtained with these settings forpost-processing,
  #  e.g., with the "tight" defaults and larger basis sets.
  #
  ################################################################################
    species        C
  #     global species definitions
      nucleus             6
      mass                12.0107
  #
      l_hartree           4
  #
      cut_pot             3.5  1.5  1.0
      basis_dep_cutoff    1e-4
  #
      radial_base         34 5.0
      radial_multiplier   1
      angular_grids specified
        division   0.3326   50
        division   0.5710  110
        division   0.7727  194
        division   0.8772  302
  #      division   0.9334  434
  #      division   0.9625  590
  #      division   0.9924  770
  #      division   1.0230  974
  #      division   1.4589 1202
  #     outer_grid  974
       outer_grid 302
  ################################################################################
  #
  #  Definition of "minimal" basis
  #
  ################################################################################
  #     valence basis states
      valence      2  s   2.
      valence      2  p   2.
  #     ion occupancy
      ion_occ      2  s   1.
      ion_occ      2  p   1.
  ################################################################################
  #
  #  Suggested additional basis functions. For production calculations,
  #  uncomment them one after another (the most important basis functions are
  #  listed first).
  #
  #  Constructed for dimers: 1.0 A, 1.25 A, 1.5 A, 2.0 A, 3.0 A
  #
  ################################################################################
  #  "First tier" - improvements: -1214.57 meV to -155.61 meV
       hydro 2 p 1.7
       hydro 3 d 6
       hydro 2 s 4.9
  #  "Second tier" - improvements: -67.75 meV to -5.23 meV
  #     hydro 4 f 9.8
  #     hydro 3 p 5.2
  #     hydro 3 s 4.3
  #     hydro 5 g 14.4
  #     hydro 3 d 6.2
  #  "Third tier" - improvements: -2.43 meV to -0.60 meV
  #     hydro 2 p 5.6
  #     hydro 2 s 1.4
  #     hydro 3 d 4.9
  #     hydro 4 f 11.2
  #  "Fourth tier" - improvements: -0.39 meV to -0.18 meV
  #     hydro 2 p 2.1
  #     hydro 5 g 16.4
  #     hydro 4 d 13.2
  #     hydro 3 s 13.6
  #     hydro 4 f 17.6
  #  Further basis functions - improvements: -0.08 meV and below
  #     hydro 3 s 2
  #     hydro 3 p 6
  #     hydro 4 d 20
  
  -----------------------------------------------------------------------
  Completed first pass over input file control.in .
  -----------------------------------------------------------------------
  
  
  -----------------------------------------------------------------------
  Parsing geometry.in (first pass over file, find array dimensions only).
  The contents of geometry.in will be repeated verbatim below
  unless switched off by setting 'verbatim_writeout .false.' .
  in the first line of geometry.in .
  -----------------------------------------------------------------------
  
  #=======================================#
  # iterations/iteration0037/aims-chain-node-0.49235/geometry.in
  #=======================================#
  atom -1.4715172160416059 -0.9778066644594108 -0.3241790556406081 C
  atom -0.7001707720436958 -0.0706770038134872 0.5713834549481142 C
  atom 0.7001706627359522 0.0706771252543872 0.5713834724241915 C
  atom 1.4715172296129322 0.9778066191262023 -0.3241791345431732 C
  atom -0.9165933131955277 -1.2439630616621382 -1.2306321278397463 H
  atom -2.4821421211748822 -0.6274241186903445 -0.5538442183854047 H
  atom -1.6166278770171265 -1.9557581646066091 0.2157515934855190 H
  atom -1.3018931694757208 0.4594996584333671 1.3215204664696842 H
  atom 1.3018930374917286 -0.4594994624712080 1.3215205737276983 H
  atom 0.9165932045539413 1.2439632935784797 -1.2306320499114505 H
  atom 1.6166283643717421 1.9557580093996296 0.2157515923325357 H
  atom 2.4821419701822562 0.6274237699111271 -0.5538445670673640 H
  
  -----------------------------------------------------------------------
  Completed first pass over input file geometry.in .
  -----------------------------------------------------------------------
  

  Basic array size parameters:
  | Number of species                 :        2
  | Number of atoms                   :       12
  | Max. basis fn. angular momentum   :        2
  | Max. atomic/ionic basis occupied n:        2
  | Max. number of basis fn. types    :        2
  | Max. radial fns per species/type  :        3
  | Max. logarithmic grid size        :     1277
  | Max. radial integration grid size :       34
  | Max. angular integration grid size:      302
  | Max. angular grid division number :        8
  | Radial grid for Hartree potential :     1277
  | Number of spin channels           :        1

------------------------------------------------------------
          Reading file control.in.
------------------------------------------------------------
  XC: Using PBE gradient-corrected functionals.
  Non-relativistic treatment of kinetic energy.
  Convergence accuracy of self-consistent charge density:  0.1000E-04
  Convergence accuracy of sum of eigenvalues:  0.1000E-02
  Convergence accuracy of total energy:  0.1000E-05
  Maximum number of s.-c. iterations  :  1000
  Forces will be computed.
  Cleaning forces before final output.
 
  Reading configuration options for species H                   .
  | Found nuclear charge :   1.0000
  | Found atomic mass :    1.00794000000000      amu
  | Found l_max for Hartree potential  :   4
  | Found cutoff potl. onset [A], width [A], scale factor :    3.50000    1.50000    1.00000
  | Threshold for basis-dependent cutoff potential is   0.100000E-03
  | Found data for basic radial integration grid :    24 points, outermost radius =    5.000 A
  | Found multiplier for basic radial grid :   1
  | Found angular grid specification: user-specified.
  | Specified grid contains     5 separate shells.
  | Check grid settings after all constraints further below.
  | Found free-atom valence shell :  1 s   1.000
  | No ionic wave fns used. Skipping ion_occ.
  | Found hydrogenic basis function :  2 s   2.100
  | Found hydrogenic basis function :  2 p   3.500
  Species H                   : Missing cutoff potential type.
  Defaulting to exp(1/x)/(1-x)^2 type cutoff potential.
  Species H : No 'logarithmic' tag. Using default grid for free atom:
  | Default logarithmic grid data [bohr] : 0.1000E-03 0.1000E+03 0.1012E+01
  Species H : On-site basis accuracy parameter (for Gram-Schmidt orthonormalisation) not specified.
  Using default value basis_acc =  0.1000000E-03.
  Species H                   : Using default innermost maximum threshold i_radial=  2 for radial functions.
  Species H                   : Default cutoff onset for free atom density etc. : 0.35000000E+01 AA.
  Species H                   : Basic radial grid will be enhanced according to radial_multiplier =   1, to contain    24 grid points.
 
  Reading configuration options for species C                   .
  | Found nuclear charge :   6.0000
  | Found atomic mass :    12.0107000000000      amu
  | Found l_max for Hartree potential  :   4
  | Found cutoff potl. onset [A], width [A], scale factor :    3.50000    1.50000    1.00000
  | Threshold for basis-dependent cutoff potential is   0.100000E-03
  | Found data for basic radial integration grid :    34 points, outermost radius =    5.000 A
  | Found multiplier for basic radial grid :   1
  | Found angular grid specification: user-specified.
  | Specified grid contains     5 separate shells.
  | Check grid settings after all constraints further below.
  | Found free-atom valence shell :  2 s   2.000
  | Found free-atom valence shell :  2 p   2.000
  | No ionic wave fns used. Skipping ion_occ.
  | No ionic wave fns used. Skipping ion_occ.
  | Found hydrogenic basis function :  2 p   1.700
  | Found hydrogenic basis function :  3 d   6.000
  | Found hydrogenic basis function :  2 s   4.900
  Species C                   : Missing cutoff potential type.
  Defaulting to exp(1/x)/(1-x)^2 type cutoff potential.
  Species C : No 'logarithmic' tag. Using default grid for free atom:
  | Default logarithmic grid data [bohr] : 0.1000E-03 0.1000E+03 0.1012E+01
  Species C : On-site basis accuracy parameter (for Gram-Schmidt orthonormalisation) not specified.
  Using default value basis_acc =  0.1000000E-03.
  Species C                   : Using default innermost maximum threshold i_radial=  2 for radial functions.
  Species C                   : Default cutoff onset for free atom density etc. : 0.35000000E+01 AA.
  Species C                   : Basic radial grid will be enhanced according to radial_multiplier =   1, to contain    34 grid points.
 
  Finished reading input file 'control.in'. Consistency checks are next.
 
  MPI_IN_PLACE appears to work with this MPI implementation.
  | Keeping use_mpi_in_place .true. (see manual).
  Target number of points in a grid batch is not set. Defaulting to  100
  Method for grid partitioning is not set. Defaulting to parallel hash+maxmin partitioning.
  Batch size limit is not set. Defaulting to    200
  By default, will store active basis functions for each batch.
  If in need of memory, prune_basis_once .false. can be used to disable this option.
  communication_type for Hartree potential was not specified.
  Defaulting to calc_hartree .
  Defaulting to Pulay charge density mixer.
  Pulay mixer: Number of relevant iterations not set.
  Defaulting to    8 iterations.
  Pulay mixer: Number of initial linear mixing iterations not set.
  Defaulting to    0 iterations.
  Work space size for distributed Hartree potential not set.
  Defaulting to   0.200000E+03 MB.
  Mixing parameter for charge density mixing has not been set.
  Using default: charge_mix_param =     0.0500.
  The mixing parameter will be adjusted in iteration number     2 of the first full s.c.f. cycle only.
  Algorithm-dependent basis array size parameters:
  | n_max_pulay                         :        8
  Presetting        40 iterations before the initial mixing cycle
  is restarted anyway using the sc_init_iter criterion / keyword.
  Presetting a factor      1.000 between actual scf density residual
  and density convergence criterion sc_accuracy_rho below which sc_init_iter
  takes no effect.
  Geometry relaxation not requested: no relaxation will be performed.
  Force calculation: scf convergence accuracy of forces not set.
  Defaulting to 'sc_accuracy_forces not_checked'.
  Handling of forces: Unphysical translation and rotation will be removed from forces.
  No accuracy limit for integral partition fn. given. Defaulting to  0.1000E-14.
  No threshold value for u(r) in integrations given. Defaulting to  0.1000E-05.
  No occupation type (smearing scheme) given. Defaulting to Gaussian broadening, width =  0.1000E-01 eV.
  The width will be adjusted in iteration number     2 of the first full s.c.f. cycle only.
  S.C.F. convergence parameters will be adjusted in iteration number     2 of the first full s.c.f. cycle only.
  No accuracy for occupation numbers given. Defaulting to  0.1000E-12.
  No threshold value for occupation numbers given. Defaulting to  0.0000E+00.
  No accuracy for fermi level given. Defaulting to  0.1000E-19.
  Maximum # of iterations to find E_F not set. Defaulting to  200.
  Preferred method for the eigenvalue solver ('KS_method') not specified in 'control.in'.
  Calling BLACS routine to test compilation state
  The best choice would be 'elsi', but your version of FHI-aims is compiled without ScaLAPACK support.
  Defaulting to 'lapack_fast' instead (serial solution, time will not improve with more CPUs).
  Will not use alltoall communication since running on < 1024 CPUs.
  Threshold for basis singularities not set.
  Default threshold for basis singularities:  0.1000E-04
  partition_type (choice of integration weights) for integrals was not specified.
  | Using a version of the partition function of Stratmann and coworkers ('stratmann_smoother').
  | At each grid point, the set of atoms used to build the partition table is smoothly restricted to
  | only those atoms whose free-atom density would be non-zero at that grid point.
  Partitioning for Hartree potential was not defined. Using partition_type for integrals.
  | Adjusted default value of keyword multip_moments_threshold to:       0.10000000E-11
  | This value may affect high angular momentum components of the Hartree potential in periodic systems.
  Spin handling was not defined in control.in. Defaulting to unpolarized case.
  No q(lm)/r^(l+1) cutoff set for long-range Hartree potential.
  | Using default value of  0.100000E-09 .
  | Verify using the multipole_threshold keyword.
  Defaulting to new monopole extrapolation.
  Density update method: automatic selection selected.
------------------------------------------------------------


------------------------------------------------------------
          Reading geometry description geometry.in.
------------------------------------------------------------
  Input structure read successfully.
  The structure contains       12 atoms,  and a total of         32.000 electrons.

  Input geometry:
  | No unit cell requested.
  | Atomic structure:
  |       Atom                x [A]            y [A]            z [A]
  |    1: Species C            -1.47151722       -0.97780666       -0.32417906
  |    2: Species C            -0.70017077       -0.07067700        0.57138345
  |    3: Species C             0.70017066        0.07067713        0.57138347
  |    4: Species C             1.47151723        0.97780662       -0.32417913
  |    5: Species H            -0.91659331       -1.24396306       -1.23063213
  |    6: Species H            -2.48214212       -0.62742412       -0.55384422
  |    7: Species H            -1.61662788       -1.95575816        0.21575159
  |    8: Species H            -1.30189317        0.45949966        1.32152047
  |    9: Species H             1.30189304       -0.45949946        1.32152057
  |   10: Species H             0.91659320        1.24396329       -1.23063205
  |   11: Species H             1.61662836        1.95575801        0.21575159
  |   12: Species H             2.48214197        0.62742377       -0.55384457
  |

  | The smallest distance between any two atoms is         1.09401861 AA.
  |
  | The first atom of this pair is atom number                      1 .
  | The second atom of this pair is atom number                     6 .

  Number of empty states per atom not set in control.in - providing a guess from actual geometry.
  | Total number of empty states used during s.c.f. cycle:       24
  If you use a very high smearing, use empty_states (per atom!) in control.in to increase this value.

  Structure-dependent array size parameters: 
  | Maximum number of distinct radial functions  :        9
  | Maximum number of basis functions            :       96
  | Number of Kohn-Sham states (occupied + empty):       40
------------------------------------------------------------

------------------------------------------------------------
          Preparing all fixed parts of the calculation.
------------------------------------------------------------
  Determining machine precision:
    2.225073858507201E-308
  Setting up grids for atomic and cluster calculations.

  Creating wave function, potential, and density for free atoms.

  Species: H

  List of occupied orbitals and eigenvalues:
    n    l              occ      energy [Ha]    energy [eV]
    1    0           1.0000        -0.237589        -6.4651


  Species: C

  List of occupied orbitals and eigenvalues:
    n    l              occ      energy [Ha]    energy [eV]
    1    0           2.0000       -10.038835      -273.1706
    2    0           2.0000        -0.502696       -13.6791
    2    1           2.0000        -0.191971        -5.2238

  Creating fixed part of basis set: Ionic, confined, hydrogenic.
 
  H                    hydrogenic:
 
  List of hydrogenic basis orbitals: 
    n    l      effective z      eigenvalue [eV]  inner max. [A]     outer max. [A]     outer radius [A]   
    2    0         2.100000       -14.9728           0.193243           1.317208           4.583499
    2    1         3.500000       -41.6669           0.602369           0.602369           3.723403
 
 
  C                    hydrogenic:
 
  List of hydrogenic basis orbitals: 
    n    l      effective z      eigenvalue [eV]  inner max. [A]     outer max. [A]     outer radius [A]   
    2    1         1.700000        -9.7616           1.230570           1.230570           4.607917
    3    2         6.000000       -54.4224           0.792453           0.792453           3.883070
    2    0         4.900000       -81.6679           0.082559           0.562749           3.078220
 

  Adding cutoff potential to free-atom effective potential.
  Creating atomic-like basis functions for current effective potential.

  Species H                   :

  List of atomic basis orbitals and eigenvalues:
    n    l      energy [Ha]    energy [eV]    outer radius [A]
    1    0        -0.237589        -6.4651       4.527807


  Species C                   :

  List of atomic basis orbitals and eigenvalues:
    n    l      energy [Ha]    energy [eV]    outer radius [A]
    1    0       -10.038835      -273.1706       1.934409
    2    0        -0.502696       -13.6791       4.496620
    2    1        -0.191971        -5.2238       4.551928

  Assembling full basis from fixed parts.
  | Species H :   atomic orbital   1 s accepted.
  | Species H :    hydro orbital   2 s accepted.
  | Species H :    hydro orbital   2 p accepted.
  | Species C :   atomic orbital   1 s accepted.
  | Species C :    hydro orbital   2 s accepted.
  | Species C :   atomic orbital   2 s accepted.
  | Species C :   atomic orbital   2 p accepted.
  | Species C :    hydro orbital   2 p accepted.
  | Species C :    hydro orbital   3 d accepted.
 
  Basis size parameters after reduction:
  | Total number of radial functions:        9
  | Total number of basis functions :       96
 
  Per-task memory consumption for arrays in subroutine allocate_ext:
  |           2.209696MB.
  Testing on-site integration grid accuracy.
  |  Species  Function  <phi|h_atom|phi> (log., in eV)  <phi|h_atom|phi> (rad., in eV)
           1        1                 -6.4663192853                 -6.4651273558
           1        2                 13.7111246313                 13.7170609718
           1        3                 25.2673269279                 25.2674696378
           2        4               -273.1705927641               -273.1705631568
           2        5                -10.7109323383                -10.7107120029
           2        6                 17.4381822266                 17.4352413244
           2        7                 -5.2255326521                 -5.2270484734
           2        8                  8.6835629259                  8.6603288385
           2        9                 27.4952418996                 27.4953360207

  Preparing densities etc. for the partition functions (integrals / Hartree potential).

  Preparations completed.
  max(cpu_time)          :      0.128 s.
  Wall clock time (cpu1) :      0.128 s.
------------------------------------------------------------

------------------------------------------------------------
          Begin self-consistency loop: Initialization.

          Date     :  20180215, Time     :  214351.176
------------------------------------------------------------

  Initializing index lists of integration centers etc. from given atomic structure:
  | Number of centers in hartree potential         :        12
  | Number of centers in hartree multipole         :        12
  | Number of centers in electron density summation:        12
  | Number of centers in basis integrals           :        12
  | Number of centers in integrals                 :        12
  | Number of centers in hamiltonian               :        12
  Partitioning the integration grid into batches with parallel hashing+maxmin method.
  | Number of batches:      697
  | Maximal batch size:     197
  | Minimal batch size:      49
  | Average batch size:      87.438
  | Standard deviation of batch sizes:      20.728

  Integration load balanced across     8 MPI tasks.
  Work distribution over tasks is as follows:
  Task     0 has       7579 integration points.
  Task     1 has       7628 integration points.
  Task     2 has       7579 integration points.
  Task     3 has       7587 integration points.
  Task     4 has       7652 integration points.
  Task     5 has       7624 integration points.
  Task     6 has       7585 integration points.
  Task     7 has       7710 integration points.
  Initializing partition tables, free-atom densities, potentials, etc. across the integration grid (initialize_grid_storage).
  | initialize_grid_storage: Actual outermost partition radius vs. multipole_radius_free
  | (-- VB: in principle, multipole_radius_free should be larger, hence this output)
  | Species        1: Confinement radius =              4.999999999999999 AA, multipole_radius_free =              5.054417573612229 AA.
  | Species        1: outer_partition_radius set to              5.054417573612229 AA .
  | Species        2: Confinement radius =              4.999999999999999 AA, multipole_radius_free =              5.019602836301480 AA.
  | Species        2: outer_partition_radius set to              5.019602836301480 AA .
  | Original list of interatomic distances with          12 x         12 entries is created.
  | Net number of integration points:    60944
  | of which are non-zero points    :    52536
  Renormalizing the initial density to the exact electron count on the 3D integration grid.
  | Initial density: Formal number of electrons (from input files) :      32.0000000000
  | Integrated number of electrons on 3D grid     :      31.9998895094
  | Charge integration error                      :      -0.0001104906
  | Normalization factor for density and gradient :       1.0000034528
  Obtaining max. number of non-zero basis functions in each batch (get_n_compute_maxes).
  | Maximal number of non-zero basis functions:       96 in task     0
  | Maximal number of non-zero basis functions:       96 in task     1
  | Maximal number of non-zero basis functions:       96 in task     2
  | Maximal number of non-zero basis functions:       96 in task     3
  | Maximal number of non-zero basis functions:       96 in task     4
  | Maximal number of non-zero basis functions:       96 in task     5
  | Maximal number of non-zero basis functions:       96 in task     6
  | Maximal number of non-zero basis functions:       96 in task     7
  Selecting the method for density update.
  Loop over occupied states selected for charge density update.
  Allocating        0.031 MB for KS_eigenvector
  Integrating Hamiltonian matrix: batch-based integration.
  Time summed over all CPUs for integration: real work        1.324 s, elapsed        1.576 s
  Integrating overlap matrix.
  Time summed over all CPUs for integration: real work        0.490 s, elapsed        0.516 s

  Updating Kohn-Sham eigenvalues, eigenvectors, occupation numbers, and Fermi level.
  Solving generalized eigenproblem
  Updating Kohn-Sham eigenvalues and eigenfunctions.
  Transforming overlap matrix and checking for singularities.
  Overlap matrix is nonsingular:
  | Lowest eigenvalue:  0.363819E-02
  Solving real generalised eigenvalue problem by standard LAPACK (fast)

  Obtaining occupation numbers and chemical potential using ELSI.
  | Chemical potential (Fermi level):    -7.96881275eV
  Writing Kohn-Sham eigenvalues.

  State    Occupation    Eigenvalue [Ha]    Eigenvalue [eV]
      1       2.00000         -10.166072         -276.63290
      2       2.00000         -10.166072         -276.63290
      3       2.00000         -10.141326         -275.95953
      4       2.00000         -10.140966         -275.94972
      5       2.00000          -0.911730          -24.80943
      6       2.00000          -0.854546          -23.25339
      7       2.00000          -0.772523          -21.02141
      8       2.00000          -0.661111          -17.98976
      9       2.00000          -0.594522          -16.17777
     10       2.00000          -0.565324          -15.38326
     11       2.00000          -0.554637          -15.09243
     12       2.00000          -0.527467          -14.35311
     13       2.00000          -0.524563          -14.27409
     14       2.00000          -0.505488          -13.75503
     15       2.00000          -0.489603          -13.32278
     16       2.00000          -0.296093           -8.05709
     17       0.00000          -0.264016           -7.18425
     18       0.00000          -0.032315           -0.87933
     19       0.00000          -0.009788           -0.26634
     20       0.00000          -0.000754           -0.02052
     21       0.00000           0.000540            0.01471
     22       0.00000           0.010132            0.27570
     23       0.00000           0.010571            0.28766
     24       0.00000           0.030369            0.82639
     25       0.00000           0.049564            1.34870
     26       0.00000           0.071408            1.94312
     27       0.00000           0.089941            2.44743
     28       0.00000           0.164606            4.47915
     29       0.00000           0.195157            5.31048
     30       0.00000           0.219425            5.97085
     31       0.00000           0.232926            6.33824
     32       0.00000           0.247949            6.74703
     33       0.00000           0.249300            6.78381
     34       0.00000           0.280202            7.62468
     35       0.00000           0.314165            8.54888
     36       0.00000           0.358399            9.75254
     37       0.00000           0.399521           10.87151
     38       0.00000           0.440850           11.99614
     39       0.00000           0.460745           12.53752
     40       0.00000           0.543865           14.79933

  Highest occupied state (VBM) at     -8.05709217 eV
  | Occupation number:      2.00000000

  Lowest unoccupied state (CBM) at    -7.18424688 eV
  | Occupation number:      0.00000000

  Overall HOMO-LUMO gap:      0.87284529 eV.
  Calculating total energy contributions from superposition of free atom densities.

  Total energy components:
  | Sum of eigenvalues            :         -95.74408774 Ha       -2605.32918502 eV
  | XC energy correction          :         -23.63221378 Ha        -643.06525562 eV
  | XC potential correction       :          30.35595425 Ha         826.02754285 eV
  | Free-atom electrostatic energy:         -68.18279010 Ha       -1855.34811765 eV
  | Hartree energy correction     :           0.00000000 Ha           0.00000000 eV
  | vdW energy correction         :           0.00000000 Ha           0.00000000 eV
  | Entropy correction            :          -0.00000000 Ha          -0.00000000 eV
  | ---------------------------
  | Total energy                  :        -157.20313736 Ha       -4277.71501543 eV
  | Total energy, T -> 0          :        -157.20313736 Ha       -4277.71501543 eV  <-- do not rely on this value for anything but (periodic) metals
  | Electronic free energy        :        -157.20313736 Ha       -4277.71501543 eV

  Derived energy quantities:
  | Kinetic energy                :         154.25280563 Ha        4197.43240428 eV
  | Electrostatic energy          :        -287.82372922 Ha       -7832.08216409 eV
  | Energy correction for multipole
  | error in Hartree potential    :           0.00000000 Ha           0.00000000 eV
  | Sum of eigenvalues per atom                           :        -217.11076542 eV
  | Total energy (T->0) per atom                          :        -356.47625129 eV  <-- do not rely on this value for anything but (periodic) metals
  | Electronic free energy per atom                       :        -356.47625129 eV
  Initialize hartree_potential_storage
  Max. number of atoms included in rho_multipole:           12

  End scf initialization - timings             :  max(cpu_time)    wall_clock(cpu1)
  | Time for scf. initialization               :        0.460 s           0.463 s
  | Boundary condition initialization          :        0.000 s           0.000 s
  | Integration                                :        0.280 s           0.277 s
  | Solution of K.-S. eqns.                    :        0.012 s           0.011 s
  | Grid partitioning                          :        0.068 s           0.065 s
  | Preloading free-atom quantities on grid    :        0.004 s           0.003 s
  | Free-atom superposition energy             :        0.024 s           0.023 s
  | Total energy evaluation                    :        0.004 s           0.000 s

  Partial memory accounting:
  | Current value for overall tracked memory usage on task 0  :           0.179 MB
  | Peak value for overall tracked memory usage on task 0     :           0.635 MB after allocating wave
  | Largest tracked array allocation on task 0 so far         :           0.151 MB  when allocating H_times_psi
  Note:  These values currently only include a subset of arrays which are explicitly tracked.
  The "true" memory usage will be greater.
------------------------------------------------------------

------------------------------------------------------------
          Begin self-consistency iteration #    1

  Date     :  20180215, Time     :  214351.640
------------------------------------------------------------
  Evaluating new KS density.
  Integration grid: deviation in total charge (<rho> - N_e) =   2.131628E-14
  Pulay mixing of updated and previous charge densities.

  Evaluating partitioned Hartree potential by multipole expansion.
  | Analytical far-field extrapolation by fixed multipoles:
  | Hartree multipole sum: apparent total charge =  -0.139188E-03
  Summing up the Hartree potential.
  Time summed over all CPUs for potential: real work        1.260 s, elapsed        1.275 s
  | RMS charge density error from multipole expansion :   0.125172E-02

  Integrating Hamiltonian matrix: batch-based integration.
  Time summed over all CPUs for integration: real work        1.268 s, elapsed        1.299 s

  Updating Kohn-Sham eigenvalues, eigenvectors, occupation numbers, and Fermi level.
  Solving generalized eigenproblem
  Updating Kohn-Sham eigenvalues and eigenfunctions.
  Solving real generalised eigenvalue problem by standard LAPACK (fast)

  Obtaining occupation numbers and chemical potential using ELSI.
  | Chemical potential (Fermi level):    -7.56561480eV
  Writing Kohn-Sham eigenvalues.

  State    Occupation    Eigenvalue [Ha]    Eigenvalue [eV]
      1       2.00000         -10.131479         -275.69156
      2       2.00000         -10.131479         -275.69156
      3       2.00000         -10.113815         -275.21092
      4       2.00000         -10.113454         -275.20109
      5       2.00000          -0.892700          -24.29160
      6       2.00000          -0.835668          -22.73969
      7       2.00000          -0.754271          -20.52477
      8       2.00000          -0.644765          -17.54494
      9       2.00000          -0.577896          -15.72536
     10       2.00000          -0.547952          -14.91053
     11       2.00000          -0.535467          -14.57080
     12       2.00000          -0.510980          -13.90448
     13       2.00000          -0.508200          -13.82883
     14       2.00000          -0.489023          -13.30700
     15       2.00000          -0.473455          -12.88337
     16       2.00000          -0.280342           -7.62849
     17       0.00000          -0.248234           -6.75479
     18       0.00000          -0.024194           -0.65836
     19       0.00000          -0.001263           -0.03436
     20       0.00000           0.008203            0.22321
     21       0.00000           0.010640            0.28952
     22       0.00000           0.021375            0.58163
     23       0.00000           0.021556            0.58657
     24       0.00000           0.040833            1.11111
     25       0.00000           0.059682            1.62404
     26       0.00000           0.084568            2.30121
     27       0.00000           0.103322            2.81153
     28       0.00000           0.176627            4.80625
     29       0.00000           0.206246            5.61223
     30       0.00000           0.230732            6.27852
     31       0.00000           0.242192            6.59039
     32       0.00000           0.261870            7.12585
     33       0.00000           0.262931            7.15473
     34       0.00000           0.291045            7.91974
     35       0.00000           0.325006            8.84387
     36       0.00000           0.369169           10.04560
     37       0.00000           0.410221           11.16267
     38       0.00000           0.451827           12.29484
     39       0.00000           0.471853           12.83977
     40       0.00000           0.557007           15.15692

  Highest occupied state (VBM) at     -7.62849362 eV
  | Occupation number:      2.00000000

  Lowest unoccupied state (CBM) at    -6.75478602 eV
  | Occupation number:      0.00000000

  Overall HOMO-LUMO gap:      0.87370760 eV.

  Total energy components:
  | Sum of eigenvalues            :         -95.08189430 Ha       -2587.30998489 eV
  | XC energy correction          :         -23.69128988 Ha        -644.67279826 eV
  | XC potential correction       :          30.43251873 Ha         828.11096852 eV
  | Free-atom electrostatic energy:         -68.18279010 Ha       -1855.34811765 eV
  | Hartree energy correction     :          -0.63299187 Ha         -17.22458505 eV
  | vdW energy correction         :           0.00000000 Ha           0.00000000 eV
  | Entropy correction            :          -0.00000000 Ha          -0.00000000 eV
  | ---------------------------
  | Total energy                  :        -157.15644742 Ha       -4276.44451733 eV
  | Total energy, T -> 0          :        -157.15644742 Ha       -4276.44451733 eV  <-- do not rely on this value for anything but (periodic) metals
  | Electronic free energy        :        -157.15644742 Ha       -4276.44451733 eV

  Derived energy quantities:
  | Kinetic energy                :         154.56786714 Ha        4206.00566409 eV
  | Electrostatic energy          :        -288.03302468 Ha       -7837.77738316 eV
  | Energy correction for multipole
  | error in Hartree potential    :           0.00224689 Ha           0.06114086 eV
  | Sum of eigenvalues per atom                           :        -215.60916541 eV
  | Total energy (T->0) per atom                          :        -356.37037644 eV  <-- do not rely on this value for anything but (periodic) metals
  | Electronic free energy per atom                       :        -356.37037644 eV

  Self-consistency convergence accuracy:
  | Change of charge density      :  0.4755E+00
  | Change of sum of eigenvalues  :  0.1802E+02 eV
  | Change of total energy        :  0.1270E+01 eV

  End self-consistency iteration #     1       :  max(cpu_time)    wall_clock(cpu1)
  | Time for this iteration                    :        0.528 s           0.525 s
  | Charge density update                      :        0.172 s           0.167 s
  | Density mixing                             :        0.004 s           0.002 s
  | Hartree multipole update                   :        0.012 s           0.010 s
  | Hartree multipole summation                :        0.172 s           0.169 s
  | Integration                                :        0.172 s           0.172 s
  | Solution of K.-S. eqns.                    :        0.004 s           0.002 s
  | Total energy evaluation                    :        0.000 s           0.001 s

  Partial memory accounting:
  | Current value for overall tracked memory usage on task 0  :           0.179 MB
  | Peak value for overall tracked memory usage on task 0     :           0.784 MB after allocating gradient_basis_wave
  | Largest tracked array allocation on task 0 so far         :           0.454 MB  when allocating gradient_basis_wave
  Note:  These values currently only include a subset of arrays which are explicitly tracked.
  The "true" memory usage will be greater.
------------------------------------------------------------

------------------------------------------------------------
          Begin self-consistency iteration #    2

  Date     :  20180215, Time     :  214352.166
------------------------------------------------------------
  Evaluating new KS density.
  Integration grid: deviation in total charge (<rho> - N_e) =   0.000000E+00
  Pulay mixing of updated and previous charge densities.

  Evaluating partitioned Hartree potential by multipole expansion.
  | Analytical far-field extrapolation by fixed multipoles:
  | Hartree multipole sum: apparent total charge =  -0.384363E-03
  Summing up the Hartree potential.
  Time summed over all CPUs for potential: real work        1.306 s, elapsed        1.577 s
  | RMS charge density error from multipole expansion :   0.120527E-01

  Integrating Hamiltonian matrix: batch-based integration.
  Time summed over all CPUs for integration: real work        1.259 s, elapsed        1.306 s

  Updating Kohn-Sham eigenvalues, eigenvectors, occupation numbers, and Fermi level.
  Solving generalized eigenproblem
  Updating Kohn-Sham eigenvalues and eigenfunctions.
  Solving real generalised eigenvalue problem by standard LAPACK (fast)

  Obtaining occupation numbers and chemical potential using ELSI.
  | Chemical potential (Fermi level):    -3.73574600eV
  Highest occupied state (VBM) at     -4.19411904 eV
  | Occupation number:      2.00000000

  Lowest unoccupied state (CBM) at    -3.30911551 eV
  | Occupation number:      0.00000000

  Overall HOMO-LUMO gap:      0.88500354 eV.

  Checking to see if s.c.f. parameters should be adjusted.
  The system likely has a gap. Increased the default Pulay mixing parameter (charge_mix_param). Value:   0.200000 .
  Kept the default occupation width. Value:   0.010000 eV.

  Total energy components:
  | Sum of eigenvalues            :         -89.68724869 Ha       -2440.51420891 eV
  | XC energy correction          :         -24.22058209 Ha        -659.07557205 eV
  | XC potential correction       :          31.11819539 Ha         846.76917959 eV
  | Free-atom electrostatic energy:         -68.18279010 Ha       -1855.34811765 eV
  | Hartree energy correction     :          -5.99535249 Ha        -163.14184192 eV
  | vdW energy correction         :           0.00000000 Ha           0.00000000 eV
  | Entropy correction            :           0.00000000 Ha           0.00000000 eV
  | ---------------------------
  | Total energy                  :        -156.96777799 Ha       -4271.31056093 eV
  | Total energy, T -> 0          :        -156.96777799 Ha       -4271.31056093 eV  <-- do not rely on this value for anything but (periodic) metals
  | Electronic free energy        :        -156.96777799 Ha       -4271.31056093 eV

  Derived energy quantities:
  | Kinetic energy                :         156.83981805 Ha        4267.82859394 eV
  | Electrostatic energy          :        -289.58701395 Ha       -7880.06358283 eV
  | Energy correction for multipole
  | error in Hartree potential    :           0.02085779 Ha           0.56756926 eV
  | Sum of eigenvalues per atom                           :        -203.37618408 eV
  | Total energy (T->0) per atom                          :        -355.94254674 eV  <-- do not rely on this value for anything but (periodic) metals
  | Electronic free energy per atom                       :        -355.94254674 eV

  Self-consistency convergence accuracy:
  | Change of charge density      :  0.4371E+00
  | Change of sum of eigenvalues  :  0.1468E+03 eV
  | Change of total energy        :  0.5134E+01 eV

  End self-consistency iteration #     2       :  max(cpu_time)    wall_clock(cpu1)
  | Time for this iteration                    :        0.564 s           0.565 s
  | Charge density update                      :        0.168 s           0.166 s
  | Density mixing                             :        0.004 s           0.003 s
  | Hartree multipole update                   :        0.012 s           0.010 s
  | Hartree multipole summation                :        0.212 s           0.209 s
  | Integration                                :        0.172 s           0.173 s
  | Solution of K.-S. eqns.                    :        0.004 s           0.002 s
  | Total energy evaluation                    :        0.000 s           0.001 s

  Partial memory accounting:
  | Current value for overall tracked memory usage on task 0  :           0.180 MB
  | Peak value for overall tracked memory usage on task 0     :           0.784 MB after allocating gradient_basis_wave
  | Largest tracked array allocation on task 0 so far         :           0.454 MB  when allocating gradient_basis_wave
  Note:  These values currently only include a subset of arrays which are explicitly tracked.
  The "true" memory usage will be greater.
------------------------------------------------------------

------------------------------------------------------------
          Begin self-consistency iteration #    3

  Date     :  20180215, Time     :  214352.732
------------------------------------------------------------
  Evaluating new KS density.
  Integration grid: deviation in total charge (<rho> - N_e) =  -1.776357E-14
  Pulay mixing of updated and previous charge densities.

  Evaluating partitioned Hartree potential by multipole expansion.
  | Analytical far-field extrapolation by fixed multipoles:
  | Hartree multipole sum: apparent total charge =  -0.387624E-03
  Summing up the Hartree potential.
  Time summed over all CPUs for potential: real work        1.259 s, elapsed        1.282 s
  | RMS charge density error from multipole expansion :   0.153539E-01

  Integrating Hamiltonian matrix: batch-based integration.
  Time summed over all CPUs for integration: real work        1.268 s, elapsed        1.306 s

  Updating Kohn-Sham eigenvalues, eigenvectors, occupation numbers, and Fermi level.
  Solving generalized eigenproblem
  Updating Kohn-Sham eigenvalues and eigenfunctions.
  Solving real generalised eigenvalue problem by standard LAPACK (fast)

  Obtaining occupation numbers and chemical potential using ELSI.
  | Chemical potential (Fermi level):    -4.09894029eV
  Highest occupied state (VBM) at     -4.71350208 eV
  | Occupation number:      2.00000000

  Lowest unoccupied state (CBM) at    -3.83691632 eV
  | Occupation number:      0.00000000

  Overall HOMO-LUMO gap:      0.87658576 eV.

  Total energy components:
  | Sum of eigenvalues            :         -90.48272109 Ha       -2462.16011409 eV
  | XC energy correction          :         -24.19234749 Ha        -658.30726963 eV
  | XC potential correction       :          31.07809984 Ha         845.67812426 eV
  | Free-atom electrostatic energy:         -68.18279010 Ha       -1855.34811765 eV
  | Hartree energy correction     :          -5.18130514 Ha        -140.99048644 eV
  | vdW energy correction         :           0.00000000 Ha           0.00000000 eV
  | Entropy correction            :          -0.00000000 Ha          -0.00000000 eV
  | ---------------------------
  | Total energy                  :        -156.96106398 Ha       -4271.12786355 eV
  | Total energy, T -> 0          :        -156.96106398 Ha       -4271.12786355 eV  <-- do not rely on this value for anything but (periodic) metals
  | Electronic free energy        :        -156.96106398 Ha       -4271.12786355 eV

  Derived energy quantities:
  | Kinetic energy                :         156.24226877 Ha        4251.56845072 eV
  | Electrostatic energy          :        -289.01098526 Ha       -7864.38904464 eV
  | Energy correction for multipole
  | error in Hartree potential    :           0.02571756 Ha           0.69981047 eV
  | Sum of eigenvalues per atom                           :        -205.18000951 eV
  | Total energy (T->0) per atom                          :        -355.92732196 eV  <-- do not rely on this value for anything but (periodic) metals
  | Electronic free energy per atom                       :        -355.92732196 eV

  Self-consistency convergence accuracy:
  | Change of charge density      :  0.2089E+00
  | Change of sum of eigenvalues  : -0.2165E+02 eV
  | Change of total energy        :  0.1827E+00 eV

  End self-consistency iteration #     3       :  max(cpu_time)    wall_clock(cpu1)
  | Time for this iteration                    :        0.528 s           0.527 s
  | Charge density update                      :        0.168 s           0.167 s
  | Density mixing                             :        0.004 s           0.004 s
  | Hartree multipole update                   :        0.012 s           0.010 s
  | Hartree multipole summation                :        0.172 s           0.170 s
  | Integration                                :        0.176 s           0.173 s
  | Solution of K.-S. eqns.                    :        0.004 s           0.002 s
  | Total energy evaluation                    :        0.000 s           0.001 s

  Partial memory accounting:
  | Current value for overall tracked memory usage on task 0  :           0.180 MB
  | Peak value for overall tracked memory usage on task 0     :           0.785 MB after allocating gradient_basis_wave
  | Largest tracked array allocation on task 0 so far         :           0.454 MB  when allocating gradient_basis_wave
  Note:  These values currently only include a subset of arrays which are explicitly tracked.
  The "true" memory usage will be greater.
------------------------------------------------------------

------------------------------------------------------------
          Begin self-consistency iteration #    4

  Date     :  20180215, Time     :  214353.260
------------------------------------------------------------
  Evaluating new KS density.
  Integration grid: deviation in total charge (<rho> - N_e) =   2.131628E-14
  Pulay mixing of updated and previous charge densities.

  Evaluating partitioned Hartree potential by multipole expansion.
  | Analytical far-field extrapolation by fixed multipoles:
  | Hartree multipole sum: apparent total charge =  -0.460432E-03
  Summing up the Hartree potential.
  Time summed over all CPUs for potential: real work        1.284 s, elapsed        1.327 s
  | RMS charge density error from multipole expansion :   0.205820E-01

  Integrating Hamiltonian matrix: batch-based integration.
  Time summed over all CPUs for integration: real work        1.264 s, elapsed        1.303 s

  Updating Kohn-Sham eigenvalues, eigenvectors, occupation numbers, and Fermi level.
  Solving generalized eigenproblem
  Updating Kohn-Sham eigenvalues and eigenfunctions.
  Solving real generalised eigenvalue problem by standard LAPACK (fast)

  Obtaining occupation numbers and chemical potential using ELSI.
  | Chemical potential (Fermi level):    -4.05273565eV
  Highest occupied state (VBM) at     -4.12659717 eV
  | Occupation number:      2.00000000

  Lowest unoccupied state (CBM) at    -3.25383015 eV
  | Occupation number:      0.00000000

  Overall HOMO-LUMO gap:      0.87276702 eV.

  Total energy components:
  | Sum of eigenvalues            :         -89.63533243 Ha       -2439.10149546 eV
  | XC energy correction          :         -24.32159816 Ha        -661.82435921 eV
  | XC potential correction       :          31.24339466 Ha         850.17602529 eV
  | Free-atom electrostatic energy:         -68.18279010 Ha       -1855.34811765 eV
  | Hartree energy correction     :          -6.05525275 Ha        -164.77181083 eV
  | vdW energy correction         :           0.00000000 Ha           0.00000000 eV
  | Entropy correction            :          -0.00000000 Ha          -0.00000000 eV
  | ---------------------------
  | Total energy                  :        -156.95157877 Ha       -4270.86975786 eV
  | Total energy, T -> 0          :        -156.95157877 Ha       -4270.86975786 eV  <-- do not rely on this value for anything but (periodic) metals
  | Electronic free energy        :        -156.95157877 Ha       -4270.86975786 eV

  Derived energy quantities:
  | Kinetic energy                :         156.29290329 Ha        4252.94628609 eV
  | Electrostatic energy          :        -288.92288390 Ha       -7861.99168473 eV
  | Energy correction for multipole
  | error in Hartree potential    :           0.03291270 Ha           0.89560022 eV
  | Sum of eigenvalues per atom                           :        -203.25845795 eV
  | Total energy (T->0) per atom                          :        -355.90581315 eV  <-- do not rely on this value for anything but (periodic) metals
  | Electronic free energy per atom                       :        -355.90581315 eV

  Self-consistency convergence accuracy:
  | Change of charge density      :  0.1217E+00
  | Change of sum of eigenvalues  :  0.2306E+02 eV
  | Change of total energy        :  0.2581E+00 eV

  End self-consistency iteration #     4       :  max(cpu_time)    wall_clock(cpu1)
  | Time for this iteration                    :        0.540 s           0.537 s
  | Charge density update                      :        0.172 s           0.169 s
  | Density mixing                             :        0.008 s           0.006 s
  | Hartree multipole update                   :        0.012 s           0.009 s
  | Hartree multipole summation                :        0.176 s           0.177 s
  | Integration                                :        0.176 s           0.173 s
  | Solution of K.-S. eqns.                    :        0.004 s           0.002 s
  | Total energy evaluation                    :        0.000 s           0.001 s

  Partial memory accounting:
  | Current value for overall tracked memory usage on task 0  :           0.180 MB
  | Peak value for overall tracked memory usage on task 0     :           0.785 MB after allocating gradient_basis_wave
  | Largest tracked array allocation on task 0 so far         :           0.454 MB  when allocating gradient_basis_wave
  Note:  These values currently only include a subset of arrays which are explicitly tracked.
  The "true" memory usage will be greater.
------------------------------------------------------------

------------------------------------------------------------
          Begin self-consistency iteration #    5

  Date     :  20180215, Time     :  214353.798
------------------------------------------------------------
  Evaluating new KS density.
  Integration grid: deviation in total charge (<rho> - N_e) =   7.105427E-15
  Pulay mixing of updated and previous charge densities.

  Evaluating partitioned Hartree potential by multipole expansion.
  | Analytical far-field extrapolation by fixed multipoles:
  | Hartree multipole sum: apparent total charge =  -0.484763E-03
  Summing up the Hartree potential.
  Time summed over all CPUs for potential: real work        1.266 s, elapsed        1.289 s
  | RMS charge density error from multipole expansion :   0.212349E-01

  Integrating Hamiltonian matrix: batch-based integration.
  Time summed over all CPUs for integration: real work        1.271 s, elapsed        1.323 s

  Updating Kohn-Sham eigenvalues, eigenvectors, occupation numbers, and Fermi level.
  Solving generalized eigenproblem
  Updating Kohn-Sham eigenvalues and eigenfunctions.
  Solving real generalised eigenvalue problem by standard LAPACK (fast)

  Obtaining occupation numbers and chemical potential using ELSI.
  | Chemical potential (Fermi level):    -3.30258793eV
  Highest occupied state (VBM) at     -3.89093407 eV
  | Occupation number:      2.00000000

  Lowest unoccupied state (CBM) at    -3.01885302 eV
  | Occupation number:      0.00000000

  Overall HOMO-LUMO gap:      0.87208105 eV.

  Total energy components:
  | Sum of eigenvalues            :         -89.39498375 Ha       -2432.56127528 eV
  | XC energy correction          :         -24.34261636 Ha        -662.39629339 eV
  | XC potential correction       :          31.27068041 Ha         850.91850828 eV
  | Free-atom electrostatic energy:         -68.18279010 Ha       -1855.34811765 eV
  | Hartree energy correction     :          -6.30076111 Ha        -171.45243323 eV
  | vdW energy correction         :           0.00000000 Ha           0.00000000 eV
  | Entropy correction            :           0.00000000 Ha           0.00000000 eV
  | ---------------------------
  | Total energy                  :        -156.95047091 Ha       -4270.83961127 eV
  | Total energy, T -> 0          :        -156.95047091 Ha       -4270.83961127 eV  <-- do not rely on this value for anything but (periodic) metals
  | Electronic free energy        :        -156.95047091 Ha       -4270.83961127 eV

  Derived energy quantities:
  | Kinetic energy                :         156.26674024 Ha        4252.23435314 eV
  | Electrostatic energy          :        -288.87459479 Ha       -7860.67767101 eV
  | Energy correction for multipole
  | error in Hartree potential    :           0.03265957 Ha           0.88871202 eV
  | Sum of eigenvalues per atom                           :        -202.71343961 eV
  | Total energy (T->0) per atom                          :        -355.90330094 eV  <-- do not rely on this value for anything but (periodic) metals
  | Electronic free energy per atom                       :        -355.90330094 eV

  Self-consistency convergence accuracy:
  | Change of charge density      :  0.3291E-01
  | Change of sum of eigenvalues  :  0.6540E+01 eV
  | Change of total energy        :  0.3015E-01 eV

  End self-consistency iteration #     5       :  max(cpu_time)    wall_clock(cpu1)
  | Time for this iteration                    :        0.536 s           0.537 s
  | Charge density update                      :        0.168 s           0.167 s
  | Density mixing                             :        0.008 s           0.007 s
  | Hartree multipole update                   :        0.012 s           0.010 s
  | Hartree multipole summation                :        0.172 s           0.171 s
  | Integration                                :        0.176 s           0.176 s
  | Solution of K.-S. eqns.                    :        0.004 s           0.004 s
  | Total energy evaluation                    :        0.000 s           0.000 s

  Partial memory accounting:
  | Current value for overall tracked memory usage on task 0  :           0.180 MB
  | Peak value for overall tracked memory usage on task 0     :           0.785 MB after allocating gradient_basis_wave
  | Largest tracked array allocation on task 0 so far         :           0.454 MB  when allocating gradient_basis_wave
  Note:  These values currently only include a subset of arrays which are explicitly tracked.
  The "true" memory usage will be greater.
------------------------------------------------------------

------------------------------------------------------------
          Begin self-consistency iteration #    6

  Date     :  20180215, Time     :  214354.335
------------------------------------------------------------
  Evaluating new KS density.
  Integration grid: deviation in total charge (<rho> - N_e) =   7.105427E-15
  Pulay mixing of updated and previous charge densities.

  Evaluating partitioned Hartree potential by multipole expansion.
  | Analytical far-field extrapolation by fixed multipoles:
  | Hartree multipole sum: apparent total charge =  -0.504407E-03
  Summing up the Hartree potential.
  Time summed over all CPUs for potential: real work        1.272 s, elapsed        1.326 s
  | RMS charge density error from multipole expansion :   0.215690E-01

  Integrating Hamiltonian matrix: batch-based integration.
  Time summed over all CPUs for integration: real work        1.269 s, elapsed        1.332 s

  Updating Kohn-Sham eigenvalues, eigenvectors, occupation numbers, and Fermi level.
  Solving generalized eigenproblem
  Updating Kohn-Sham eigenvalues and eigenfunctions.
  Solving real generalised eigenvalue problem by standard LAPACK (fast)

  Obtaining occupation numbers and chemical potential using ELSI.
  | Chemical potential (Fermi level):    -3.20480052eV
  Highest occupied state (VBM) at     -3.79472021 eV
  | Occupation number:      2.00000000

  Lowest unoccupied state (CBM) at    -2.92404942 eV
  | Occupation number:      0.00000000

  Overall HOMO-LUMO gap:      0.87067079 eV.

  Total energy components:
  | Sum of eigenvalues            :         -89.28564707 Ha       -2429.58607269 eV
  | XC energy correction          :         -24.35312718 Ha        -662.68230753 eV
  | XC potential correction       :          31.28435454 Ha         851.29060009 eV
  | Free-atom electrostatic energy:         -68.18279010 Ha       -1855.34811765 eV
  | Hartree energy correction     :          -6.41298483 Ha        -174.50619606 eV
  | vdW energy correction         :           0.00000000 Ha           0.00000000 eV
  | Entropy correction            :           0.00000000 Ha           0.00000000 eV
  | ---------------------------
  | Total energy                  :        -156.95019465 Ha       -4270.83209385 eV
  | Total energy, T -> 0          :        -156.95019465 Ha       -4270.83209385 eV  <-- do not rely on this value for anything but (periodic) metals
  | Electronic free energy        :        -156.95019465 Ha       -4270.83209385 eV

  Derived energy quantities:
  | Kinetic energy                :         156.20935107 Ha        4250.67271433 eV
  | Electrostatic energy          :        -288.80641853 Ha       -7858.82250064 eV
  | Energy correction for multipole
  | error in Hartree potential    :           0.03179877 Ha           0.86528861 eV
  | Sum of eigenvalues per atom                           :        -202.46550606 eV
  | Total energy (T->0) per atom                          :        -355.90267449 eV  <-- do not rely on this value for anything but (periodic) metals
  | Electronic free energy per atom                       :        -355.90267449 eV

  Self-consistency convergence accuracy:
  | Change of charge density      :  0.1666E-01
  | Change of sum of eigenvalues  :  0.2975E+01 eV
  | Change of total energy        :  0.7517E-02 eV

  End self-consistency iteration #     6       :  max(cpu_time)    wall_clock(cpu1)
  | Time for this iteration                    :        0.552 s           0.551 s
  | Charge density update                      :        0.176 s           0.176 s
  | Density mixing                             :        0.012 s           0.008 s
  | Hartree multipole update                   :        0.012 s           0.010 s
  | Hartree multipole summation                :        0.176 s           0.176 s
  | Integration                                :        0.176 s           0.177 s
  | Solution of K.-S. eqns.                    :        0.004 s           0.002 s
  | Total energy evaluation                    :        0.000 s           0.001 s

  Partial memory accounting:
  | Current value for overall tracked memory usage on task 0  :           0.180 MB
  | Peak value for overall tracked memory usage on task 0     :           0.785 MB after allocating gradient_basis_wave
  | Largest tracked array allocation on task 0 so far         :           0.454 MB  when allocating gradient_basis_wave
  Note:  These values currently only include a subset of arrays which are explicitly tracked.
  The "true" memory usage will be greater.
------------------------------------------------------------

------------------------------------------------------------
          Begin self-consistency iteration #    7

  Date     :  20180215, Time     :  214354.887
------------------------------------------------------------
  Evaluating new KS density.
  Integration grid: deviation in total charge (<rho> - N_e) =   0.000000E+00
  Pulay mixing of updated and previous charge densities.

  Evaluating partitioned Hartree potential by multipole expansion.
  | Analytical far-field extrapolation by fixed multipoles:
  | Hartree multipole sum: apparent total charge =  -0.507379E-03
  Summing up the Hartree potential.
  Time summed over all CPUs for potential: real work        1.267 s, elapsed        1.290 s
  | RMS charge density error from multipole expansion :   0.215554E-01

  Integrating Hamiltonian matrix: batch-based integration.
  Time summed over all CPUs for integration: real work        1.260 s, elapsed        1.303 s

  Updating Kohn-Sham eigenvalues, eigenvectors, occupation numbers, and Fermi level.
  Solving generalized eigenproblem
  Updating Kohn-Sham eigenvalues and eigenfunctions.
  Solving real generalised eigenvalue problem by standard LAPACK (fast)

  Obtaining occupation numbers and chemical potential using ELSI.
  | Chemical potential (Fermi level):    -3.18525019eV
  Highest occupied state (VBM) at     -3.76982539 eV
  | Occupation number:      2.00000000

  Lowest unoccupied state (CBM) at    -2.89925584 eV
  | Occupation number:      0.00000000

  Overall HOMO-LUMO gap:      0.87056955 eV.

  Total energy components:
  | Sum of eigenvalues            :         -89.26110089 Ha       -2428.91813710 eV
  | XC energy correction          :         -24.35446623 Ha        -662.71874491 eV
  | XC potential correction       :          31.28615049 Ha         851.33947038 eV
  | Free-atom electrostatic energy:         -68.18279010 Ha       -1855.34811765 eV
  | Hartree energy correction     :          -6.43795010 Ha        -175.18553570 eV
  | vdW energy correction         :           0.00000000 Ha           0.00000000 eV
  | Entropy correction            :           0.00000000 Ha           0.00000000 eV
  | ---------------------------
  | Total energy                  :        -156.95015684 Ha       -4270.83106498 eV
  | Total energy, T -> 0          :        -156.95015684 Ha       -4270.83106498 eV  <-- do not rely on this value for anything but (periodic) metals
  | Electronic free energy        :        -156.95015684 Ha       -4270.83106498 eV

  Derived energy quantities:
  | Kinetic energy                :         156.20702301 Ha        4250.60936468 eV
  | Electrostatic energy          :        -288.80271361 Ha       -7858.72168475 eV
  | Energy correction for multipole
  | error in Hartree potential    :           0.03156366 Ha           0.85889099 eV
  | Sum of eigenvalues per atom                           :        -202.40984476 eV
  | Total energy (T->0) per atom                          :        -355.90258875 eV  <-- do not rely on this value for anything but (periodic) metals
  | Electronic free energy per atom                       :        -355.90258875 eV

  Self-consistency convergence accuracy:
  | Change of charge density      :  0.6478E-02
  | Change of sum of eigenvalues  :  0.6679E+00 eV
  | Change of total energy        :  0.1029E-02 eV

  End self-consistency iteration #     7       :  max(cpu_time)    wall_clock(cpu1)
  | Time for this iteration                    :        0.544 s           0.544 s
  | Charge density update                      :        0.176 s           0.176 s
  | Density mixing                             :        0.012 s           0.010 s
  | Hartree multipole update                   :        0.012 s           0.010 s
  | Hartree multipole summation                :        0.172 s           0.171 s
  | Integration                                :        0.176 s           0.174 s
  | Solution of K.-S. eqns.                    :        0.004 s           0.002 s
  | Total energy evaluation                    :        0.000 s           0.001 s

  Partial memory accounting:
  | Current value for overall tracked memory usage on task 0  :           0.180 MB
  | Peak value for overall tracked memory usage on task 0     :           0.785 MB after allocating gradient_basis_wave
  | Largest tracked array allocation on task 0 so far         :           0.454 MB  when allocating gradient_basis_wave
  Note:  These values currently only include a subset of arrays which are explicitly tracked.
  The "true" memory usage will be greater.
------------------------------------------------------------

------------------------------------------------------------
          Begin self-consistency iteration #    8

  Date     :  20180215, Time     :  214355.432
------------------------------------------------------------
  Evaluating new KS density.
  Integration grid: deviation in total charge (<rho> - N_e) =   0.000000E+00
  Pulay mixing of updated and previous charge densities.

  Evaluating partitioned Hartree potential by multipole expansion.
  | Analytical far-field extrapolation by fixed multipoles:
  | Hartree multipole sum: apparent total charge =  -0.514725E-03
  Summing up the Hartree potential.
  Time summed over all CPUs for potential: real work        1.289 s, elapsed        1.464 s
  | RMS charge density error from multipole expansion :   0.216073E-01

  Integrating Hamiltonian matrix: batch-based integration.
  Time summed over all CPUs for integration: real work        1.273 s, elapsed        1.333 s

  Updating Kohn-Sham eigenvalues, eigenvectors, occupation numbers, and Fermi level.
  Solving generalized eigenproblem
  Updating Kohn-Sham eigenvalues and eigenfunctions.
  Solving real generalised eigenvalue problem by standard LAPACK (fast)

  Obtaining occupation numbers and chemical potential using ELSI.
  | Chemical potential (Fermi level):    -3.13846419eV
  Highest occupied state (VBM) at     -3.71519758 eV
  | Occupation number:      2.00000000

  Lowest unoccupied state (CBM) at    -2.84502617 eV
  | Occupation number:      0.00000000

  Overall HOMO-LUMO gap:      0.87017141 eV.

  Total energy components:
  | Sum of eigenvalues            :         -89.20331591 Ha       -2427.34572783 eV
  | XC energy correction          :         -24.35989311 Ha        -662.86641780 eV
  | XC potential correction       :          31.29325564 Ha         851.53281141 eV
  | Free-atom electrostatic energy:         -68.18279010 Ha       -1855.34811765 eV
  | Hartree energy correction     :          -6.49737387 Ha        -176.80253855 eV
  | vdW energy correction         :           0.00000000 Ha           0.00000000 eV
  | Entropy correction            :           0.00000000 Ha           0.00000000 eV
  | ---------------------------
  | Total energy                  :        -156.95011735 Ha       -4270.82999042 eV
  | Total energy, T -> 0          :        -156.95011735 Ha       -4270.82999042 eV  <-- do not rely on this value for anything but (periodic) metals
  | Electronic free energy        :        -156.95011735 Ha       -4270.82999042 eV

  Derived energy quantities:
  | Kinetic energy                :         156.20518485 Ha        4250.55934586 eV
  | Electrostatic energy          :        -288.79540909 Ha       -7858.52291847 eV
  | Energy correction for multipole
  | error in Hartree potential    :           0.03120137 Ha           0.84903258 eV
  | Sum of eigenvalues per atom                           :        -202.27881065 eV
  | Total energy (T->0) per atom                          :        -355.90249920 eV  <-- do not rely on this value for anything but (periodic) metals
  | Electronic free energy per atom                       :        -355.90249920 eV

  Self-consistency convergence accuracy:
  | Change of charge density      :  0.5013E-02
  | Change of sum of eigenvalues  :  0.1572E+01 eV
  | Change of total energy        :  0.1075E-02 eV

  End self-consistency iteration #     8       :  max(cpu_time)    wall_clock(cpu1)
  | Time for this iteration                    :        0.592 s           0.591 s
  | Charge density update                      :        0.192 s           0.191 s
  | Density mixing                             :        0.012 s           0.016 s
  | Hartree multipole update                   :        0.016 s           0.010 s
  | Hartree multipole summation                :        0.196 s           0.194 s
  | Integration                                :        0.176 s           0.177 s
  | Solution of K.-S. eqns.                    :        0.004 s           0.002 s
  | Total energy evaluation                    :        0.000 s           0.001 s

  Partial memory accounting:
  | Current value for overall tracked memory usage on task 0  :           0.180 MB
  | Peak value for overall tracked memory usage on task 0     :           0.785 MB after allocating gradient_basis_wave
  | Largest tracked array allocation on task 0 so far         :           0.454 MB  when allocating gradient_basis_wave
  Note:  These values currently only include a subset of arrays which are explicitly tracked.
  The "true" memory usage will be greater.
------------------------------------------------------------

------------------------------------------------------------
          Begin self-consistency iteration #    9

  Date     :  20180215, Time     :  214356.024
------------------------------------------------------------
  Evaluating new KS density.
  Integration grid: deviation in total charge (<rho> - N_e) =   2.842171E-14
  Pulay mixing of updated and previous charge densities.

  Evaluating partitioned Hartree potential by multipole expansion.
  | Analytical far-field extrapolation by fixed multipoles:
  | Hartree multipole sum: apparent total charge =  -0.516229E-03
  Summing up the Hartree potential.
  Time summed over all CPUs for potential: real work        1.274 s, elapsed        1.363 s
  | RMS charge density error from multipole expansion :   0.216187E-01

  Integrating Hamiltonian matrix: batch-based integration.
  Time summed over all CPUs for integration: real work        1.282 s, elapsed        1.329 s

  Updating Kohn-Sham eigenvalues, eigenvectors, occupation numbers, and Fermi level.
  Solving generalized eigenproblem
  Updating Kohn-Sham eigenvalues and eigenfunctions.
  Solving real generalised eigenvalue problem by standard LAPACK (fast)

  Obtaining occupation numbers and chemical potential using ELSI.
  | Chemical potential (Fermi level):    -3.12837390eV
  Highest occupied state (VBM) at     -3.70384230 eV
  | Occupation number:      2.00000000

  Lowest unoccupied state (CBM) at    -2.83370672 eV
  | Occupation number:      0.00000000

  Overall HOMO-LUMO gap:      0.87013558 eV.

  Total energy components:
  | Sum of eigenvalues            :         -89.19036879 Ha       -2426.99341886 eV
  | XC energy correction          :         -24.36122153 Ha        -662.90256607 eV
  | XC potential correction       :          31.29498909 Ha         851.57998097 eV
  | Free-atom electrostatic energy:         -68.18279010 Ha       -1855.34811765 eV
  | Hartree energy correction     :          -6.51072405 Ha        -177.16581559 eV
  | vdW energy correction         :           0.00000000 Ha           0.00000000 eV
  | Entropy correction            :           0.00000000 Ha           0.00000000 eV
  | ---------------------------
  | Total energy                  :        -156.95011539 Ha       -4270.82993719 eV
  | Total energy, T -> 0          :        -156.95011539 Ha       -4270.82993719 eV  <-- do not rely on this value for anything but (periodic) metals
  | Electronic free energy        :        -156.95011539 Ha       -4270.82993719 eV

  Derived energy quantities:
  | Kinetic energy                :         156.20637143 Ha        4250.59163426 eV
  | Electrostatic energy          :        -288.79526528 Ha       -7858.51900538 eV
  | Energy correction for multipole
  | error in Hartree potential    :           0.03113829 Ha           0.84731593 eV
  | Sum of eigenvalues per atom                           :        -202.24945157 eV
  | Total energy (T->0) per atom                          :        -355.90249477 eV  <-- do not rely on this value for anything but (periodic) metals
  | Electronic free energy per atom                       :        -355.90249477 eV

  Self-consistency convergence accuracy:
  | Change of charge density      :  0.1246E-02
  | Change of sum of eigenvalues  :  0.3523E+00 eV
  | Change of total energy        :  0.5322E-04 eV

  End self-consistency iteration #     9       :  max(cpu_time)    wall_clock(cpu1)
  | Time for this iteration                    :        0.556 s           0.555 s
  | Charge density update                      :        0.172 s           0.171 s
  | Density mixing                             :        0.012 s           0.013 s
  | Hartree multipole update                   :        0.012 s           0.010 s
  | Hartree multipole summation                :        0.184 s           0.181 s
  | Integration                                :        0.176 s           0.176 s
  | Solution of K.-S. eqns.                    :        0.004 s           0.002 s
  | Total energy evaluation                    :        0.000 s           0.000 s

  Partial memory accounting:
  | Current value for overall tracked memory usage on task 0  :           0.180 MB
  | Peak value for overall tracked memory usage on task 0     :           0.785 MB after allocating gradient_basis_wave
  | Largest tracked array allocation on task 0 so far         :           0.454 MB  when allocating gradient_basis_wave
  Note:  These values currently only include a subset of arrays which are explicitly tracked.
  The "true" memory usage will be greater.
------------------------------------------------------------

------------------------------------------------------------
          Begin self-consistency iteration #   10

  Date     :  20180215, Time     :  214356.579
------------------------------------------------------------
  Evaluating new KS density.
  Integration grid: deviation in total charge (<rho> - N_e) =   7.105427E-15
  Pulay mixing of updated and previous charge densities.

  Evaluating partitioned Hartree potential by multipole expansion.
  | Analytical far-field extrapolation by fixed multipoles:
  | Hartree multipole sum: apparent total charge =  -0.516865E-03
  Summing up the Hartree potential.
  Time summed over all CPUs for potential: real work        1.269 s, elapsed        1.311 s
  | RMS charge density error from multipole expansion :   0.216235E-01

  Integrating Hamiltonian matrix: batch-based integration.
  Time summed over all CPUs for integration: real work        1.261 s, elapsed        1.337 s

[...]
  |   Hirshfeld dipole moment :      0.08892378
  |   Hirshfeld second moments:      0.10685754      -0.00575448      -0.00074954
  |                                 -0.00575448       0.08979887       0.00758580
  |                                 -0.00074954       0.00758580       0.10200700
  ----------------------------------------------------------------------
  | Atom     8: H
  |   Hirshfeld charge        :      0.03173197
  |   Free atom volume        :      9.95071624
  |   Hirshfeld volume        :      6.50753561
  |   Hirshfeld dipole vector :     -0.05125225       0.05707244       0.04547975
  |   Hirshfeld dipole moment :      0.08917659
  |   Hirshfeld second moments:      0.09549670      -0.00170399       0.01099352
  |                                 -0.00170399       0.09443637      -0.00114113
  |                                  0.01099352      -0.00114113       0.08751056
  ----------------------------------------------------------------------
  | Atom     9: H
  |   Hirshfeld charge        :      0.03173197
  |   Free atom volume        :      9.95071624
  |   Hirshfeld volume        :      6.50753558
  |   Hirshfeld dipole vector :      0.05125225      -0.05707243       0.04547976
  |   Hirshfeld dipole moment :      0.08917659
  |   Hirshfeld second moments:      0.09549671      -0.00170399      -0.01099352
  |                                 -0.00170399       0.09443637       0.00114113
  |                                 -0.01099352       0.00114113       0.08751056
  ----------------------------------------------------------------------
  | Atom    10: H
  |   Hirshfeld charge        :      0.03846976
  |   Free atom volume        :      9.95071624
  |   Hirshfeld volume        :      6.37930996
  |   Hirshfeld dipole vector :     -0.03897817       0.02388675      -0.07332920
  |   Hirshfeld dipole moment :      0.08641207
  |   Hirshfeld second moments:      0.09359723       0.00089312      -0.00530611
  |                                  0.00089312       0.10471049       0.00564992
  |                                 -0.00530611       0.00564992       0.08889736
  ----------------------------------------------------------------------
  | Atom    11: H
  |   Hirshfeld charge        :      0.05154774
  |   Free atom volume        :      9.95071624
  |   Hirshfeld volume        :      6.24646530
  |   Hirshfeld dipole vector :      0.01576164       0.07942350       0.03675483
  |   Hirshfeld dipole moment :      0.08892378
  |   Hirshfeld second moments:      0.10685754      -0.00575448       0.00074954
  |                                 -0.00575448       0.08979888      -0.00758580
  |                                  0.00074954      -0.00758580       0.10200700
  ----------------------------------------------------------------------
  | Atom    12: H
  |   Hirshfeld charge        :      0.03469444
  |   Free atom volume        :      9.95071624
  |   Hirshfeld volume        :      6.19062927
  |   Hirshfeld dipole vector :      0.08011091      -0.02628352      -0.01567669
  |   Hirshfeld dipole moment :      0.08575745
  |   Hirshfeld second moments:      0.08656470       0.00461901       0.00725629
  |                                  0.00461901       0.10602329      -0.00194472
  |                                  0.00725629      -0.00194472       0.10560840
  ----------------------------------------------------------------------


  Total energy components:
  | Sum of eigenvalues            :         -89.18414962 Ha       -2426.82418655 eV
  | XC energy correction          :         -24.36196496 Ha        -662.92279571 eV
  | XC potential correction       :          31.29595476 Ha         851.60625830 eV
  | Free-atom electrostatic energy:         -68.18279010 Ha       -1855.34811765 eV
  | Hartree energy correction     :          -6.51716595 Ha        -177.34110851 eV
  | vdW energy correction         :          -0.00249760 Ha          -0.06796320 eV
  | Entropy correction            :           0.00000000 Ha           0.00000000 eV
  | ---------------------------
  | Total energy                  :        -156.95261347 Ha       -4270.89791330 eV
  | Total energy, T -> 0          :        -156.95261347 Ha       -4270.89791330 eV  <-- do not rely on this value for anything but (periodic) metals
  | Electronic free energy        :        -156.95261347 Ha       -4270.89791330 eV

  Derived energy quantities:
  | Kinetic energy                :         156.20775362 Ha        4250.62924576 eV
  | Electrostatic energy          :        -288.79590453 Ha       -7858.53640016 eV
  | Energy correction for multipole
  | error in Hartree potential    :           0.03111855 Ha           0.84677877 eV
  | Sum of eigenvalues per atom                           :        -202.23534888 eV
  | Total energy (T->0) per atom                          :        -355.90815944 eV  <-- do not rely on this value for anything but (periodic) metals
  | Electronic free energy per atom                       :        -355.90815944 eV

  atomic forces [eV/Ang]:
  -----------------------
  atom #    1
   Hellmann-Feynman              : -0.725596E-01  0.830683E+00 -0.809566E+00
   Ionic forces                  :  0.000000E+00  0.000000E+00  0.000000E+00
   Multipole                     : -0.280370E+00 -0.274877E+00 -0.197943E+00
   Pulay + GGA                   :  0.264850E+00  0.438076E-01  0.409140E+00
   Van der Waals                 :  0.886305E-02  0.505721E-02 -0.866362E-03
   ----------------------------------------------------------------
   Total forces(   1)            : -0.792170E-01  0.604671E+00 -0.599235E+00
  atom #    2
   Hellmann-Feynman              :  0.812693E+00  0.416845E+00 -0.310753E+00
   Ionic forces                  :  0.000000E+00  0.000000E+00  0.000000E+00
   Multipole                     : -0.197505E+00 -0.397936E-01  0.300286E+00
   Pulay + GGA                   : -0.640711E+00 -0.445018E+00 -0.972524E-01
   Van der Waals                 : -0.260364E-02 -0.280657E-02  0.494940E-02
   ----------------------------------------------------------------
   Total forces(   2)            : -0.281261E-01 -0.707732E-01 -0.102771E+00
  atom #    3
   Hellmann-Feynman              : -0.812693E+00 -0.416845E+00 -0.310753E+00
   Ionic forces                  :  0.000000E+00  0.000000E+00  0.000000E+00
   Multipole                     :  0.197505E+00  0.397937E-01  0.300286E+00
   Pulay + GGA                   :  0.640711E+00  0.445018E+00 -0.972525E-01
   Van der Waals                 :  0.260365E-02  0.280658E-02  0.494940E-02
   ----------------------------------------------------------------
   Total forces(   3)            :  0.281259E-01  0.707733E-01 -0.102771E+00
  atom #    4
   Hellmann-Feynman              :  0.725594E-01 -0.830683E+00 -0.809566E+00
   Ionic forces                  :  0.000000E+00  0.000000E+00  0.000000E+00
   Multipole                     :  0.280370E+00  0.274877E+00 -0.197943E+00
   Pulay + GGA                   : -0.264850E+00 -0.438077E-01  0.409140E+00
   Van der Waals                 : -0.886305E-02 -0.505721E-02 -0.866362E-03
   ----------------------------------------------------------------
   Total forces(   4)            :  0.792169E-01 -0.604671E+00 -0.599235E+00
  atom #    5
   Hellmann-Feynman              :  0.317047E-01  0.160752E-01 -0.277409E+00
   Ionic forces                  :  0.000000E+00  0.000000E+00  0.000000E+00
   Multipole                     :  0.253126E-01 -0.428623E-01 -0.125298E+00
   Pulay + GGA                   : -0.419179E-01  0.336977E-01  0.916212E-01
   Van der Waals                 :  0.258249E-02  0.411353E-02 -0.443424E-03
   ----------------------------------------------------------------
   Total forces(   5)            :  0.176819E-01  0.110241E-01 -0.311530E+00
  atom #    6
   Hellmann-Feynman              : -0.261202E+00  0.771511E-01 -0.219234E+00
   Ionic forces                  :  0.000000E+00  0.000000E+00  0.000000E+00
   Multipole                     : -0.117860E+00  0.174784E-01 -0.656531E-01
   Pulay + GGA                   :  0.100283E+00 -0.235423E-01  0.209169E-01
   Van der Waals                 :  0.271419E-02 -0.341311E-03 -0.264002E-02
   ----------------------------------------------------------------
   Total forces(   6)            : -0.276064E+00  0.707459E-01 -0.266611E+00
  atom #    7
   Hellmann-Feynman              :  0.192913E+00  0.582084E+00 -0.685153E-01
   Ionic forces                  :  0.000000E+00  0.000000E+00  0.000000E+00
   Multipole                     : -0.159153E-01 -0.723908E-01  0.231554E-01
   Pulay + GGA                   :  0.256259E-01  0.714614E-01 -0.288606E-01
   Van der Waals                 :  0.976047E-03 -0.257504E-02 -0.916205E-03
   ----------------------------------------------------------------
   Total forces(   7)            :  0.203600E+00  0.578579E+00 -0.751367E-01
  atom #    8
   Hellmann-Feynman              :  0.989384E-01 -0.154645E+01  0.137693E+01
   Ionic forces                  :  0.000000E+00  0.000000E+00  0.000000E+00
   Multipole                     : -0.518461E-01  0.140987E+00  0.600546E-01
   Pulay + GGA                   :  0.682699E-01 -0.198088E-01 -0.842546E-01
   Van der Waals                 :  0.718022E-02  0.596850E-02 -0.833909E-04
   ----------------------------------------------------------------
   Total forces(   8)            :  0.122542E+00 -0.141931E+01  0.135264E+01
  atom #    9
   Hellmann-Feynman              : -0.989386E-01  0.154645E+01  0.137692E+01
   Ionic forces                  :  0.000000E+00  0.000000E+00  0.000000E+00
   Multipole                     :  0.518461E-01 -0.140987E+00  0.600546E-01
   Pulay + GGA                   : -0.682699E-01  0.198088E-01 -0.842545E-01
   Van der Waals                 : -0.718022E-02 -0.596850E-02 -0.833867E-04
   ----------------------------------------------------------------
   Total forces(   9)            : -0.122543E+00  0.141931E+01  0.135264E+01
  atom #   10
   Hellmann-Feynman              : -0.317047E-01 -0.160754E-01 -0.277409E+00
   Ionic forces                  :  0.000000E+00  0.000000E+00  0.000000E+00
   Multipole                     : -0.253126E-01  0.428624E-01 -0.125298E+00
   Pulay + GGA                   :  0.419179E-01 -0.336977E-01  0.916212E-01
   Van der Waals                 : -0.258249E-02 -0.411353E-02 -0.443424E-03
   ----------------------------------------------------------------
   Total forces(  10)            : -0.176819E-01 -0.110242E-01 -0.311530E+00
  atom #   11
   Hellmann-Feynman              : -0.192913E+00 -0.582083E+00 -0.685153E-01
   Ionic forces                  :  0.000000E+00  0.000000E+00  0.000000E+00
   Multipole                     :  0.159153E-01  0.723908E-01  0.231554E-01
   Pulay + GGA                   : -0.256259E-01 -0.714614E-01 -0.288607E-01
   Van der Waals                 : -0.976051E-03  0.257504E-02 -0.916207E-03
   ----------------------------------------------------------------
   Total forces(  11)            : -0.203600E+00 -0.578579E+00 -0.751367E-01
  atom #   12
   Hellmann-Feynman              :  0.261202E+00 -0.771511E-01 -0.219234E+00
   Ionic forces                  :  0.000000E+00  0.000000E+00  0.000000E+00
   Multipole                     :  0.117859E+00 -0.174785E-01 -0.656532E-01
   Pulay + GGA                   : -0.100283E+00  0.235424E-01  0.209169E-01
   Van der Waals                 : -0.271419E-02  0.341310E-03 -0.264002E-02
   ----------------------------------------------------------------
   Total forces(  12)            :  0.276064E+00 -0.707459E-01 -0.266611E+00

  Timings for VdW correction (Tkatchenko-Scheffler 2009 or later):
  | CPU time:        0.040 s, Wall clock time:        0.042 s.
  Removing unitary transformations (pure translations, rotations) from forces on atoms.
  Atomic forces before filtering:
  | Net force on center of mass :  -0.843447E-06  0.104549E-07 -0.528292E-02 eV/A
  | Net torque on center of mass:  -0.226847E-06  0.106585E-06 -0.454602E-02 eV
  Atomic forces after filtering:
  | Net force on center of mass :   0.446015E-16  0.167256E-15  0.267609E-15 eV/A
  | Net torque on center of mass:  -0.442540E-15 -0.188817E-15 -0.101489E-14 eV

  Energy and forces in a compact form:
  | Total energy uncorrected      :         -0.427089791330171E+04 eV
  | Total energy corrected        :         -0.427089791330171E+04 eV  <-- do not rely on this value for anything but (periodic) metals
  | Electronic free energy        :         -0.427089791330171E+04 eV
  Total atomic forces (unitary forces cleaned) [eV/Ang]:
  |   1         -0.791106451776116E-01          0.604510801507458E+00         -0.598795232968509E+00
  |   2         -0.281183218312060E-01         -0.708493462368884E-01         -0.102330360264919E+00
  |   3          0.281182481186110E-01          0.708493923797134E-01         -0.102330362048846E+00
  |   4          0.791106616053718E-01         -0.604510898728186E+00         -0.598795214605494E+00
  |   5          0.178172270601494E-01          0.109244524258976E-01         -0.311089482496967E+00
  |   6         -0.275995749423113E+00          0.704759758480867E-01         -0.266170282100641E+00
  |   7          0.203812257910675E+00          0.578403356676837E+00         -0.746964773164387E-01
  |   8          0.122492476922015E+00         -0.141944948704972E+01          0.135308194200108E+01
  |   9         -0.122492530118897E+00          0.141944958561201E+01          0.135308166140709E+01
  |  10         -0.178171333790563E-01         -0.109245648453565E-01         -0.311089365052934E+00
  |  11         -0.203812493330398E+00         -0.578403289238486E+00         -0.746964734754526E-01
  |  12          0.275996001643459E+00         -0.704759783513696E-01         -0.266170353077960E+00

  ------------------------------------ 
  Start decomposition of the XC Energy 
  ------------------------------------ 
  X and C from original XC functional choice 
  Hartree-Fock Energy :          0.000000000 Ha              0.000000000 eV
  X Energy            :        -23.348741445 Ha           -635.351581049 eV
  C Energy            :         -1.013223515 Ha            -27.571214663 eV
  Total XC Energy     :        -24.361964960 Ha           -662.922795712 eV
  ------------------------------------ 
  LDA X and C from self-consistent density 
  X Energy LDA        :        -21.101413104 Ha           -574.198665466 eV
  C Energy LDA        :         -1.971490364 Ha            -53.646982327 eV
  ------------------------------------ 
  End decomposition of the XC Energy 
  ------------------------------------ 

------------------------------------------------------------

------------------------------------------------------------------------------
  Final output of selected total energy values:

  The following output summarizes some interesting total energy values
  at the end of a run (AFTER all relaxation, molecular dynamics, etc.).

  | Total energy of the DFT / Hartree-Fock s.c.f. calculation      :          -4270.897913302 eV
  | Final zero-broadening corrected energy (caution - metals only) :          -4270.897913302 eV
  | For reference only, the value of 1 Hartree used in FHI-aims is :             27.211384500 eV

  Before relying on these values, please be sure to understand exactly which
  total energy value is referred to by a given number. Different objects may
  all carry the same name 'total energy'. Definitions:

  Total energy of the DFT / Hartree-Fock s.c.f. calculation:
  | Note that this energy does not include ANY quantities calculated after the
  | s.c.f. cycle, in particular not ANY RPA, MP2, etc. many-body perturbation terms.

  Final zero-broadening corrected energy:
  | For metallic systems only, a broadening of the occupation numbers at the Fermi
  | level can be extrapolated back to zero broadening by an electron-gas inspired
  | formula. For all systems that are not real metals, this value can be
  | meaningless and should be avoided.

------------------------------------------------------------------------------
  Methods described in the following list of references were used in this FHI-aims run.
  If you publish the results, please make sure to cite these reference if they apply.
  FHI-aims is an academic code, and for our developers (often, Ph.D. students
  and postdocs), scientific credit in the community is essential.
  Thank you for helping us!

  For any use of FHI-aims, please cite:

    Volker Blum, Ralf Gehrke, Felix Hanke, Paula Havu, Ville Havu,
    Xinguo Ren, Karsten Reuter, and Matthias Scheffler
    'Ab initio molecular simulations with numeric atom-centered orbitals'
    Computer Physics Communications 180, 2175-2196 (2009)
    http://dx.doi.org/10.1016/j.cpc.2009.06.022


  For the real-space grid partitioning and parallelization used in this calculation, please cite:

    Ville Havu, Volker Blum, Paula Havu, and Matthias Scheffler,
    'Efficient O(N) integration for all-electron electronic structure calculation'
    'using numerically tabulated basis functions'
    Journal of Computational Physics 228, 8367-8379 (2009).
    http://dx.doi.org/10.1016/j.jcp.2009.08.008

  Of course, there are many other important community references, e.g., those cited in the
  above references. Our list is limited to references that describe implementations in the
  FHI-aims code. The reason is purely practical (length of this list) - please credit others as well.

------------------------------------------------------------
          Leaving FHI-aims.
          Date     :  20180215, Time     :  214400.234

          Computational steps:
          | Number of self-consistency cycles          :           14
          | Number of SCF (re)initializations          :            1

          Detailed time accounting                     :  max(cpu_time)    wall_clock(cpu1)
          | Total time                                 :        9.148 s           9.206 s
          | Preparation time                           :        0.128 s           0.128 s
          | Boundary condition initalization           :        0.000 s           0.000 s
          | Grid partitioning                          :        0.068 s           0.065 s
          | Preloading free-atom quantities on grid    :        0.004 s           0.003 s
          | Free-atom superposition energy             :        0.024 s           0.023 s
          | Total time for integrations                :        2.760 s           2.746 s
          | Total time for solution of K.-S. equations :        0.068 s           0.044 s
          | Total time for density & force components  :        2.852 s           2.828 s
          | Total time for mixing                      :        0.152 s           0.146 s
          | Total time for Hartree multipole update    :        0.172 s           0.140 s
          | Total time for Hartree multipole sum       :        2.904 s           2.884 s
          | Total time for total energy evaluation     :        0.012 s           0.017 s
          | Total time for vdW correction              :        0.040 s           0.042 s

          Partial memory accounting:
          | Residual value for overall tracked memory usage across tasks :           0.000 MB (should be 0.000 MB)
          | Peak values for overall tracked memory usage (after allocating hessian_basis_wave):
          |   Minimum:        1.844 MB (on task 1)
          |   Maximum:        1.844 MB (on task 1)
          |   Average:        1.844 MB
          | Largest tracked array allocation (hessian_basis_wave):
          |   Minimum:        0.908 MB (on task 1)
          |   Maximum:        0.908 MB (on task 1)
          |   Average:        0.908 MB
          Note:  These values currently only include a subset of arrays which are explicitly tracked.
          The "true" memory usage will be greater.

          Have a nice day.
------------------------------------------------------------
