  MPI-parallelism will be employed.
------------------------------------------------------------
          Invoking FHI-aims ...

          When using FHI-aims, please cite the following reference:

          Volker Blum, Ralf Gehrke, Felix Hanke, Paula Havu,
          Ville Havu, Xinguo Ren, Karsten Reuter, and Matthias Scheffler,
          'Ab Initio Molecular Simulations with Numeric Atom-Centered Orbitals',
          Computer Physics Communications 180, 2175-2196 (2009)

          For any questions about FHI-aims, please visit the aimsclub website
          with its forums and wiki. Contributions to both the forums and the
          wiki are warmly encouraged - they are for you, and everyone is welcome there.

------------------------------------------------------------



  Date     :  20190817, Time     :  154512.230
  Time zero on CPU 1             :   0.234170000000000E-01  s.
  Internal wall clock time zero  :           335288712.230  s.

  FHI-aims created a unique identifier for this run for later identification
  aims_uuid : 07485E70-E47E-4F57-A8FA-789CC8DF9C37

  Build configuration of the current instance of FHI-aims
  -------------------------------------------------------
  FHI-aims version      : 190813
  Commit number         : 3da7baeb3
  CMake host system     : Linux-4.4.180-94.97-default
  CMake version         : 3.5.2
  Fortran compiler      : /mpcdf/soft/SLE_12_SP3/packages/x86_64/intel_parallel_studio/2018.4/compilers_and_libraries_2018.5.274/linux/mpi/bin64/mpiifort (Intel) version 18.0.5.20180823
  Fortran compiler flags: -O3 -ip -fp-model precise
  C compiler            : /mpcdf/soft/SLE_12_SP3/packages/skylake/intel/18.0.5/bin/icc (Intel) version 18.0.5.20180823
  C compiler flags      : -O3 -ip -fp-model precise
  Architecture          :
  Using MPI
  Using Scalapack
  Using C files
  Using SPGlib
  Using i-PI
  Linking against: /mpcdf/soft/SLE_12_SP3/packages/x86_64/anaconda/3.5.1.0/lib/libmkl_intel_lp64.so
                   /mpcdf/soft/SLE_12_SP3/packages/x86_64/anaconda/3.5.1.0/lib/libmkl_sequential.so
                   /mpcdf/soft/SLE_12_SP3/packages/x86_64/anaconda/3.5.1.0/lib/libmkl_core.so
                   /mpcdf/soft/SLE_12_SP3/packages/x86_64/anaconda/3.5.1.0/lib/libmkl_blacs_intelmpi_lp64.so
                   /mpcdf/soft/SLE_12_SP3/packages/x86_64/anaconda/3.5.1.0/lib/libmkl_scalapack_lp64.so

  Using        8 parallel tasks.
  Task        0 on host co1631 reporting.
  Task        1 on host co1631 reporting.
  Task        2 on host co1631 reporting.
  Task        3 on host co1631 reporting.
  Task        4 on host co1631 reporting.
  Task        5 on host co1631 reporting.
  Task        6 on host co1631 reporting.
  Task        7 on host co1631 reporting.

  Performing system and environment tests:
  | Environment variable OMP_NUM_THREADS correctly set to 1.
  | Maximum stacksize for task 0: unlimited
  | Maximum stacksize for task 1: unlimited
  | Maximum stacksize for task 2: unlimited
  | Maximum stacksize for task 3: unlimited
  | Maximum stacksize for task 4: unlimited
  | Maximum stacksize for task 5: unlimited
  | Maximum stacksize for task 6: unlimited
  | Maximum stacksize for task 7: unlimited
  | Current stacksize for task 0: unlimited
  | Current stacksize for task 1: unlimited
  | Current stacksize for task 2: unlimited
  | Current stacksize for task 3: unlimited
  | Current stacksize for task 4: unlimited
  | Current stacksize for task 5: unlimited
  | Current stacksize for task 6: unlimited
  | Current stacksize for task 7: unlimited
  | Checking for scalapack...
  | Testing pdtran()...
  | All pdtran() tests passed.

  Obtaining array dimensions for all initial allocations:
  
  -----------------------------------------------------------------------
  Parsing control.in (first pass over file, find array dimensions only).
  The contents of control.in will be repeated verbatim below
  unless switched off by setting 'verbatim_writeout .false.' .
  in the first line of control.in .
  -----------------------------------------------------------------------
  
  #  Volker Blum, FHI 2004 : Input file for LocalOrb code project
  #
  #  Input file control.in : All computational details for structure geometry.in
  #
  #  * First, general computational parameters:
  #
  #  Physics choices (model):
  #
    xc               pw-lda
    spin             none
    relativistic     none
    occupation_type  gaussian 0.01
  #
  #  SCF cycle:
  #
    KS_method        serial
    mixer            pulay
      ini_linear_mixing 0
      charge_mix_param  0.4
    sc_accuracy_rho  1E-5
    sc_accuracy_eev  1E-4
    sc_accuracy_etot 1E-6
    sc_iter_limit    1000
  #
  #  accuracy / efficiency for normal scf
  #
  #  basis_threshold  0.e-5
    grid_partitioning_method parallel_hash+maxmin
    empty_states     5
  #
  # For relaxation:
  #
  #  relax_geometry bfgs 5e-3
    sc_accuracy_forces 5e-4
  #
  # For MD:
  #
    MD_run        0.04 NVE
    MD_time_step  0.0005
  #  MD_MB_init    600
    MD_clean_rotations  .true.
    MD_restart    .false.
    output_level MD_light
  ################################################################################
  #
  #  FHI-aims code project
  #  VB, Fritz-Haber Institut, 2009
  #
  #  Suggested "light" defaults for H atom (to be pasted into control.in file)
  #  Be sure to double-check any results obtained with these settings for post-processing,
  #  e.g., with the "tight" defaults and larger basis sets.
  #
  ################################################################################
    species        H
  #     global species definitions
      nucleus             1
      mass                1.00794
  #
      l_hartree           4
  #
      cut_pot             3.5  1.5  1.0
      basis_dep_cutoff    1e-4
  #
      radial_base         24 5.0
      radial_multiplier   1
      angular_grids       specified
        division   0.2421   50
        division   0.3822  110
        division   0.4799  194
  #      division   0.5341  302
  #      division   0.5626  434
  #      division   0.5922  590
  #      division   0.6542  770
  #      division   0.6868 1202
  #      outer_grid  770
        outer_grid  194
  ################################################################################
  #
  #  Definition of "minimal" basis
  #
  ################################################################################
  #     valence basis states
      valence      1  s   1.
  #     ion occupancy
      ion_occ      1  s   0.5
  ################################################################################
  #
  #  Suggested additional basis functions. For production calculations,
  #  uncomment them one after another (the most important basis functions are
  #  listed first).
  #
  #  Basis constructed for dimers: 0.5 A, 0.7 A, 1.0 A, 1.5 A, 2.5 A
  #
  ################################################################################
  #  "First tier" - improvements: -1014.90 meV to -62.69 meV
       hydro 2 s 2.1
       hydro 2 p 3.5
  #  "Second tier" - improvements: -12.89 meV to -1.83 meV
  #     hydro 1 s 0.85
  #     hydro 2 p 3.7
  #     hydro 2 s 1.2
  #     hydro 3 d 7
  #  "Third tier" - improvements: -0.25 meV to -0.12 meV
  #     hydro 4 f 11.2
  #     hydro 3 p 4.8
  #     hydro 4 d 9
  #     hydro 3 s 3.2
  ################################################################################
  #
  #  FHI-aims code project
  #  VB, Fritz-Haber Institut, 2009
  #
  #  Suggested "light" defaults for N atom (to be pasted into control.in file)
  #  Be sure to double-check any results obtained with these settings for post-processing,
  #  e.g., with the "tight" defaults and larger basis sets.
  #
  ################################################################################
    species        N
  #     global species definitions
      nucleus             7
      mass                14.0067
  #
      l_hartree           4
  #
      cut_pot             3.5  1.5  1.0
      basis_dep_cutoff    1e-4
  #
      radial_base         35 5.0
      radial_multiplier   1
      angular_grids       specified
        division   0.2599   50
        division   0.4601  110
        division   0.5885  194
  #      division   0.6503  302
  #      division   0.6939  434
  #      division   0.7396  590
  #      division   0.7632  770
  #      division   0.8122  974
  #      division   1.1604 1202
  #      outer_grid  974
        outer_grid  194
  ################################################################################
  #
  #  Definition of "minimal" basis
  #
  ################################################################################
  #     valence basis states
      valence      2  s   2.
      valence      2  p   3.
  #     ion occupancy
      ion_occ      2  s   1.
      ion_occ      2  p   2.
  ################################################################################
  #
  #  Suggested additional basis functions. For production calculations,
  #  uncomment them one after another (the most important basis functions are
  #  listed first).
  #
  #  Constructed for dimers: 1.0 A, 1.1 A, 1.5 A, 2.0 A, 3.0 A
  #
  ################################################################################
  #  "First tier" - improvements: -1193.42 meV to -220.60 meV
       hydro 2 p 1.8
       hydro 3 d 6.8
       hydro 3 s 5.8
  #  "Second tier" - improvements: -80.21 meV to -6.86 meV
  #     hydro 4 f 10.8
  #     hydro 3 p 5.8
  #     hydro 1 s 0.8
  #     hydro 5 g 16
  #     hydro 3 d 4.9
  #  "Third tier" - improvements: -4.29 meV to -0.53 meV
  #     hydro 3 s 16
  #     ionic 2 p auto
  #     hydro 3 d 6.6
  #     hydro 4 f 11.6
  #  "Fourth tier" - improvements: -0.75 meV to -0.25 meV
  #     hydro 2 p 4.5
  #     hydro 2 s 2.4
  #     hydro 5 g 14.4
  #     hydro 4 d 14.4
  #     hydro 4 f 16.8
  # Further basis functions - -0.21 meV and below
  #     hydro 3 p 14.8
  #     hydro 3 s 4.4
  #     hydro 3 d 19.6
  #     hydro 5 g 12.8
  
  -----------------------------------------------------------------------
  Completed first pass over input file control.in .
  -----------------------------------------------------------------------
  
  
  -----------------------------------------------------------------------
  Parsing geometry.in (first pass over file, find array dimensions only).
  The contents of geometry.in will be repeated verbatim below
  unless switched off by setting 'verbatim_writeout .false.' .
  in the first line of geometry.in .
  -----------------------------------------------------------------------
  
     atom              -0.10868016        0.09795616        0.10011508  N
       velocity          -1.46614164          3.38807886          0.60742572
     atom               0.77117065        0.37554105        0.54294916  H
       velocity           0.46746955         34.52080669        -14.04429714
     atom              -0.80868444        0.79768550        0.36017340  H
       velocity          -9.43239358        -46.21709237          1.80388823
     atom              -0.39449117       -0.78563144        0.53004927  H
       velocity          29.33896027        -35.38568756          3.79940069
  
  
  -----------------------------------------------------------------------
  Completed first pass over input file geometry.in .
  -----------------------------------------------------------------------
  

  Basic array size parameters:
  | Number of species                 :        2
  | Number of atoms                   :        4
  | Max. basis fn. angular momentum   :        2
  | Max. atomic/ionic basis occupied n:        2
  | Max. number of basis fn. types    :        2
  | Max. radial fns per species/type  :        3
  | Max. logarithmic grid size        :     1290
  | Max. radial integration grid size :       35
  | Max. angular integration grid size:      194
  | Max. angular grid division number :        8
  | Radial grid for Hartree potential :     1290
  | Number of spin channels           :        1

------------------------------------------------------------
          Reading file control.in.
------------------------------------------------------------
  XC: Using Perdew-Wang parametrisation of Ceperley-Alder LDA.
  Spin treatment: No spin polarisation.
  Non-relativistic treatment of kinetic energy.
  Occupation type: Gaussian broadening, width =   0.100000E-01 eV.
  Kohn-Sham eigenvalues and eigenfunctions calculated by LAPACK via ELSI.
  Using pulay charge density mixing.
  Number of initial iterations with linear charge density mixing:     0
  Charge density mixing - mixing parameter:     0.4000
  Convergence accuracy of self-consistent charge density:  0.1000E-04
  Convergence accuracy of sum of eigenvalues:  0.1000E-03
  Convergence accuracy of total energy:  0.1000E-05
  Maximum number of s.-c. iterations  :  1000
  Using parallel hash+maxmin method for grid partitioning.
  Number of empty states per atom:        5
  Convergence accuracy of forces:  0.5000E-03
  Running Born-Oppenheimer molecular dynamics in NVE ensemble.
   | simulation time =       0.040000 ps
  Molecular dynamics time step =       0.000500 ps
  Cleaning initialized velocities from rotations.
  Explicitly requesting no molecular dynamics restart.
  Requested output level: MD_light            
 
  Reading configuration options for species H                   .
  | Found nuclear charge :   1.0000
  | Found atomic mass :    1.00794000000000      amu
  | Found l_max for Hartree potential  :   4
  | Found cutoff potl. onset [A], width [A], scale factor :    3.50000    1.50000    1.00000
  | Threshold for basis-dependent cutoff potential is   0.100000E-03
  | Found data for basic radial integration grid :    24 points, outermost radius =    5.000 A
  | Found multiplier for basic radial grid :   1
  | Found angular grid specification: user-specified.
  | Specified grid contains     4 separate shells.
  | Check grid settings after all constraints further below.
  | Found free-atom valence shell :  1 s   1.000
  | No ionic wave fns used. Skipping ion_occ.
  | Found hydrogenic basis function :  2 s   2.100
  | Found hydrogenic basis function :  2 p   3.500
  Species H                   : Missing cutoff potential type.
  Defaulting to exp(1/x)/(1-x)^2 type cutoff potential.
  Species H : No 'logarithmic' tag. Using default grid for free atom:
  | Default logarithmic grid data [bohr] : 0.1000E-03 0.1000E+03 0.1012E+01
  Species H : On-site basis accuracy parameter (for Gram-Schmidt orthonormalisation) not specified.
  Using default value basis_acc =  0.1000000E-03.
  Species H                   : Using default innermost maximum threshold i_radial=  2 for radial functions.
  Species H                   : Default cutoff onset for free atom density etc. : 0.35000000E+01 AA.
  Species H                   : Basic radial grid will be enhanced according to radial_multiplier =   1, to contain    24 grid points.
 
  Reading configuration options for species N                   .
  | Found nuclear charge :   7.0000
  | Found atomic mass :    14.0067000000000      amu
  | Found l_max for Hartree potential  :   4
  | Found cutoff potl. onset [A], width [A], scale factor :    3.50000    1.50000    1.00000
  | Threshold for basis-dependent cutoff potential is   0.100000E-03
  | Found data for basic radial integration grid :    35 points, outermost radius =    5.000 A
  | Found multiplier for basic radial grid :   1
  | Found angular grid specification: user-specified.
  | Specified grid contains     4 separate shells.
  | Check grid settings after all constraints further below.
  | Found free-atom valence shell :  2 s   2.000
  | Found free-atom valence shell :  2 p   3.000
  | No ionic wave fns used. Skipping ion_occ.
  | No ionic wave fns used. Skipping ion_occ.
  | Found hydrogenic basis function :  2 p   1.800
  | Found hydrogenic basis function :  3 d   6.800
  | Found hydrogenic basis function :  3 s   5.800
  Species N                   : Missing cutoff potential type.
  Defaulting to exp(1/x)/(1-x)^2 type cutoff potential.
  Species N : No 'logarithmic' tag. Using default grid for free atom:
  | Default logarithmic grid data [bohr] : 0.1000E-03 0.1000E+03 0.1012E+01
  Species N : On-site basis accuracy parameter (for Gram-Schmidt orthonormalisation) not specified.
  Using default value basis_acc =  0.1000000E-03.
  Species N                   : Using default innermost maximum threshold i_radial=  2 for radial functions.
  Species N                   : Default cutoff onset for free atom density etc. : 0.35000000E+01 AA.
  Species N                   : Basic radial grid will be enhanced according to radial_multiplier =   1, to contain    35 grid points.
 
  Finished reading input file 'control.in'. Consistency checks are next.
 
  MPI_IN_PLACE appears to work with this MPI implementation.
  | Keeping use_mpi_in_place .true. (see manual).
  Target number of points in a grid batch is not set. Defaulting to  100
  Batch size limit is not set. Defaulting to    200
  By default, will store active basis functions for each batch.
  If in need of memory, prune_basis_once .false. can be used to disable this option.
  communication_type for Hartree potential was not specified.
  Defaulting to calc_hartree .
  Pulay mixer: Number of relevant iterations not set.
  Defaulting to    8 iterations.
  Work space size for distributed Hartree potential not set.
  Defaulting to   0.200000E+03 MB.
  Algorithm-dependent basis array size parameters:
  | n_max_pulay                         :        8
  Presetting      1001 iterations before the initial mixing cycle
  is restarted anyway using the sc_init_iter criterion / keyword.
  Presetting a factor      1.000 between actual scf density residual
  and density convergence criterion sc_accuracy_rho below which sc_init_iter
  takes no effect.
  Geometry relaxation not requested: no relaxation will be performed.
  Handling of forces: Unphysical translation and rotation will be removed from forces.
  No accuracy limit for integral partition fn. given. Defaulting to  0.1000E-14.
  No threshold value for u(r) in integrations given. Defaulting to  0.1000E-05.
  No accuracy for occupation numbers given. Defaulting to  0.1000E-12.
  No threshold value for occupation numbers given. Defaulting to  0.0000E+00.
  No accuracy for fermi level given. Defaulting to  0.1000E-19.
  Maximum # of iterations to find E_F not set. Defaulting to  200.
  Will not use alltoall communication since running on < 1024 CPUs.
  Threshold for basis singularities not set.
  Default threshold for basis singularities:  0.1000E-04
  partition_type (choice of integration weights) for integrals was not specified.
  | Using a version of the partition function of Stratmann and coworkers ('stratmann_sparse').
  | At each grid point, the set of atoms used to build the partition table is smoothly restricted to
  | only those atoms whose free-atom density would be non-zero at that grid point.
  Partitioning for Hartree potential was not defined. Using partition_type for integrals.
  | Adjusted default value of keyword multip_moments_threshold to:       0.10000000E-11
  | This value may affect high angular momentum components of the Hartree potential in periodic systems.
  No q(lm)/r^(l+1) cutoff set for long-range Hartree potential.
  | Using default value of  0.100000E-09 .
  | Verify using the multipole_threshold keyword.
  Defaulting to new monopole extrapolation.
  Added default wf_func power     0.0000
  Added default wf_func power     1.0000
  Added default wf_func power     3.0000
  Density update method: automatic selection selected.
  Charge integration errors on the 3D integration grid will be compensated
  by explicit normalization and distribution of residual charges.
  Use the "compensate_multipole_errors" flag to change this behaviour.
------------------------------------------------------------


------------------------------------------------------------
          Reading geometry description geometry.in.
------------------------------------------------------------
  Input structure read successfully.
  The structure contains        4 atoms,  and a total of         10.000 electrons.

  Input geometry:
  | No unit cell requested.
  | Atomic structure:
  |       Atom                x [A]            y [A]            z [A]
  |    1: Species N            -0.10868016        0.09795616        0.10011508
  |    2: Species H             0.77117065        0.37554105        0.54294916
  |    3: Species H            -0.80868444        0.79768550        0.36017340
  |    4: Species H            -0.39449117       -0.78563144        0.53004927
  | The smallest distance between any two atoms is         1.02335598 AA.
  | The first atom of this pair is atom number                      1 .
  | The second atom of this pair is atom number                     3 .

  Structure-dependent array size parameters: 
  | Maximum number of distinct radial functions  :        9
  | Maximum number of basis functions            :       29
  | Number of Kohn-Sham states (occupied + empty):       15
------------------------------------------------------------

------------------------------------------------------------
          Preparing all fixed parts of the calculation.
------------------------------------------------------------
  Determining machine precision:
    2.225073858507201E-308
  Setting up grids for atomic and cluster calculations.

  Creating wave function, potential, and density for free atoms.

  Species: H

  List of occupied orbitals and eigenvalues:
    n    l              occ      energy [Ha]    energy [eV]
    1    0           1.0000        -0.232375        -6.3233


  Species: N

  List of occupied orbitals and eigenvalues:
    n    l              occ      energy [Ha]    energy [eV]
    1    0           2.0000       -14.010258      -381.2385
    2    0           2.0000        -0.675241       -18.3742
    2    1           3.0000        -0.265372        -7.2212

  Creating fixed part of basis set: Ionic, confined, hydrogenic.
 
  H                    hydrogenic:
 
  List of hydrogenic basis orbitals: 
    n    l      effective z      eigenvalue [eV]  inner max. [A]     outer max. [A]     outer radius [A]   
    2    0         2.100000       -14.9728           0.193243           1.317208           4.583499
    2    1         3.500000       -41.6669           0.602369           0.602369           3.723403
 
 
  N                    hydrogenic:
 
  List of hydrogenic basis orbitals: 
    n    l      effective z      eigenvalue [eV]  inner max. [A]     outer max. [A]     outer radius [A]   
    2    1         1.800000       -10.9749           1.177451           1.177451           4.573712
    3    2         6.800000       -69.9026           0.704619           0.704619           3.538137
    3    0         5.800000       -50.8545           0.067388           1.191934           4.250239
 

  Adding cutoff potential to free-atom effective potential.
  Creating atomic-like basis functions for current effective potential.

  Species H                   :

  List of atomic basis orbitals and eigenvalues:
    n    l      energy [Ha]    energy [eV]    outer radius [A]
    1    0        -0.232375        -6.3233       4.527807


  Species N                   :

  List of atomic basis orbitals and eigenvalues:
    n    l      energy [Ha]    energy [eV]    outer radius [A]
    1    0       -14.010258      -381.2385       1.637919
    2    0        -0.675241       -18.3742       4.463241
    2    1        -0.265372        -7.2212       4.518138

  Assembling full basis from fixed parts.
  | Species H :   atomic orbital   1 s accepted.
  | Species H :    hydro orbital   2 s accepted.
  | Species H :    hydro orbital   2 p accepted.
  | Species N :   atomic orbital   1 s accepted.
  | Species N :    hydro orbital   3 s accepted.
  | Species N :   atomic orbital   2 s accepted.
  | Species N :   atomic orbital   2 p accepted.
  | Species N :    hydro orbital   2 p accepted.
  | Species N :    hydro orbital   3 d accepted.
 
  Basis size parameters after reduction:
  | Total number of radial functions:        9
  | Total number of basis functions :       29
 
  Per-task memory consumption for arrays in subroutine allocate_ext:
  |           2.230468MB.
  Testing on-site integration grid accuracy.
  |  Species  Function  <phi|h_atom|phi> (log., in eV)  <phi|h_atom|phi> (rad., in eV)
           1        1                 -6.3245358373                 -6.3232436907
           1        2                 14.1326137532                 14.1384481100
           1        3                 25.3627025200                 25.3628451197
           2        4               -381.2385079825               -381.2384476779
           2        5                 12.3295931514                 12.3294727388
           2        6                -15.4397071272                -15.4397475938
           2        7                 -7.2216044484                 -7.2220524263
           2        8                  8.6560068794                  8.6368042904
           2        9                 35.9397305392                 35.9398347822

  Preparing densities etc. for the partition functions (integrals / Hartree potential).

  Preparations completed.
  max(cpu_time)          :      0.083 s.
  Wall clock time (cpu1) :      0.084 s.
------------------------------------------------------------

------------------------------------------------------------
          Begin self-consistency loop: Initialization.

          Date     :  20190817, Time     :  154512.391
------------------------------------------------------------

  Initializing index lists of integration centers etc. from given atomic structure:
  | Number of centers in hartree potential         :         4
  | Number of centers in hartree multipole         :         4
  | Number of centers in electron density summation:         4
  | Number of centers in basis integrals           :         4
  | Number of centers in integrals                 :         4
  | Number of centers in hamiltonian               :         4
  Initialize wf_extra
  Partitioning the integration grid into batches with parallel hashing+maxmin method.
  | Number of batches:      192
  | Maximal batch size:      98
  | Minimal batch size:      64
  | Average batch size:      75.990
  | Standard deviation of batch sizes:       9.994

  Integration load balanced across     8 MPI tasks.
  Work distribution over tasks is as follows:
  Task     0 has       1860 integration points.
  Task     1 has       1816 integration points.
  Task     2 has       1823 integration points.
  Task     3 has       1822 integration points.
  Task     4 has       1815 integration points.
  Task     5 has       1832 integration points.
  Task     6 has       1832 integration points.
  Task     7 has       1790 integration points.
  Initializing partition tables, free-atom densities, potentials, etc. across the integration grid (initialize_grid_storage).
  | initialize_grid_storage: Actual outermost partition radius vs. multipole_radius_free
  | (-- VB: in principle, multipole_radius_free should be larger, hence this output)
  | Species        1: Confinement radius =              4.999999999999999 AA, multipole_radius_free =              5.054417573612229 AA.
  | Species        1: outer_partition_radius set to              5.054417573612229 AA .
  | Species        2: Confinement radius =              4.999999999999999 AA, multipole_radius_free =              5.043624274424571 AA.
  | Species        2: outer_partition_radius set to              5.043624274424571 AA .
  | The sparse table of interatomic distances needs          0.16 kbyte instead of         0.13 kbyte of memory.
  | Using the partition_type stratmann_smoother will reduce your memory usage.
  | Net number of integration points:    14590
  | of which are non-zero points    :    13163
  Renormalizing the initial density to the exact electron count on the 3D integration grid.
  | Initial density: Formal number of electrons (from input files) :      10.0000000000
  | Integrated number of electrons on 3D grid     :      10.0000113094
  | Charge integration error                      :       0.0000113094
  | Normalization factor for density and gradient :       0.9999988691
  Renormalizing the free-atom superposition density to the exact electron count on the 3D integration grid.
  | Formal number of electrons (from input files) :      10.0000000000
  | Integrated number of electrons on 3D grid     :      10.0000113094
  | Charge integration error                      :       0.0000113094
  | Normalization factor for density and gradient :       0.9999988691
  Obtaining max. number of non-zero basis functions in each batch (get_n_compute_maxes).
  | Maximal number of non-zero basis functions:       29 in task     0
  | Maximal number of non-zero basis functions:       29 in task     1
  | Maximal number of non-zero basis functions:       29 in task     2
  | Maximal number of non-zero basis functions:       29 in task     3
  | Maximal number of non-zero basis functions:       29 in task     4
  | Maximal number of non-zero basis functions:       29 in task     5
  | Maximal number of non-zero basis functions:       29 in task     6
  | Maximal number of non-zero basis functions:       29 in task     7
  Selecting the method for density update.
  Loop over occupied states selected for charge density update.
  Allocating        0.003 MB for KS_eigenvector
  Integrating Hamiltonian matrix: batch-based integration.
  Time summed over all CPUs for integration: real work        0.024 s, elapsed        0.025 s
  Integrating overlap matrix.
  Time summed over all CPUs for integration: real work        0.011 s, elapsed        0.012 s

  Updating Kohn-Sham eigenvalues and eigenvectors using ELSI and the (modified) LAPACK eigensolver.

  Obtaining occupation numbers and chemical potential using ELSI.
  | Chemical potential (Fermi level):    -6.65638609 eV
  Writing Kohn-Sham eigenvalues.

  State    Occupation    Eigenvalue [Ha]    Eigenvalue [eV]
      1       2.00000         -14.149414         -385.02515
      2       2.00000          -0.971883          -26.44627
      3       2.00000          -0.597748          -16.26554
      4       2.00000          -0.597731          -16.26508
      5       2.00000          -0.428235          -11.65288
      6       0.00000          -0.054711           -1.48877
      7       0.00000           0.020888            0.56838
      8       0.00000           0.020899            0.56870
      9       0.00000           0.218633            5.94930
     10       0.00000           0.242717            6.60466
     11       0.00000           0.242727            6.60495
     12       0.00000           0.487672           13.27023
     13       0.00000           0.646500           17.59217
     14       0.00000           0.646563           17.59387
     15       0.00000           0.682369           18.56820

  Highest occupied state (VBM) at    -11.65287704 eV
  | Occupation number:      2.00000000

  Lowest unoccupied state (CBM) at    -1.48877147 eV
  | Occupation number:      0.00000000

  Overall HOMO-LUMO gap:     10.16410557 eV.
  Calculating total energy contributions from superposition of free atom densities.

  Total energy components:
  | Sum of eigenvalues            :         -33.49002087 Ha        -911.30983477 eV
  | XC energy correction          :          -7.22124170 Ha        -196.49998460 eV
  | XC potential correction       :           9.50234670 Ha         258.57200980 eV
  | Free-atom electrostatic energy:         -25.01859549 Ha        -680.79062148 eV
  | Hartree energy correction     :           0.00000000 Ha           0.00000000 eV
  | Entropy correction            :           0.00000000 Ha           0.00000000 eV
  | ---------------------------
  | Total energy                  :         -56.22751136 Ha       -1530.02843106 eV
  | Total energy, T -> 0          :         -56.22751136 Ha       -1530.02843106 eV  <-- do not rely on this value for anything but (periodic) metals
  | Electronic free energy        :         -56.22751136 Ha       -1530.02843106 eV

  Derived energy quantities:
  | Kinetic energy                :          54.85605795 Ha        1492.70928504 eV
  | Electrostatic energy          :        -103.86232760 Ha       -2826.23773150 eV
  | Energy correction for multipole
  | error in Hartree potential    :           0.00000000 Ha           0.00000000 eV
  | Sum of eigenvalues per atom                           :        -227.82745869 eV
  | Total energy (T->0) per atom                          :        -382.50710776 eV  <-- do not rely on this value for anything but (periodic) metals
  | Electronic free energy per atom                       :        -382.50710776 eV
  Initialize hartree_potential_storage
  Max. number of atoms included in rho_multipole:            4

  End scf initialization - timings             :  max(cpu_time)    wall_clock(cpu1)
  | Time for scf. initialization               :        0.017 s           0.017 s
  | Boundary condition initialization          :        0.000 s           0.000 s
  | Integration                                :        0.005 s           0.005 s
  | Solution of K.-S. eqns.                    :        0.001 s           0.001 s
  | Grid partitioning                          :        0.005 s           0.005 s
  | Preloading free-atom quantities on grid    :        0.001 s           0.001 s
  | Free-atom superposition energy             :        0.001 s           0.002 s
  | Total energy evaluation                    :        0.000 s           0.000 s

  Partial memory accounting:
  | Current value for overall tracked memory usage:
  |   Minimum:        0.010 MB (on task 0)
  |   Maximum:        0.010 MB (on task 0)
  |   Average:        0.010 MB
  | Peak value for overall tracked memory usage:
  |   Minimum:        0.082 MB (on task 0 after allocating wave)
  |   Maximum:        0.090 MB (on task 2 after allocating grid_partition)
  |   Average:        0.083 MB
  | Largest tracked array allocation so far:
  |   Minimum:        0.024 MB (all_coords on task 1)
  |   Maximum:        0.060 MB (all_coords on task 2)
  |   Average:        0.042 MB
  Note:  These values currently only include a subset of arrays which are explicitly tracked.
  The "true" memory usage will be greater.
------------------------------------------------------------
Convergence:    q app. |  density  | eigen (eV) | Etot (eV) | forces (eV/A) |       CPU time |     Clock time
  SCF    1 : -0.51E-14 |  0.35E+00 |   0.56E+02 |  0.31E+01 |             . |        0.011 s |        0.012 s
  SCF    2 :  0.23E-14 |  0.15E+00 |  -0.11E+01 |  0.15E+00 |             . |        0.011 s |        0.011 s
  SCF    3 : -0.81E-14 |  0.86E-01 |   0.49E+01 |  0.78E-01 |             . |        0.010 s |        0.010 s
  SCF    4 :  0.87E-14 |  0.41E-02 |  -0.48E+00 |  0.34E-03 |             . |        0.010 s |        0.010 s
  SCF    5 : -0.35E-14 |  0.17E-02 |   0.25E+00 | -0.52E-04 |             . |        0.011 s |        0.011 s
  SCF    6 :  0.77E-14 |  0.37E-03 |  -0.24E-01 |  0.14E-04 |             . |        0.010 s |        0.010 s
  SCF    7 : -0.51E-14 |  0.69E-04 |   0.38E-02 |  0.18E-05 |             . |        0.011 s |        0.011 s
  SCF    8 :  0.13E-13 |  0.25E-04 |  -0.31E-02 | -0.93E-07 |             . |        0.011 s |        0.011 s
  SCF    9 : -0.10E-14 |  0.29E-05 |   0.22E-03 |  0.57E-07 |             . |        0.011 s |        0.010 s
  SCF   10 : -0.33E-14 |  0.22E-06 |  -0.53E-04 | -0.29E-08 |             . |        0.011 s |        0.010 s
  SCF   11 : -0.61E-14 |  0.19E-06 |   0.20E-04 |  0.63E-09 |      0.58E+01 |        0.017 s |        0.017 s
  SCF   12 : -0.16E-14 |  0.12E-07 |   0.16E-05 |  0.15E-09 |      0.32E-06 |        0.020 s |        0.020 s

  Total energy components:
  | Sum of eigenvalues            :         -31.29508653 Ha        -851.58263264 eV
  | XC energy correction          :          -7.49990638 Ha        -204.08283615 eV
  | XC potential correction       :           9.86896494 Ha         268.54819955 eV
  | Free-atom electrostatic energy:         -25.01859549 Ha        -680.79062148 eV
  | Hartree energy correction     :          -2.15922925 Ha         -58.75561733 eV
  | Entropy correction            :           0.00000000 Ha           0.00000000 eV
  | ---------------------------
  | Total energy                  :         -56.10385271 Ha       -1526.66350805 eV
  | Total energy, T -> 0          :         -56.10385271 Ha       -1526.66350805 eV  <-- do not rely on this value for anything but (periodic) metals
  | Electronic free energy        :         -56.10385271 Ha       -1526.66350805 eV

  Derived energy quantities:
  | Kinetic energy                :          55.74412359 Ha        1516.87478060 eV
  | Electrostatic energy          :        -104.34806992 Ha       -2839.45545250 eV
  | Energy correction for multipole
  | error in Hartree potential    :          -0.00168784 Ha          -0.04592848 eV
  | Sum of eigenvalues per atom                           :        -212.89565816 eV
  | Total energy (T->0) per atom                          :        -381.66587701 eV  <-- do not rely on this value for anything but (periodic) metals
  | Electronic free energy per atom                       :        -381.66587701 eV
  Highest occupied state (VBM) at     -6.03723877 eV
  | Occupation number:      2.00000000

  Lowest unoccupied state (CBM) at     0.50997024 eV
  | Occupation number:      0.00000000

  Overall HOMO-LUMO gap:      6.54720901 eV.

  Self-consistency cycle converged.

  ------------------------------------------------------------
  Computing monopole / dipole moments
  | Total electronic charge [e]         :          0.100000000000000E+02
  | Total ionic charge [e]              :          0.100000000000000E+02
  | Total charge [e]                    :          0.000000000000000E+00
  | Total dipole moment [eAng]          :         -0.329611312177584E-01         0.291587729458202E-01         0.352220349423325E+00
  | Absolute dipole moment              :          0.354958933904683E+00 eAng              /                   0.170467470741586E+01 Debye  .
  Removing unitary transformations (pure translations, rotations) from forces on atoms.
  Atomic forces before filtering:
  | Net force on center of mass :  -0.735409E-04 -0.295903E-04 -0.301630E-02 eV/A
  | Net torque on center of mass:   0.518768E-04  0.111987E-03  0.218517E-04 eV
  Atomic forces after filtering:
  | Net force on center of mass :  -0.174225E-18  0.000000E+00  0.174225E-18 eV/A
  | Net torque on center of mass:   0.184392E-18 -0.749091E-19  0.184392E-18 eV

  Energy and forces in a compact form:
  | Total energy uncorrected      :         -0.152666350805032E+04 eV
  | Total energy corrected        :         -0.152666350805032E+04 eV  <-- do not rely on this value for anything but (periodic) metals
  | Electronic free energy        :         -0.152666350805032E+04 eV
  Total atomic forces (unitary forces cleaned) [eV/Ang]:
  |    1          0.406875506477317E-03         -0.210840232921735E-03         -0.132065232614945E-02
  |    2         -0.662912536899604E-02         -0.128896175621562E-02         -0.121135760694235E-03
  |    3          0.476940727822295E-02         -0.428831073227761E-02          0.133269085628390E-02
  |    4          0.145284258429577E-02          0.578811272141496E-02          0.109097230559785E-03

  Save eigenvectors for extrapolation
  Relaxation / MD: End force evaluation.       :  max(cpu_time)    wall_clock(cpu1)
  | Time for this force evaluation             :        0.166 s           0.167 s

------------------------------------------------------------
  Molecular dynamics: Attempting to update all nuclear coordinates.

  Removing unitary transformations (pure translations, rotations) from forces on atoms.
  Atomic forces before filtering:
  | Net force on center of mass :  -0.174225E-18  0.000000E+00  0.174225E-18 eV/A
  | Net torque on center of mass:   0.184392E-18 -0.749091E-19  0.184392E-18 eV
  Atomic forces after filtering:
  | Net force on center of mass :  -0.348449E-18  0.000000E+00  0.435562E-19 eV/A
  | Net torque on center of mass:  -0.184392E-18 -0.293874E-18  0.000000E+00 eV
  | Initial seed for random number generator from system time:                   154512

------------------------------------------------------------
  Advancing structure using Born-Oppenheimer Molecular Dynamics:
  Complete information for previous time-step:
  | Time step number          :        0
  | Simulation time           :           0.000000000000000E+00 ps
  | Electronic free energy    :          -0.152666350805032E+04 eV
  | Temperature (nuclei)      :           0.599999999964243E+03 K
  | Nuclear kinetic energy    :           0.310224348447180E+00 eV
  | Total energy (el.+nuc.)   :          -0.152635328370187E+04 eV
------------------------------------------------------------
  Atomic structure (and velocities) as used in the preceding time step:
                      x [A]             y [A]             z [A]       Atom
   atom              -0.10868016        0.09795616        0.10011508  N
     velocity          -2.24817502          5.75230743          1.17477081
   atom               0.77117065        0.37554105        0.54294916  H
     velocity          14.62811479          0.72813294         -5.09617757
   atom              -0.80868444        0.79768550        0.36017340  H
     velocity          31.25727779        -36.63987556        -23.14174948
   atom              -0.39449117       -0.78563144        0.53004927  H
     velocity         -14.64393662        -44.02440876         11.91288553
------------------------------------------------------------

------------------------------------------------------------
          Begin self-consistency loop: Re-initialization.

  Date     :  20190817, Time     :  154512.558
------------------------------------------------------------
  Extrapolating wavefunction / Hamiltonian for scf reinitialization.

  Initializing index lists of integration centers etc. from given atomic structure:
  | Number of centers in hartree potential         :         4
  | Number of centers in hartree multipole         :         4
  | Number of centers in electron density summation:         4
  | Number of centers in basis integrals           :         4
  | Number of centers in integrals                 :         4
  | Number of centers in hamiltonian               :         4
  Partitioning the integration grid into batches with parallel hashing+maxmin method.
  Initializing partition tables, free-atom densities, potentials, etc. across the integration grid (initialize_grid_storage).
  | Species        1: outer_partition_radius set to              5.054417573612229 AA .
  | Species        2: outer_partition_radius set to              5.043624274424571 AA .
  | The sparse table of interatomic distances needs          0.16 kbyte instead of         0.13 kbyte of memory.
  | Using the partition_type stratmann_smoother will reduce your memory usage.
  | Net number of integration points:    14590
  | of which are non-zero points    :    13166
  Renormalizing the initial density to the exact electron count on the 3D integration grid.
  | Initial density: Formal number of electrons (from input files) :      10.0000000000
  | Integrated number of electrons on 3D grid     :      10.0000124832
  | Charge integration error                      :       0.0000124832
  | Normalization factor for density and gradient :       0.9999987517
  Renormalizing the free-atom superposition density to the exact electron count on the 3D integration grid.
  | Formal number of electrons (from input files) :      10.0000000000
  | Integrated number of electrons on 3D grid     :      10.0000124832
  | Charge integration error                      :       0.0000124832
  | Normalization factor for density and gradient :       0.9999987517
  Calculating total energy contributions from superposition of free atom densities.
  Initialize hartree_potential_storage
  Max. number of atoms included in rho_multipole:            4
  Integrating overlap matrix.
  Time summed over all CPUs for integration: real work        0.011 s, elapsed        0.012 s
  Orthonormalizing eigenvectors

  End scf reinitialization - timings           :  max(cpu_time)    wall_clock(cpu1)
  | Time for scf. reinitialization             :        0.009 s           0.009 s
  | Boundary condition initialization          :        0.000 s           0.000 s
  | Integration                                :        0.002 s           0.001 s
  | Grid partitioning                          :        0.004 s           0.003 s
  | Preloading free-atom quantities on grid    :        0.002 s           0.002 s
  | Free-atom superposition energy             :        0.001 s           0.002 s
  | K.-S. eigenvector reorthonormalization     :        0.000 s           0.000 s
------------------------------------------------------------
Convergence:    q app. |  density  | eigen (eV) | Etot (eV) | forces (eV/A) |       CPU time |     Clock time
  SCF    1 :  0.85E-15 |  0.19E+00 |  -0.85E+03 | -0.15E+04 |             . |        0.010 s |        0.011 s
  SCF    2 : -0.63E-15 |  0.87E-02 |   0.35E-01 |  0.82E-03 |             . |        0.011 s |        0.011 s
  SCF    3 :  0.71E-15 |  0.45E-02 |  -0.26E-01 |  0.20E-03 |             . |        0.011 s |        0.011 s
  SCF    4 :  0.97E-15 |  0.69E-03 |   0.16E-01 |  0.76E-05 |             . |        0.011 s |        0.010 s
  SCF    5 :  0.00E+00 |  0.12E-03 |  -0.59E-02 | -0.67E-06 |             . |        0.010 s |        0.010 s
  SCF    6 : -0.14E-14 |  0.46E-04 |   0.67E-04 |  0.11E-06 |             . |        0.011 s |        0.011 s
  SCF    7 :  0.90E-14 |  0.42E-05 |   0.23E-04 | -0.15E-07 |             . |        0.011 s |        0.010 s
  SCF    8 : -0.30E-14 |  0.32E-06 |  -0.76E-05 | -0.28E-08 |      0.59E+01 |        0.018 s |        0.017 s
  SCF    9 :  0.80E-14 |  0.90E-07 |   0.52E-05 |  0.39E-09 |      0.73E-05 |        0.021 s |        0.022 s

  Total energy components:
  | Sum of eigenvalues            :         -31.29340068 Ha        -851.53675822 eV
  | XC energy correction          :          -7.49956228 Ha        -204.07347273 eV
  | XC potential correction       :           9.86851372 Ha         268.53592141 eV
  | Free-atom electrostatic energy:         -25.01771363 Ha        -680.76662490 eV
  | Hartree energy correction     :          -2.16046687 Ha         -58.78929471 eV
  | Entropy correction            :           0.00000000 Ha           0.00000000 eV
  | ---------------------------
  | Total energy                  :         -56.10262973 Ha       -1526.63022915 eV
  | Total energy, T -> 0          :         -56.10262973 Ha       -1526.63022915 eV  <-- do not rely on this value for anything but (periodic) metals
  | Electronic free energy        :         -56.10262973 Ha       -1526.63022915 eV

  Derived energy quantities:
  | Kinetic energy                :          55.74331762 Ha        1516.85284909 eV
  | Electrostatic energy          :        -104.34638508 Ha       -2839.40960551 eV
  | Energy correction for multipole
  | error in Hartree potential    :          -0.00171235 Ha          -0.04659532 eV
  | Sum of eigenvalues per atom                           :        -212.88418955 eV
  | Total energy (T->0) per atom                          :        -381.65755729 eV  <-- do not rely on this value for anything but (periodic) metals
  | Electronic free energy per atom                       :        -381.65755729 eV
  Highest occupied state (VBM) at     -6.01457241 eV
  | Occupation number:      2.00000000

  Lowest unoccupied state (CBM) at     0.49993548 eV
  | Occupation number:      0.00000000

  Overall HOMO-LUMO gap:      6.51450790 eV.

  Self-consistency cycle converged.

  ------------------------------------------------------------
  Computing monopole / dipole moments
  | Total electronic charge [e]         :          0.100000000000000E+02
  | Total ionic charge [e]              :          0.100000000000000E+02
  | Total charge [e]                    :          0.000000000000000E+00
  | Total dipole moment [eAng]          :         -0.311326181949665E-01         0.249067218279817E-01         0.348668477087157E+00
  | Absolute dipole moment              :          0.350940581327049E+00 eAng              /                   0.168537674545384E+01 Debye  .
  Removing unitary transformations (pure translations, rotations) from forces on atoms.
  Atomic forces before filtering:
  | Net force on center of mass :   0.341989E-03 -0.254634E-04 -0.305538E-02 eV/A
  | Net torque on center of mass:  -0.264244E-03 -0.868710E-04  0.394546E-04 eV
  Atomic forces after filtering:
  | Net force on center of mass :   0.000000E+00  0.000000E+00  0.000000E+00 eV/A
  | Net torque on center of mass:   0.236021E-16 -0.944085E-16  0.000000E+00 eV

  Energy and forces in a compact form:
  | Total energy uncorrected      :         -0.152663022915396E+04 eV
  | Total energy corrected        :         -0.152663022915396E+04 eV  <-- do not rely on this value for anything but (periodic) metals
  | Electronic free energy        :         -0.152663022915396E+04 eV
  Total atomic forces (unitary forces cleaned) [eV/Ang]:
  |    1          0.831952757499159E+00         -0.173604888203827E+01          0.131004531599692E+00
  |    2         -0.223931589770289E+00         -0.819912553519858E-01         -0.783074533505817E-01
  |    3         -0.916693082166530E+00          0.920936530874265E+00          0.350617616012132E+00
  |    4          0.308671914437661E+00          0.897103606515989E+00         -0.403314694261242E+00

  Save eigenvectors for extrapolation
  Relaxation / MD: End force evaluation.       :  max(cpu_time)    wall_clock(cpu1)
  | Time for this force evaluation             :        0.126 s           0.126 s

------------------------------------------------------------
  Molecular dynamics: Attempting to update all nuclear coordinates.

  Removing unitary transformations (pure translations, rotations) from forces on atoms.
  Atomic forces before filtering:
  | Net force on center of mass :   0.000000E+00  0.000000E+00  0.000000E+00 eV/A
  | Net torque on center of mass:   0.236021E-16 -0.944085E-16  0.000000E+00 eV
  Atomic forces after filtering:
  | Net force on center of mass :   0.000000E+00  0.000000E+00  0.000000E+00 eV/A
  | Net torque on center of mass:   0.236021E-16 -0.944085E-16  0.000000E+00 eV
------------------------------------------------------------
  Advancing structure using Born-Oppenheimer Molecular Dynamics:
  Complete information for previous time-step:
  | Time step number          :        1
  | Simulation time           :           0.500000000000000E-03 ps
  | Electronic free energy    :          -0.152663022915396E+04 eV
  | Temperature (nuclei)      :           0.537028498357694E+03 K
  | Nuclear kinetic energy    :           0.277665526684186E+00 eV
  | Total energy (el.+nuc.)   :          -0.152635256362728E+04 eV
------------------------------------------------------------
  Atomic structure (and velocities) as used in the preceding time step:
                      x [A]             y [A]             z [A]       Atom
   atom              -0.10980421        0.10083230        0.10070235  N
     velocity          -2.10483199          5.45330118          1.19710404
   atom               0.77847678        0.37590357        0.54040093  H
     velocity          14.07635248          0.52883236         -5.28386757
   atom              -0.79305009        0.77936043        0.34860412  H
     velocity          29.07492371        -34.44621503        -22.29948581
   atom              -0.40181140       -0.80763672        0.53600584  H
     velocity         -13.90176703        -41.86366935         10.94796117
------------------------------------------------------------
          Begin self-consistency loop: Re-initialization.

  Date     :  20190817, Time     :  154512.687
------------------------------------------------------------
  | Extrapolation coeffs:  2.00E+00 -1.00E+00
  Partitioning the integration grid into batches with parallel hashing+maxmin method.
  Initializing partition tables, free-atom densities, potentials, etc. across the integration grid (initialize_grid_storage).
  | Species        1: outer_partition_radius set to              5.054417573612229 AA .
  | Species        2: outer_partition_radius set to              5.043624274424571 AA .
  | The sparse table of interatomic distances needs          0.16 kbyte instead of         0.13 kbyte of memory.
  | Using the partition_type stratmann_smoother will reduce your memory usage.
  | Net number of integration points:    14590
  | of which are non-zero points    :    13162
  Renormalizing the initial density to the exact electron count on the 3D integration grid.
  | Initial density: Formal number of electrons (from input files) :      10.0000000000
  | Integrated number of electrons on 3D grid     :      10.0000038711
  | Charge integration error                      :       0.0000038711
  | Normalization factor for density and gradient :       0.9999996129
  Renormalizing the free-atom superposition density to the exact electron count on the 3D integration grid.
  | Formal number of electrons (from input files) :      10.0000000000
  | Integrated number of electrons on 3D grid     :      10.0000038711
  | Charge integration error                      :       0.0000038711
  | Normalization factor for density and gradient :       0.9999996129
  Calculating total energy contributions from superposition of free atom densities.
  Initialize hartree_potential_storage
  Max. number of atoms included in rho_multipole:            4
  Integrating overlap matrix.
  Time summed over all CPUs for integration: real work        0.011 s, elapsed        0.012 s
  Orthonormalizing eigenvectors

  End scf reinitialization - timings           :  max(cpu_time)    wall_clock(cpu1)
  | Time for scf. reinitialization             :        0.012 s           0.009 s
  | Boundary condition initialization          :        0.000 s           0.000 s
  | Integration                                :        0.002 s           0.002 s
  | Grid partitioning                          :        0.004 s           0.004 s
  | Preloading free-atom quantities on grid    :        0.002 s           0.002 s
  | Free-atom superposition energy             :        0.001 s           0.001 s
  | K.-S. eigenvector reorthonormalization     :        0.000 s           0.000 s
------------------------------------------------------------
Convergence:    q app. |  density  | eigen (eV) | Etot (eV) | forces (eV/A) |       CPU time |     Clock time
  SCF    1 : -0.14E-14 |  0.20E+00 |  -0.85E+03 | -0.15E+04 |             . |        0.011 s |        0.011 s
  SCF    2 : -0.55E-14 |  0.10E-02 |   0.42E-01 |  0.12E-04 |             . |        0.010 s |        0.010 s
  SCF    3 : -0.54E-15 |  0.53E-03 |  -0.35E-02 | -0.22E-05 |             . |        0.011 s |        0.010 s
  SCF    4 : -0.12E-13 |  0.14E-03 |   0.62E-02 | -0.34E-06 |             . |        0.011 s |        0.010 s
  SCF    5 :  0.86E-15 |  0.33E-04 |  -0.61E-03 | -0.20E-06 |             . |        0.011 s |        0.010 s
  SCF    6 :  0.30E-14 |  0.58E-05 |  -0.48E-04 |  0.25E-07 |             . |        0.011 s |        0.010 s
  SCF    7 : -0.94E-14 |  0.58E-06 |   0.61E-06 |  0.48E-08 |      0.63E+01 |        0.018 s |        0.017 s
  SCF    8 : -0.40E-14 |  0.77E-07 |  -0.10E-05 |  0.50E-09 |      0.83E-05 |        0.021 s |        0.021 s

  Total energy components:
  | Sum of eigenvalues            :         -31.29275037 Ha        -851.51906230 eV
  | XC energy correction          :          -7.49993556 Ha        -204.08363018 eV
  | XC potential correction       :           9.86901222 Ha         268.54948613 eV
  | Free-atom electrostatic energy:         -25.01027358 Ha        -680.56417089 eV
  | Hartree energy correction     :          -2.16550479 Ha         -58.92638343 eV
  | Entropy correction            :           0.00000000 Ha           0.00000000 eV
  | ---------------------------
  | Total energy                  :         -56.09945208 Ha       -1526.54376067 eV
  | Total energy, T -> 0          :         -56.09945208 Ha       -1526.54376067 eV  <-- do not rely on this value for anything but (periodic) metals
  | Electronic free energy        :         -56.09945208 Ha       -1526.54376067 eV

  Derived energy quantities:
  | Kinetic energy                :          55.74817974 Ha        1516.98515403 eV
  | Electrostatic energy          :        -104.34769626 Ha       -2839.44528452 eV
  | Energy correction for multipole
  | error in Hartree potential    :          -0.00174050 Ha          -0.04736146 eV
  | Sum of eigenvalues per atom                           :        -212.87976558 eV
  | Total energy (T->0) per atom                          :        -381.63594017 eV  <-- do not rely on this value for anything but (periodic) metals
  | Electronic free energy per atom                       :        -381.63594017 eV
  Highest occupied state (VBM) at     -5.99342208 eV
  | Occupation number:      2.00000000

  Lowest unoccupied state (CBM) at     0.47425342 eV
  | Occupation number:      0.00000000

  Overall HOMO-LUMO gap:      6.46767550 eV.

  Self-consistency cycle converged.

  ------------------------------------------------------------
  Computing monopole / dipole moments
  | Total electronic charge [e]         :          0.100000000000000E+02
  | Total ionic charge [e]              :          0.100000000000000E+02
  | Total charge [e]                    :          0.000000000000000E+00
  | Total dipole moment [eAng]          :         -0.291575599065743E-01         0.209247639007502E-01         0.345142515751361E+00
  | Absolute dipole moment              :          0.347003408085837E+00 eAng              /                   0.166646864369351E+01 Debye  .
  Removing unitary transformations (pure translations, rotations) from forces on atoms.
  Atomic forces before filtering:
  | Net force on center of mass :   0.657645E-03 -0.210811E-03 -0.293642E-02 eV/A
  | Net torque on center of mass:  -0.609836E-03 -0.301721E-03  0.179255E-04 eV
  Atomic forces after filtering:
  | Net force on center of mass :   0.178406E-15  0.178406E-15  0.000000E+00 eV/A
  | Net torque on center of mass:  -0.330430E-15 -0.472042E-16 -0.377634E-15 eV

  Energy and forces in a compact form:
  | Total energy uncorrected      :         -0.152654376066558E+04 eV
  | Total energy corrected        :         -0.152654376066558E+04 eV  <-- do not rely on this value for anything but (periodic) metals
  | Electronic free energy        :         -0.152654376066558E+04 eV
  Total atomic forces (unitary forces cleaned) [eV/Ang]:
  |    1          0.175968377525244E+01         -0.332252091545976E+01          0.142664802797285E+00
  |    2         -0.417648980910050E+00         -0.146965634231623E+00         -0.143162631334926E+00
  |    3         -0.188458336416103E+01          0.188086676564877E+01          0.703324683083147E+00
  |    4          0.542548569818642E+00          0.158861978404262E+01         -0.702826854545506E+00

  Save eigenvectors for extrapolation
  Relaxation / MD: End force evaluation.       :  max(cpu_time)    wall_clock(cpu1)
  | Time for this force evaluation             :        0.116 s           0.116 s

------------------------------------------------------------
  Molecular dynamics: Attempting to update all nuclear coordinates.

  Removing unitary transformations (pure translations, rotations) from forces on atoms.
  Atomic forces before filtering:
  | Net force on center of mass :   0.178406E-15  0.178406E-15  0.000000E+00 eV/A
  | Net torque on center of mass:  -0.330430E-15 -0.472042E-16 -0.377634E-15 eV
  Atomic forces after filtering:
  | Net force on center of mass :   0.000000E+00  0.178406E-15 -0.892031E-16 eV/A
  | Net torque on center of mass:  -0.519247E-15 -0.472042E-16 -0.377634E-15 eV
------------------------------------------------------------
  Advancing structure using Born-Oppenheimer Molecular Dynamics:
  Complete information for previous time-step:
  | Time step number          :        2
  | Simulation time           :           0.100000000000000E-02 ps
  | Electronic free energy    :          -0.152654376066558E+04 eV
  | Temperature (nuclei)      :           0.374119388025119E+03 K
  | Nuclear kinetic energy    :           0.193434905664111E+00 eV
  | Total energy (el.+nuc.)   :          -0.152635032575991E+04 eV
------------------------------------------------------------
  Atomic structure (and velocities) as used in the preceding time step:
                      x [A]             y [A]             z [A]       Atom
   atom              -0.11078499        0.10340946        0.10131218  N
     velocity          -1.65851886          4.58215041          1.24423342
   atom               0.78524700        0.37606988        0.53766529  H
     velocity          12.54096524         -0.01909179         -5.81387480
   atom              -0.77960952        0.76323928        0.33787391  H
     velocity          22.37109835        -27.74112885        -19.77726237
   atom              -0.40839294       -0.82749511        0.54099723  H
     velocity         -11.86468372        -35.91500423          8.30081801
------------------------------------------------------------
          Begin self-consistency loop: Re-initialization.

  Date     :  20190817, Time     :  154512.804
------------------------------------------------------------
  | Extrapolation coeffs:  2.50E+00 -2.00E+00  5.00E-01
  Partitioning the integration grid into batches with parallel hashing+maxmin method.
  Initializing partition tables, free-atom densities, potentials, etc. across the integration grid (initialize_grid_storage).
  | Species        1: outer_partition_radius set to              5.054417573612229 AA .
  | Species        2: outer_partition_radius set to              5.043624274424571 AA .
  | The sparse table of interatomic distances needs          0.16 kbyte instead of         0.13 kbyte of memory.
  | Using the partition_type stratmann_smoother will reduce your memory usage.
  | Net number of integration points:    14590
  | of which are non-zero points    :    13169
  Renormalizing the initial density to the exact electron count on the 3D integration grid.
  | Initial density: Formal number of electrons (from input files) :      10.0000000000
  | Integrated number of electrons on 3D grid     :       9.9999944795
  | Charge integration error                      :      -0.0000055205
  | Normalization factor for density and gradient :       1.0000005520
  Renormalizing the free-atom superposition density to the exact electron count on the 3D integration grid.
  | Formal number of electrons (from input files) :      10.0000000000
  | Integrated number of electrons on 3D grid     :       9.9999944795
  | Charge integration error                      :      -0.0000055205
  | Normalization factor for density and gradient :       1.0000005520
  Calculating total energy contributions from superposition of free atom densities.
  Initialize hartree_potential_storage
  Max. number of atoms included in rho_multipole:            4
  Integrating overlap matrix.
  Time summed over all CPUs for integration: real work        0.012 s, elapsed        0.013 s
  Orthonormalizing eigenvectors

  End scf reinitialization - timings           :  max(cpu_time)    wall_clock(cpu1)
  | Time for scf. reinitialization             :        0.011 s           0.009 s
  | Boundary condition initialization          :        0.000 s           0.000 s
  | Integration                                :        0.002 s           0.001 s
  | Grid partitioning                          :        0.004 s           0.004 s
  | Preloading free-atom quantities on grid    :        0.002 s           0.002 s
  | Free-atom superposition energy             :        0.001 s           0.002 s
  | K.-S. eigenvector reorthonormalization     :        0.000 s           0.000 s
------------------------------------------------------------
Convergence:    q app. |  density  | eigen (eV) | Etot (eV) | forces (eV/A) |       CPU time |     Clock time
  SCF    1 : -0.99E-14 |  0.20E+00 |  -0.85E+03 | -0.15E+04 |             . |        0.011 s |        0.010 s
  SCF    2 : -0.63E-14 |  0.16E-02 |  -0.53E-01 |  0.28E-04 |             . |        0.011 s |        0.010 s
  SCF    3 : -0.97E-14 |  0.78E-03 |   0.12E-01 |  0.13E-04 |             . |        0.011 s |        0.011 s
  SCF    4 :  0.66E-14 |  0.20E-03 |  -0.83E-02 |  0.59E-06 |             . |        0.011 s |        0.011 s
  SCF    5 :  0.87E-15 |  0.50E-04 |   0.51E-03 |  0.23E-06 |             . |        0.010 s |        0.010 s
  SCF    6 :  0.29E-14 |  0.79E-05 |   0.13E-03 | -0.44E-07 |             . |        0.011 s |        0.011 s
  SCF    7 : -0.14E-13 |  0.76E-06 |  -0.13E-04 |  0.62E-08 |             . |        0.011 s |        0.011 s
  SCF    8 :  0.11E-13 |  0.10E-06 |  -0.12E-05 |  0.12E-08 |      0.68E+01 |        0.017 s |        0.018 s
  SCF    9 : -0.39E-14 |  0.15E-07 |   0.22E-06 |  0.11E-09 |      0.20E-05 |        0.020 s |        0.020 s

  Total energy components:
  | Sum of eigenvalues            :         -31.29192018 Ha        -851.49647175 eV
  | XC energy correction          :          -7.49997820 Ha        -204.08479056 eV
  | XC potential correction       :           9.86907572 Ha         268.55121416 eV
  | Free-atom electrostatic energy:         -25.00332149 Ha        -680.37499473 eV
  | Hartree energy correction     :          -2.16959291 Ha         -59.03762685 eV
  | Entropy correction            :           0.00000000 Ha           0.00000000 eV
  | ---------------------------
  | Total energy                  :         -56.09573705 Ha       -1526.44266972 eV
  | Total energy, T -> 0          :         -56.09573705 Ha       -1526.44266972 eV  <-- do not rely on this value for anything but (periodic) metals
  | Electronic free energy        :         -56.09573705 Ha       -1526.44266972 eV

  Derived energy quantities:
  | Kinetic energy                :          55.75258171 Ha        1517.10493769 eV
  | Electrostatic energy          :        -104.34834056 Ha       -2839.46281686 eV
  | Energy correction for multipole
  | error in Hartree potential    :          -0.00176856 Ha          -0.04812503 eV
  | Sum of eigenvalues per atom                           :        -212.87411794 eV
  | Total energy (T->0) per atom                          :        -381.61066743 eV  <-- do not rely on this value for anything but (periodic) metals
  | Electronic free energy per atom                       :        -381.61066743 eV
  Highest occupied state (VBM) at     -5.97304239 eV
  | Occupation number:      2.00000000

  Lowest unoccupied state (CBM) at     0.44213434 eV
  | Occupation number:      0.00000000

  Overall HOMO-LUMO gap:      6.41517674 eV.

  Self-consistency cycle converged.

  ------------------------------------------------------------
  Computing monopole / dipole moments
  | Total electronic charge [e]         :          0.100000000000000E+02
  | Total ionic charge [e]              :          0.100000000000000E+02
  | Total charge [e]                    :          0.000000000000000E+00
  | Total dipole moment [eAng]          :         -0.274756373128928E-01         0.176613784029185E-01         0.341585962261490E+00
  | Absolute dipole moment              :          0.343143999724530E+00 eAng              /                   0.164793400435725E+01 Debye  .
  Removing unitary transformations (pure translations, rotations) from forces on atoms.
  Atomic forces before filtering:
  | Net force on center of mass :   0.515673E-03 -0.770125E-04 -0.264516E-02 eV/A
  | Net torque on center of mass:  -0.791096E-03 -0.339086E-03  0.219423E-05 eV
  Atomic forces after filtering:
  | Net force on center of mass :   0.000000E+00  0.000000E+00  0.000000E+00 eV/A
  | Net torque on center of mass:   0.141613E-15  0.000000E+00 -0.944085E-16 eV

  Energy and forces in a compact form:
  | Total energy uncorrected      :         -0.152644266972356E+04 eV
  | Total energy corrected        :         -0.152644266972356E+04 eV  <-- do not rely on this value for anything but (periodic) metals
  | Electronic free energy        :         -0.152644266972356E+04 eV
  Total atomic forces (unitary forces cleaned) [eV/Ang]:
  |    1          0.254720726866503E+01         -0.455095789967539E+01          0.103503293198666E+00
  |    2         -0.568709550329166E+00         -0.189395582941533E+00         -0.185505413378924E+00
  |    3         -0.268225717193048E+01          0.266503843666321E+01          0.983425503824491E+00
  |    4          0.703759453594616E+00          0.207531504595371E+01         -0.901423383644234E+00

  Save eigenvectors for extrapolation
  Relaxation / MD: End force evaluation.       :  max(cpu_time)    wall_clock(cpu1)
  | Time for this force evaluation             :        0.125 s           0.126 s

------------------------------------------------------------
  Molecular dynamics: Attempting to update all nuclear coordinates.

  Removing unitary transformations (pure translations, rotations) from forces on atoms.
  Atomic forces before filtering:
  | Net force on center of mass :   0.000000E+00  0.000000E+00  0.000000E+00 eV/A
  | Net torque on center of mass:   0.141613E-15  0.000000E+00 -0.944085E-16 eV
  Atomic forces after filtering:
  | Net force on center of mass :  -0.892031E-16  0.000000E+00  0.000000E+00 eV/A
  | Net torque on center of mass:  -0.141613E-15 -0.472042E-16 -0.188817E-15 eV
------------------------------------------------------------
  Advancing structure using Born-Oppenheimer Molecular Dynamics:
  Complete information for previous time-step:
  | Time step number          :        3
  | Simulation time           :           0.150000000000000E-02 ps
  | Electronic free energy    :          -0.152644266972356E+04 eV
  | Temperature (nuclei)      :           0.184464998261345E+03 K
  | Nuclear kinetic energy    :           0.953758898339104E-01 eV
  | Total energy (el.+nuc.)   :          -0.152634729383373E+04 eV
------------------------------------------------------------
  Atomic structure (and velocities) as used in the preceding time step:
                      x [A]             y [A]             z [A]       Atom
   atom              -0.11146273        0.10541445        0.10194659  N
     velocity          -0.91681684          3.22623611          1.28662673
   atom               0.79101774        0.37588448        0.53458705  H
     velocity          10.18047871         -0.82404870         -6.60042094
   atom              -0.77067900        0.75161930        0.32882686  H
     velocity          11.44204440        -16.86217592        -15.74064588
   atom              -0.41367608       -0.84355172        0.54430666  H
     velocity          -8.88210364        -27.14672316          4.46163483
------------------------------------------------------------
          Begin self-consistency loop: Re-initialization.

  Date     :  20190817, Time     :  154512.931
------------------------------------------------------------
  | Extrapolation coeffs:  2.50E+00 -2.00E+00  5.00E-01
  Partitioning the integration grid into batches with parallel hashing+maxmin method.
  Initializing partition tables, free-atom densities, potentials, etc. across the integration grid (initialize_grid_storage).
  | Species        1: outer_partition_radius set to              5.054417573612229 AA .
  | Species        2: outer_partition_radius set to              5.043624274424571 AA .
  | The sparse table of interatomic distances needs          0.16 kbyte instead of         0.13 kbyte of memory.
  | Using the partition_type stratmann_smoother will reduce your memory usage.
  | Net number of integration points:    14590
  | of which are non-zero points    :    13171
  Renormalizing the initial density to the exact electron count on the 3D integration grid.
  | Initial density: Formal number of electrons (from input files) :      10.0000000000
  | Integrated number of electrons on 3D grid     :       9.9999887259
  | Charge integration error                      :      -0.0000112741
  | Normalization factor for density and gradient :       1.0000011274
  Renormalizing the free-atom superposition density to the exact electron count on the 3D integration grid.
  | Formal number of electrons (from input files) :      10.0000000000
  | Integrated number of electrons on 3D grid     :       9.9999887259
  | Charge integration error                      :      -0.0000112741
  | Normalization factor for density and gradient :       1.0000011274
  Calculating total energy contributions from superposition of free atom densities.
  Initialize hartree_potential_storage
  Max. number of atoms included in rho_multipole:            4
  Integrating overlap matrix.
  Time summed over all CPUs for integration: real work        0.012 s, elapsed        0.013 s
  Orthonormalizing eigenvectors

  End scf reinitialization - timings           :  max(cpu_time)    wall_clock(cpu1)
  | Time for scf. reinitialization             :        0.011 s           0.010 s
  | Boundary condition initialization          :        0.000 s           0.000 s
  | Integration                                :        0.002 s           0.002 s
  | Grid partitioning                          :        0.004 s           0.003 s
  | Preloading free-atom quantities on grid    :        0.002 s           0.002 s
  | Free-atom superposition energy             :        0.001 s           0.001 s
  | K.-S. eigenvector reorthonormalization     :        0.000 s           0.000 s
------------------------------------------------------------
Convergence:    q app. |  density  | eigen (eV) | Etot (eV) | forces (eV/A) |       CPU time |     Clock time
  SCF    1 :  0.21E-14 |  0.20E+00 |  -0.85E+03 | -0.15E+04 |             . |        0.011 s |        0.010 s
  SCF    2 : -0.55E-14 |  0.20E-02 |  -0.99E-01 |  0.47E-04 |             . |        0.011 s |        0.010 s
  SCF    3 : -0.13E-14 |  0.96E-03 |   0.19E-01 |  0.19E-04 |             . |        0.010 s |        0.011 s
  SCF    4 : -0.41E-14 |  0.32E-03 |  -0.13E-01 |  0.27E-05 |             . |        0.011 s |        0.010 s
  SCF    5 : -0.79E-14 |  0.64E-04 |   0.35E-03 |  0.38E-06 |             . |        0.011 s |        0.010 s
  SCF    6 :  0.43E-15 |  0.94E-05 |   0.23E-03 | -0.77E-07 |             . |        0.011 s |        0.010 s
  SCF    7 :  0.18E-14 |  0.90E-06 |  -0.20E-04 |  0.73E-08 |             . |        0.010 s |        0.011 s
  SCF    8 : -0.77E-14 |  0.14E-06 |  -0.21E-05 |  0.21E-08 |      0.70E+01 |        0.017 s |        0.017 s
  SCF    9 : -0.30E-14 |  0.20E-07 |   0.94E-07 |  0.17E-09 |      0.28E-05 |        0.021 s |        0.021 s

  Total energy components:
  | Sum of eigenvalues            :         -31.28948908 Ha        -851.43031813 eV
  | XC energy correction          :          -7.49849148 Ha        -204.04433471 eV
  | XC potential correction       :           9.86712024 Ha         268.49800280 eV
  | Free-atom electrostatic energy:         -25.00523580 Ha        -680.42708582 eV
  | Hartree energy correction     :          -2.16721460 Ha         -58.97290979 eV
  | Entropy correction            :           0.00000000 Ha           0.00000000 eV
  | ---------------------------
  | Total energy                  :         -56.09331071 Ha       -1526.37664564 eV
  | Total energy, T -> 0          :         -56.09331071 Ha       -1526.37664564 eV  <-- do not rely on this value for anything but (periodic) metals
  | Electronic free energy        :         -56.09331071 Ha       -1526.37664564 eV

  Derived energy quantities:
  | Kinetic energy                :          55.74929806 Ha        1517.01558522 eV
  | Electrostatic energy          :        -104.34411730 Ha       -2839.34789615 eV
  | Energy correction for multipole
  | error in Hartree potential    :          -0.00179258 Ha          -0.04877856 eV
  | Sum of eigenvalues per atom                           :        -212.85757953 eV
  | Total energy (T->0) per atom                          :        -381.59416141 eV  <-- do not rely on this value for anything but (periodic) metals
  | Electronic free energy per atom                       :        -381.59416141 eV
  Highest occupied state (VBM) at     -5.95256442 eV
  | Occupation number:      2.00000000

  Lowest unoccupied state (CBM) at     0.41363382 eV
  | Occupation number:      0.00000000

  Overall HOMO-LUMO gap:      6.36619824 eV.

  Self-consistency cycle converged.

  ------------------------------------------------------------
  Computing monopole / dipole moments
  | Total electronic charge [e]         :          0.100000000000000E+02
  | Total ionic charge [e]              :          0.100000000000000E+02
  | Total charge [e]                    :          0.000000000000000E+00
  | Total dipole moment [eAng]          :         -0.265632325939706E-01         0.155336668218482E-01         0.337939141536043E+00
  | Absolute dipole moment              :          0.339337241564923E+00 eAng              /                   0.162965221530479E+01 Debye  .
  Removing unitary transformations (pure translations, rotations) from forces on atoms.
  Atomic forces before filtering:
  | Net force on center of mass :   0.368736E-03  0.114268E-04 -0.244811E-02 eV/A
  | Net torque on center of mass:  -0.893792E-03 -0.317603E-03 -0.973913E-05 eV
  Atomic forces after filtering:
  | Net force on center of mass :   0.178406E-15  0.000000E+00  0.178406E-15 eV/A
  | Net torque on center of mass:   0.283225E-15 -0.944085E-16 -0.283225E-15 eV

  Energy and forces in a compact form:
  | Total energy uncorrected      :         -0.152637664564092E+04 eV
  | Total energy corrected        :         -0.152637664564092E+04 eV  <-- do not rely on this value for anything but (periodic) metals
  | Electronic free energy        :         -0.152637664564092E+04 eV
  Total atomic forces (unitary forces cleaned) [eV/Ang]:
  |    1          0.292163200654742E+01         -0.520202824944595E+01          0.977346343607277E-01
  |    2         -0.662510854618388E+00         -0.205306333714170E+00         -0.198799920724260E+00
  |    3         -0.305887564032075E+01          0.303527914225720E+01          0.111143071694424E+01
  |    4          0.799754488391713E+00          0.237205544090293E+01         -0.101036543058071E+01

  Save eigenvectors for extrapolation
  Relaxation / MD: End force evaluation.       :  max(cpu_time)    wall_clock(cpu1)
  | Time for this force evaluation             :        0.125 s           0.126 s

------------------------------------------------------------
  Molecular dynamics: Attempting to update all nuclear coordinates.

  Removing unitary transformations (pure translations, rotations) from forces on atoms.
  Atomic forces before filtering:
  | Net force on center of mass :   0.178406E-15  0.000000E+00  0.178406E-15 eV/A
  | Net torque on center of mass:   0.283225E-15 -0.944085E-16 -0.283225E-15 eV
  Atomic forces after filtering:
  | Net force on center of mass :   0.000000E+00  0.000000E+00  0.000000E+00 eV/A
  | Net torque on center of mass:   0.283225E-15  0.000000E+00 -0.944085E-16 eV
------------------------------------------------------------
  Advancing structure using Born-Oppenheimer Molecular Dynamics:
  Complete information for previous time-step:
  | Time step number          :        4
[...]
  Computing monopole / dipole moments
  | Total electronic charge [e]         :          0.100000000000000E+02
  | Total ionic charge [e]              :          0.100000000000000E+02
  | Total charge [e]                    :          0.000000000000000E+00
  | Total dipole moment [eAng]          :         -0.235913671378895E-01         0.171434973576484E-01         0.318846244636013E+00
  | Absolute dipole moment              :          0.320177106963591E+00 eAng              /                   0.153763650947008E+01 Debye  .
  Removing unitary transformations (pure translations, rotations) from forces on atoms.
  Atomic forces before filtering:
  | Net force on center of mass :   0.514659E-03  0.330536E-03 -0.258160E-02 eV/A
  | Net torque on center of mass:  -0.543446E-03 -0.437695E-03  0.697824E-04 eV
  Atomic forces after filtering:
  | Net force on center of mass :  -0.178406E-15  0.000000E+00  0.178406E-15 eV/A
  | Net torque on center of mass:   0.330430E-15  0.000000E+00 -0.566451E-15 eV

  Energy and forces in a compact form:
  | Total energy uncorrected      :         -0.152641634235457E+04 eV
  | Total energy corrected        :         -0.152641634235457E+04 eV  <-- do not rely on this value for anything but (periodic) metals
  | Electronic free energy        :         -0.152641634235457E+04 eV
  Total atomic forces (unitary forces cleaned) [eV/Ang]:
  |    1          0.271451332603591E+01         -0.479046282738459E+01         -0.217364640106579E+00
  |    2         -0.369210266929582E+00         -0.268235918425497E+00         -0.466805291233716E-01
  |    3         -0.303461974567567E+01          0.288822905859135E+01          0.998290043769957E+00
  |    4          0.689316686569339E+00          0.217046968721874E+01         -0.734244874540007E+00

  Save eigenvectors for extrapolation
  Relaxation / MD: End force evaluation.       :  max(cpu_time)    wall_clock(cpu1)
  | Time for this force evaluation             :        0.128 s           0.128 s

------------------------------------------------------------
  Molecular dynamics: Attempting to update all nuclear coordinates.

  Removing unitary transformations (pure translations, rotations) from forces on atoms.
  Atomic forces before filtering:
  | Net force on center of mass :  -0.178406E-15  0.000000E+00  0.178406E-15 eV/A
  | Net torque on center of mass:   0.330430E-15  0.000000E+00 -0.566451E-15 eV
  Atomic forces after filtering:
  | Net force on center of mass :  -0.892031E-16  0.000000E+00 -0.892031E-16 eV/A
  | Net torque on center of mass:   0.236021E-15 -0.708063E-16 -0.944085E-16 eV
------------------------------------------------------------
  Advancing structure using Born-Oppenheimer Molecular Dynamics:
  Complete information for previous time-step:
  | Time step number          :       79
  | Simulation time           :           0.395000000000000E-01 ps
  | Electronic free energy    :          -0.152641634235457E+04 eV
  | Temperature (nuclei)      :           0.133768437880367E+03 K
  | Nuclear kinetic energy    :           0.691637108111785E-01 eV
  | Total energy (el.+nuc.)   :          -0.152634717864376E+04 eV
------------------------------------------------------------
  Atomic structure (and velocities) as used in the preceding time step:
                      x [A]             y [A]             z [A]       Atom
   atom              -0.11247724        0.10462494        0.10760840  N
     velocity          -0.82772759          2.99929155          0.74889041
   atom               0.79221385        0.38974854        0.50859805  H
     velocity           2.84456062         -2.64920727         -4.35919263
   atom              -0.76014115        0.76172795        0.30592369  H
     velocity          14.57682944        -19.52792884        -10.77723637
   atom              -0.41131211       -0.85655314        0.51452015  H
     velocity          -5.91898713        -19.50210768          4.72957617
------------------------------------------------------------
          Begin self-consistency loop: Re-initialization.

  Date     :  20190817, Time     :  154522.239
------------------------------------------------------------
  | Extrapolation coeffs:  2.50E+00 -2.00E+00  5.00E-01
  Partitioning the integration grid into batches with parallel hashing+maxmin method.
  Initializing partition tables, free-atom densities, potentials, etc. across the integration grid (initialize_grid_storage).
  | Species        1: outer_partition_radius set to              5.054417573612229 AA .
  | Species        2: outer_partition_radius set to              5.043624274424571 AA .
  | The sparse table of interatomic distances needs          0.16 kbyte instead of         0.13 kbyte of memory.
  | Using the partition_type stratmann_smoother will reduce your memory usage.
  | Net number of integration points:    14590
  | of which are non-zero points    :    13168
  Renormalizing the initial density to the exact electron count on the 3D integration grid.
  | Initial density: Formal number of electrons (from input files) :      10.0000000000
  | Integrated number of electrons on 3D grid     :       9.9999861353
  | Charge integration error                      :      -0.0000138647
  | Normalization factor for density and gradient :       1.0000013865
  Renormalizing the free-atom superposition density to the exact electron count on the 3D integration grid.
  | Formal number of electrons (from input files) :      10.0000000000
  | Integrated number of electrons on 3D grid     :       9.9999861353
  | Charge integration error                      :      -0.0000138647
  | Normalization factor for density and gradient :       1.0000013865
  Calculating total energy contributions from superposition of free atom densities.
  Initialize hartree_potential_storage
  Max. number of atoms included in rho_multipole:            4
  Integrating overlap matrix.
  Time summed over all CPUs for integration: real work        0.012 s, elapsed        0.013 s
  Orthonormalizing eigenvectors

  End scf reinitialization - timings           :  max(cpu_time)    wall_clock(cpu1)
  | Time for scf. reinitialization             :        0.012 s           0.010 s
  | Boundary condition initialization          :        0.000 s           0.000 s
  | Integration                                :        0.002 s           0.002 s
  | Grid partitioning                          :        0.004 s           0.004 s
  | Preloading free-atom quantities on grid    :        0.002 s           0.002 s
  | Free-atom superposition energy             :        0.002 s           0.002 s
  | K.-S. eigenvector reorthonormalization     :        0.000 s           0.000 s
------------------------------------------------------------
Convergence:    q app. |  density  | eigen (eV) | Etot (eV) | forces (eV/A) |       CPU time |     Clock time
  SCF    1 : -0.23E-14 |  0.20E+00 |  -0.85E+03 | -0.15E+04 |             . |        0.011 s |        0.010 s
  SCF    2 :  0.33E-14 |  0.22E-02 |  -0.14E+00 |  0.62E-04 |             . |        0.011 s |        0.010 s
  SCF    3 :  0.29E-14 |  0.10E-02 |   0.22E-01 |  0.22E-04 |             . |        0.011 s |        0.010 s
  SCF    4 : -0.21E-15 |  0.40E-03 |  -0.14E-01 |  0.48E-05 |             . |        0.011 s |        0.010 s
  SCF    5 :  0.57E-14 |  0.70E-04 |   0.20E-03 |  0.49E-06 |             . |        0.011 s |        0.011 s
  SCF    6 : -0.65E-14 |  0.10E-04 |   0.25E-03 | -0.10E-06 |             . |        0.011 s |        0.011 s
  SCF    7 : -0.10E-14 |  0.99E-06 |  -0.16E-04 |  0.60E-08 |             . |        0.011 s |        0.011 s
  SCF    8 : -0.10E-14 |  0.17E-06 |  -0.24E-05 |  0.26E-08 |      0.70E+01 |        0.017 s |        0.018 s
  SCF    9 :  0.42E-14 |  0.24E-07 |  -0.30E-06 |  0.20E-09 |      0.30E-05 |        0.024 s |        0.023 s

  Total energy components:
  | Sum of eigenvalues            :         -31.29129674 Ha        -851.47950696 eV
  | XC energy correction          :          -7.50800990 Ha        -204.30334422 eV
  | XC potential correction       :           9.87966995 Ha         268.83949787 eV
  | Free-atom electrostatic energy:         -24.96223410 Ha        -679.25695007 eV
  | Hartree energy correction     :          -2.21066300 Ha         -60.15520087 eV
  | Entropy correction            :           0.00000000 Ha           0.00000000 eV
  | ---------------------------
  | Total energy                  :         -56.09253378 Ha       -1526.35550425 eV
  | Total energy, T -> 0          :         -56.09253378 Ha       -1526.35550425 eV  <-- do not rely on this value for anything but (periodic) metals
  | Electronic free energy        :         -56.09253378 Ha       -1526.35550425 eV

  Derived energy quantities:
  | Kinetic energy                :          55.77786925 Ha        1517.79304664 eV
  | Electrostatic energy          :        -104.36239313 Ha       -2839.84520668 eV
  | Energy correction for multipole
  | error in Hartree potential    :          -0.00197662 Ha          -0.05378648 eV
  | Sum of eigenvalues per atom                           :        -212.86987674 eV
  | Total energy (T->0) per atom                          :        -381.58887606 eV  <-- do not rely on this value for anything but (periodic) metals
  | Electronic free energy per atom                       :        -381.58887606 eV
  Highest occupied state (VBM) at     -5.85294682 eV
  | Occupation number:      2.00000000

  Lowest unoccupied state (CBM) at     0.47437635 eV
  | Occupation number:      0.00000000

  Overall HOMO-LUMO gap:      6.32732317 eV.

  Self-consistency cycle converged.

  ------------------------------------------------------------
  Computing monopole / dipole moments
  | Total electronic charge [e]         :          0.100000000000000E+02
  | Total ionic charge [e]              :          0.100000000000000E+02
  | Total charge [e]                    :         -0.177635683940025E-14
  | Total dipole moment [eAng]          :         -0.229150487365901E-01         0.149571707128091E-01         0.317152295776173E+00
  | Absolute dipole moment              :          0.318330638064309E+00 eAng              /                   0.152876892358905E+01 Debye  .
  Removing unitary transformations (pure translations, rotations) from forces on atoms.
  Atomic forces before filtering:
  | Net force on center of mass :   0.416666E-03  0.435554E-03 -0.245650E-02 eV/A
  | Net torque on center of mass:  -0.620916E-03 -0.420161E-03  0.647194E-04 eV
  Atomic forces after filtering:
  | Net force on center of mass :   0.892031E-16 -0.713624E-15  0.000000E+00 eV/A
  | Net torque on center of mass:  -0.944085E-16  0.000000E+00 -0.944085E-16 eV

  Energy and forces in a compact form:
  | Total energy uncorrected      :         -0.152635550424961E+04 eV
  | Total energy corrected        :         -0.152635550424961E+04 eV  <-- do not rely on this value for anything but (periodic) metals
  | Electronic free energy        :         -0.152635550424961E+04 eV
  Total atomic forces (unitary forces cleaned) [eV/Ang]:
  |    1          0.306989258084144E+01         -0.544963603650463E+01         -0.274450846747275E+00
  |    2         -0.358901454046857E+00         -0.253466248513306E+00         -0.318146729106491E-01
  |    3         -0.346589009359405E+01          0.332309368060508E+01          0.112403044414624E+01
  |    4          0.754898966799464E+00          0.238000860441286E+01         -0.817764924488316E+00

  Save eigenvectors for extrapolation
  Relaxation / MD: End force evaluation.       :  max(cpu_time)    wall_clock(cpu1)
  | Time for this force evaluation             :        0.131 s           0.131 s

------------------------------------------------------------
  Molecular dynamics: Attempting to update all nuclear coordinates.

  Removing unitary transformations (pure translations, rotations) from forces on atoms.
  Atomic forces before filtering:
  | Net force on center of mass :   0.892031E-16 -0.713624E-15  0.000000E+00 eV/A
  | Net torque on center of mass:  -0.944085E-16  0.000000E+00 -0.944085E-16 eV
  Atomic forces after filtering:
  | Net force on center of mass :   0.178406E-15 -0.713624E-15  0.178406E-15 eV/A
  | Net torque on center of mass:   0.000000E+00  0.236021E-15  0.000000E+00 eV
------------------------------------------------------------
  Advancing structure using Born-Oppenheimer Molecular Dynamics:
  Complete information for previous time-step:
  | Time step number          :       80
  | Simulation time           :           0.400000000000000E-01 ps
  | Electronic free energy    :          -0.152635550424961E+04 eV
  | Temperature (nuclei)      :           0.203332125970066E+02 K
  | Nuclear kinetic energy    :           0.105130960502004E-01 eV
  | Total energy (el.+nuc.)   :          -0.152634499115356E+04 eV
------------------------------------------------------------
  Final atomic structure (and velocities) as used in the preceding time step:
                      x [A]             y [A]             z [A]       Atom
   atom              -0.11265736        0.10571209        0.10796413  N
     velocity           0.16842149          1.23581485          0.66419345
   atom               0.79319434        0.38810298        0.50636260  H
     velocity           1.10209288         -3.89770962         -4.54704204
   atom              -0.75648386        0.75541994        0.30172959  H
     velocity          -0.97975112         -4.66341129         -5.69824250
   atom              -0.41344679       -0.86370708        0.51600636  H
     velocity          -2.46278789         -8.61221075          1.01541127
------------------------------------------------------------

------------------------------------------------------------------------------
  Final output of selected total energy values:

  The following output summarizes some interesting total energy values
  at the end of a run (AFTER all relaxation, molecular dynamics, etc.).

  | Total energy of the DFT / Hartree-Fock s.c.f. calculation      :          -1526.355504250 eV
  | Final zero-broadening corrected energy (caution - metals only) :          -1526.355504250 eV
  | For reference only, the value of 1 Hartree used in FHI-aims is :             27.211384500 eV

  Before relying on these values, please be sure to understand exactly which
  total energy value is referred to by a given number. Different objects may
  all carry the same name 'total energy'. Definitions:

  Total energy of the DFT / Hartree-Fock s.c.f. calculation:
  | Note that this energy does not include ANY quantities calculated after the
  | s.c.f. cycle, in particular not ANY RPA, MP2, etc. many-body perturbation terms.

  Final zero-broadening corrected energy:
  | For metallic systems only, a broadening of the occupation numbers at the Fermi
  | level can be extrapolated back to zero broadening by an electron-gas inspired
  | formula. For all systems that are not real metals, this value can be
  | meaningless and should be avoided.

------------------------------------------------------------------------------
  Methods described in the following list of references were used in this FHI-aims run.
  If you publish the results, please make sure to cite these reference if they apply.
  FHI-aims is an academic code, and for our developers (often, Ph.D. students
  and postdocs), scientific credit in the community is essential.
  Thank you for helping us!

  For any use of FHI-aims, please cite:

    Volker Blum, Ralf Gehrke, Felix Hanke, Paula Havu, Ville Havu,
    Xinguo Ren, Karsten Reuter, and Matthias Scheffler
    'Ab initio molecular simulations with numeric atom-centered orbitals'
    Computer Physics Communications 180, 2175-2196 (2009)
    http://dx.doi.org/10.1016/j.cpc.2009.06.022


  The ELSI infrastructure was used in your run to solve the Kohn-Sham electronic structure.
  Please check out http://elsi-interchange.org to learn more.
  If scalability is important for your project, please acknowledge ELSI by citing:

    V. W-z. Yu, F. Corsetti, A. Garcia, W. P. Huhn, M. Jacquelin, W. Jia,
    B. Lange, L. Lin, J. Lu, W. Mi, A. Seifitokaldani, A. Vazquez-Mayagoitia,
    C. Yang, H. Yang, and V. Blum
    'ELSI: A unified software interface for Kohn-Sham electronic structure solvers'
    Computer Physics Communications 222, 267-285 (2018).
    http://dx.doi.org/10.1016/j.cpc.2017.09.007


  For the real-space grid partitioning and parallelization used in this calculation, please cite:

    Ville Havu, Volker Blum, Paula Havu, and Matthias Scheffler,
    'Efficient O(N) integration for all-electron electronic structure calculation'
    'using numerically tabulated basis functions'
    Journal of Computational Physics 228, 8367-8379 (2009).
    http://dx.doi.org/10.1016/j.jcp.2009.08.008

  Of course, there are many other important community references, e.g., those cited in the
  above references. Our list is limited to references that describe implementations in the
  FHI-aims code. The reason is purely practical (length of this list) - please credit others as well.

------------------------------------------------------------
          Leaving FHI-aims.
          Date     :  20190817, Time     :  154522.373

          Computational steps:
          | Number of self-consistency cycles          :          695
          | Number of SCF (re)initializations          :           81
          | Number of molecular dynamics steps         :           81
          | Number of force evaluations                :           81

          Detailed time accounting                     :  max(cpu_time)    wall_clock(cpu1)
          | Total time                                 :       10.107 s          10.143 s
          | Preparation time                           :        0.083 s           0.084 s
          | Boundary condition initalization           :        0.003 s           0.001 s
          | Grid partitioning                          :        0.292 s           0.295 s
          | Preloading free-atom quantities on grid    :        0.169 s           0.166 s
          | Free-atom superposition energy             :        0.117 s           0.116 s
          | Total time for integrations                :        2.280 s           2.284 s
          | Total time for solution of K.-S. equations :        0.219 s           0.242 s
          | Total time for EV reorthonormalization     :        0.004 s           0.002 s
          | Total time for density & force components  :        1.428 s           1.327 s
          | Total time for mixing                      :        0.087 s           0.079 s
          | Total time for Hartree multipole update    :        0.584 s           0.595 s
          | Total time for Hartree multipole sum       :        4.170 s           4.149 s
          | Total time for total energy evaluation     :        0.040 s           0.045 s
          | Total time for extrapolation saves         :        0.004 s           0.002 s
          | Total time for extrapolations              :        0.009 s           0.006 s

          Partial memory accounting:
          | Residual value for overall tracked memory usage across tasks:     0.000000 MB (should be 0.000000 MB)
          | Peak values for overall tracked memory usage:
          |   Minimum:        0.124 MB (on task 0 after allocating h_times_wave)
          |   Maximum:        0.124 MB (on task 0 after allocating h_times_wave)
          |   Average:        0.124 MB
          | Largest tracked array allocation:
          |   Minimum:        0.068 MB (all_coords on task 0)
          |   Maximum:        0.071 MB (all_coords on task 2)
          |   Average:        0.068 MB
          Note:  These values currently only include a subset of arrays which are explicitly tracked.
          The "true" memory usage will be greater.

          Have a nice day.
------------------------------------------------------------
