  MPI-parallelism will be employed.
------------------------------------------------------------
          Invoking FHI-aims ...
          Version 180101-
          Git rev. (modified): fa29f3a Merge branch master of fhiaims.rzberlin.mp[...]
          Compiled on 2018/01/19 at 14:47:46 on host theobook132.

          When using FHI-aims, please cite the following reference:

          Volker Blum, Ralf Gehrke, Felix Hanke, Paula Havu,
          Ville Havu, Xinguo Ren, Karsten Reuter, and Matthias Scheffler,
          'Ab Initio Molecular Simulations with Numeric Atom-Centered Orbitals',
          Computer Physics Communications 180, 2175-2196 (2009)

          For any questions about FHI-aims, please visit the aimsclub website
          with its forums and wiki. Contributions to both the forums and the
          wiki are warmly encouraged - they are for you, and everyone is welcome there.

------------------------------------------------------------



  Date     :  20180214, Time     :  154130.152
  Time zero on CPU 1             :   0.720000000000000E-01  s.
  Internal wall clock time zero  :           287854890.152  s.

  FHI-aims created a unique identifier for this run for later identification
  aims_uuid : C620CBDF-8BD8-4B06-A099-13728123267A

  Using        8 parallel tasks.
  Task        0 on host theobook132 reporting.
  Task        1 on host theobook132 reporting.
  Task        2 on host theobook132 reporting.
  Task        3 on host theobook132 reporting.
  Task        4 on host theobook132 reporting.
  Task        5 on host theobook132 reporting.
  Task        6 on host theobook132 reporting.
  Task        7 on host theobook132 reporting.

  Performing system and environment tests:
  *** Environment variable OMP_NUM_THREADS is not set
  *** For performance reasons you might want to set it to 1
  | Stacksize not measured: no C compiler
  | Checking for scalapack...
  | No scalapack compiled in.

  Obtaining array dimensions for all initial allocations:
  
  -----------------------------------------------------------------------
  Parsing control.in (first pass over file, find array dimensions only).
  The contents of control.in will be repeated verbatim below
  unless switched off by setting 'verbatim_writeout .false.' .
  in the first line of control.in .
  -----------------------------------------------------------------------
  
  ################################################################################
  #
  #		Control.in generated by mkcontrol
  #
  ################################################################################
  xc			pbe
  vdw_correction_hirshfeld
  charge			-1.0
  relativistic		atomic_zora scalar
  sc_accuracy_rho		1E-5
  sc_accuracy_eev		1E-3
  sc_accuracy_etot	1E-6
  sc_iter_limit		1000	
  
  compute_forces .true.
  final_forces_cleaned .true.
  
  
  ################################################################################
  #
  #  FHI-aims code project
  # Volker Blum, Fritz Haber Institute Berlin, 2009
  #
  #  Suggested "tight" defaults for H atom (to be pasted into control.in file)
  #
  ################################################################################
    species        H
  #     global species definitions
      nucleus             1
      mass                1.00794
  #
      l_hartree           6
  #
      cut_pot             4.0  2.0  1.0
      basis_dep_cutoff    1e-4
  #
      radial_base         24 7.0
      radial_multiplier   2
      angular_grids       specified
        division   0.1930   50
        division   0.3175  110
        division   0.4293  194
        division   0.5066  302
        division   0.5626  434
  #      division   0.5922  590
  #      division   0.6227  974
  #      division   0.6868 1202
  #      outer_grid  770
        outer_grid  434
  ################################################################################
  #
  #  Definition of "minimal" basis
  #
  ################################################################################
  #     valence basis states
      valence      1  s   1.
  #     ion occupancy
      ion_occ      1  s   0.5
  ################################################################################
  #
  #  Suggested additional basis functions. For production calculations,
  #  uncomment them one after another (the most important basis functions are
  #  listed first).
  #
  #  Basis constructed for dimers: 0.5 A, 0.7 A, 1.0 A, 1.5 A, 2.5 A
  #
  ################################################################################
  #  "First tier" - improvements: -1014.90 meV to -62.69 meV
       hydro 2 s 2.1
       hydro 2 p 3.5
  #  "Second tier" - improvements: -12.89 meV to -1.83 meV
       hydro 1 s 0.85
       hydro 2 p 3.7
       hydro 2 s 1.2
       hydro 3 d 7
  #  "Third tier" - improvements: -0.25 meV to -0.12 meV
  #     hydro 4 f 11.2
  #     hydro 3 p 4.8
  #     hydro 4 d 9
  #     hydro 3 s 3.2
  
  
  
  ################################################################################
  #
  #  FHI-aims code project
  # Volker Blum, Fritz Haber Institute Berlin, 2009
  #
  #  Suggested "tight" defaults for C atom (to be pasted into control.in file)
  #
  ################################################################################
    species        C
  #     global species definitions
      nucleus             6
      mass                12.0107
  #
      l_hartree           6
  #
      cut_pot             4.0  2.0  1.0
      basis_dep_cutoff    1e-4
  #
      radial_base         34 7.0
      radial_multiplier   2
      angular_grids specified
        division   0.2187   50
        division   0.4416  110
        division   0.6335  194
        division   0.7727  302
        division   0.8772  434
  #      division   0.9334  590
  #      division   0.9924  770
  #      division   1.0230  974
  #      division   1.5020 1202
  #     outer_grid  974
        outer_grid  434
  ################################################################################
  #
  #  Definition of "minimal" basis
  #
  ################################################################################
  #     valence basis states
      valence      2  s   2.
      valence      2  p   2.
  #     ion occupancy
      ion_occ      2  s   1.
      ion_occ      2  p   1.
  ################################################################################
  #
  #  Suggested additional basis functions. For production calculations,
  #  uncomment them one after another (the most important basis functions are
  #  listed first).
  #
  #  Constructed for dimers: 1.0 A, 1.25 A, 1.5 A, 2.0 A, 3.0 A
  #
  ################################################################################
  #  "First tier" - improvements: -1214.57 meV to -155.61 meV
       hydro 2 p 1.7
       hydro 3 d 6
       hydro 2 s 4.9
  #  "Second tier" - improvements: -67.75 meV to -5.23 meV
       hydro 4 f 9.8
       hydro 3 p 5.2
       hydro 3 s 4.3
       hydro 5 g 14.4
       hydro 3 d 6.2
  #  "Third tier" - improvements: -2.43 meV to -0.60 meV
  #     hydro 2 p 5.6
  #     hydro 2 s 1.4
  #     hydro 3 d 4.9
  #     hydro 4 f 11.2
  #  "Fourth tier" - improvements: -0.39 meV to -0.18 meV
  #     hydro 2 p 2.1
  #     hydro 5 g 16.4
  #     hydro 4 d 13.2
  #     hydro 3 s 13.6
  #     hydro 4 f 17.6
  #  Further basis functions - improvements: -0.08 meV and below
  #     hydro 3 s 2
  #     hydro 3 p 6
  #     hydro 4 d 20
  
  ################################################################################
  #
  #  FHI-aims code project
  #  VB, Fritz-Haber Institut, 2009
  #
  #  Suggested "light" defaults for Cl atom (to be pasted into control.in file)
  #  Be sure to double-check any results obtained with these settings for
  #post-processing,
  #  e.g., with the "tight" defaults and larger basis sets.
  #
  ################################################################################
    species        Cl
  #     global species definitions
      nucleus             17
      mass                35.453
  #
      l_hartree           4
  #
      cut_pot             3.5          1.5  1.0
      basis_dep_cutoff    1e-4
  #
      radial_base         45 5.0
      radial_multiplier   1
      angular_grids       specified
        division   0.4412  110
        division   0.5489  194
        division   0.6734  302
  #      division   0.7794  434
  #      division   0.9402  590
  #      division   1.0779  770
  #      division   1.1792  974
  #      outer_grid  974
        outer_grid  302
  ################################################################################
  #
  #  Definition of "minimal" basis
  #
  ################################################################################
  #     valence basis states
      valence      3  s   2.
      valence      3  p   5.
  #     ion occupancy
      ion_occ      3  s   1.
      ion_occ      3  p   4.
  ################################################################################
  #
  #  Suggested additional basis functions. For production calculations,
  #  uncomment them one after another (the most important basis functions are
  #  listed first).
  #
  #  Constructed for dimers: 1.65 A, 2.0 A, 2.5 A, 3.25 A, 4.0 A
  #
  ################################################################################
  #  "First tier" - improvements: -429.57 meV to -15.03 meV
       ionic 3 d auto
       hydro 2 p 1.9
  #     hydro 4 f 7.4
       ionic 3 s auto
  #     hydro 5 g 10.4
  #  "Second tier" - improvements: -7.84 meV to -0.48 meV
  #     hydro 3 d 3.3
  #     hydro 5 f 9.8
  #     hydro 1 s 0.75
  #     hydro 5 g 11.2
  #     hydro 4 p 10.4
  #  "Third tier" - improvements: -1.00 meV to -0.12 meV
  #     hydro 4 d 12.8
  #     hydro 4 f 4.6
  #     hydro 4 d 10.8
  #     hydro 2 s 1.8
  #     hydro 3 p 3
  #  Further functions that fell out - improvements: -0.10 meV and below
  #     hydro 5 f 14.4
  #     hydro 4 s 12.8
  #     hydro 3 d 11.6
  #     hydro 4 s 4.1
  
  -----------------------------------------------------------------------
  Completed first pass over input file control.in .
  -----------------------------------------------------------------------
  
  
  -----------------------------------------------------------------------
  Parsing geometry.in (first pass over file, find array dimensions only).
  The contents of geometry.in will be repeated verbatim below
  unless switched off by setting 'verbatim_writeout .false.' .
  in the first line of geometry.in .
  -----------------------------------------------------------------------
  
  #=======================================#
  # iterations/iteration0000/aims-chain-node-1.00000/geometry.in
  #=======================================#
  atom 0.0000000000000000 0.0000000000000000 0.0000000000000000 Cl
  constrain_relaxation .true.
  atom 1.8680538499999999 0.0000000000000000 0.0000000000000000 C
  constrain_relaxation y
  atom 4.9213606900000002 0.0000000000000000 0.0000000000000000 Cl
  constrain_relaxation y
  atom 2.2023719300000000 1.0361627400000000 0.0000000000000000 H
  atom 2.2021221299999998 -0.5175350800000000 0.8974734599999999 H
  atom 2.2021221299999998 -0.5175350800000000 -0.8974734599999999 H
  
  -----------------------------------------------------------------------
  Completed first pass over input file geometry.in .
  -----------------------------------------------------------------------
  

  Basic array size parameters:
  | Number of species                 :        3
  | Number of atoms                   :        6
  | Max. basis fn. angular momentum   :        4
  | Max. atomic/ionic basis occupied n:        3
  | Max. number of basis fn. types    :        3
  | Max. radial fns per species/type  :        8
  | Max. logarithmic grid size        :     1362
  | Max. radial integration grid size :       69
  | Max. angular integration grid size:      434
  | Max. angular grid division number :        8
  | Radial grid for Hartree potential :     1362
  | Number of spin channels           :        1

------------------------------------------------------------
          Reading file control.in.
------------------------------------------------------------
  XC: Using PBE gradient-corrected functionals.
  Charged system requested: Charge =  -0.100000E+01.
  Scalar relativistic treatment of kinetic energy: on-site free-atom approximation to ZORA.
  Convergence accuracy of self-consistent charge density:  0.1000E-04
  Convergence accuracy of sum of eigenvalues:  0.1000E-02
  Convergence accuracy of total energy:  0.1000E-05
  Maximum number of s.-c. iterations  :  1000
  Forces will be computed.
  Cleaning forces before final output.
 
  Reading configuration options for species H                   .
  | Found nuclear charge :   1.0000
  | Found atomic mass :    1.00794000000000      amu
  | Found l_max for Hartree potential  :   6
  | Found cutoff potl. onset [A], width [A], scale factor :    4.00000    2.00000    1.00000
  | Threshold for basis-dependent cutoff potential is   0.100000E-03
  | Found data for basic radial integration grid :    24 points, outermost radius =    7.000 A
  | Found multiplier for basic radial grid :   2
  | Found angular grid specification: user-specified.
  | Specified grid contains     6 separate shells.
  | Check grid settings after all constraints further below.
  | Found free-atom valence shell :  1 s   1.000
  | Found free-ion valence shell :  1 s   0.500
  | Found hydrogenic basis function :  2 s   2.100
  | Found hydrogenic basis function :  2 p   3.500
  | Found hydrogenic basis function :  1 s   0.850
  | Found hydrogenic basis function :  2 p   3.700
  | Found hydrogenic basis function :  2 s   1.200
  | Found hydrogenic basis function :  3 d   7.000
  Species H                   : Missing cutoff potential type.
  Defaulting to exp(1/x)/(1-x)^2 type cutoff potential.
  Species H : No 'logarithmic' tag. Using default grid for free atom:
  | Default logarithmic grid data [bohr] : 0.1000E-03 0.1000E+03 0.1012E+01
  Species H : On-site basis accuracy parameter (for Gram-Schmidt orthonormalisation) not specified.
  Using default value basis_acc =  0.1000000E-03.
  Species H                   : Using default innermost maximum threshold i_radial=  2 for radial functions.
  Species H                   : Default cutoff onset for free atom density etc. : 0.40000000E+01 AA.
  Species H                   : Basic radial grid will be enhanced according to radial_multiplier =   2, to contain    49 grid points.
 
  Reading configuration options for species C                   .
  | Found nuclear charge :   6.0000
  | Found atomic mass :    12.0107000000000      amu
  | Found l_max for Hartree potential  :   6
  | Found cutoff potl. onset [A], width [A], scale factor :    4.00000    2.00000    1.00000
  | Threshold for basis-dependent cutoff potential is   0.100000E-03
  | Found data for basic radial integration grid :    34 points, outermost radius =    7.000 A
  | Found multiplier for basic radial grid :   2
  | Found angular grid specification: user-specified.
  | Specified grid contains     6 separate shells.
  | Check grid settings after all constraints further below.
  | Found free-atom valence shell :  2 s   2.000
  | Found free-atom valence shell :  2 p   2.000
  | Found free-ion valence shell :  2 s   1.000
  | Found free-ion valence shell :  2 p   1.000
  | Found hydrogenic basis function :  2 p   1.700
  | Found hydrogenic basis function :  3 d   6.000
  | Found hydrogenic basis function :  2 s   4.900
  | Found hydrogenic basis function :  4 f   9.800
  | Found hydrogenic basis function :  3 p   5.200
  | Found hydrogenic basis function :  3 s   4.300
  | Found hydrogenic basis function :  5 g  14.400
  | Found hydrogenic basis function :  3 d   6.200
  Species C                   : Missing cutoff potential type.
  Defaulting to exp(1/x)/(1-x)^2 type cutoff potential.
  Species C : No 'logarithmic' tag. Using default grid for free atom:
  | Default logarithmic grid data [bohr] : 0.1000E-03 0.1000E+03 0.1012E+01
  Species C : On-site basis accuracy parameter (for Gram-Schmidt orthonormalisation) not specified.
  Using default value basis_acc =  0.1000000E-03.
  Species C                   : Using default innermost maximum threshold i_radial=  2 for radial functions.
  Species C                   : Default cutoff onset for free atom density etc. : 0.40000000E+01 AA.
  Species C                   : Basic radial grid will be enhanced according to radial_multiplier =   2, to contain    69 grid points.
 
  Reading configuration options for species Cl                  .
  | Found nuclear charge :  17.0000
  | Found atomic mass :    35.4530000000000      amu
  | Found l_max for Hartree potential  :   4
  | Found cutoff potl. onset [A], width [A], scale factor :    3.50000    1.50000    1.00000
  | Threshold for basis-dependent cutoff potential is   0.100000E-03
  | Found data for basic radial integration grid :    45 points, outermost radius =    5.000 A
  | Found multiplier for basic radial grid :   1
  | Found angular grid specification: user-specified.
  | Specified grid contains     4 separate shells.
  | Check grid settings after all constraints further below.
  | Found free-atom valence shell :  3 s   2.000
  | Found free-atom valence shell :  3 p   5.000
  | Found free-ion valence shell :  3 s   1.000
  | Found free-ion valence shell :  3 p   4.000
  | Found ionic basis function :  3 d , default cutoff radius.
  | Found hydrogenic basis function :  2 p   1.900
  | Found ionic basis function :  3 s , default cutoff radius.
  Species Cl                  : Missing cutoff potential type.
  Defaulting to exp(1/x)/(1-x)^2 type cutoff potential.
  Species Cl: No 'logarithmic' tag. Using default grid for free atom:
  | Default logarithmic grid data [bohr] : 0.1000E-03 0.1000E+03 0.1012E+01
  | Will include ionic basis functions of  2.0-fold positive Cl                   ion.
  Species Cl: On-site basis accuracy parameter (for Gram-Schmidt orthonormalisation) not specified.
  Using default value basis_acc =  0.1000000E-03.
  Species Cl                  : Using default innermost maximum threshold i_radial=  2 for radial functions.
  Species Cl                  : Default cutoff onset for free atom density etc. : 0.35000000E+01 AA.
  Species Cl                  : Basic radial grid will be enhanced according to radial_multiplier =   1, to contain    45 grid points.
 
  Finished reading input file 'control.in'. Consistency checks are next.
 
  MPI_IN_PLACE appears to work with this MPI implementation.
  | Keeping use_mpi_in_place .true. (see manual).
  Target number of points in a grid batch is not set. Defaulting to  100
  Method for grid partitioning is not set. Defaulting to parallel hash+maxmin partitioning.
  Batch size limit is not set. Defaulting to    200
  By default, will store active basis functions for each batch.
  If in need of memory, prune_basis_once .false. can be used to disable this option.
  communication_type for Hartree potential was not specified.
  Defaulting to calc_hartree .
  Defaulting to Pulay charge density mixer.
  Pulay mixer: Number of relevant iterations not set.
  Defaulting to    8 iterations.
  Pulay mixer: Number of initial linear mixing iterations not set.
  Defaulting to    0 iterations.
  Work space size for distributed Hartree potential not set.
  Defaulting to   0.200000E+03 MB.
  Mixing parameter for charge density mixing has not been set.
  Using default: charge_mix_param =     0.0500.
  The mixing parameter will be adjusted in iteration number     2 of the first full s.c.f. cycle only.
  Algorithm-dependent basis array size parameters:
  | n_max_pulay                         :        8
  Presetting        40 iterations before the initial mixing cycle
  is restarted anyway using the sc_init_iter criterion / keyword.
  Presetting a factor      1.000 between actual scf density residual
  and density convergence criterion sc_accuracy_rho below which sc_init_iter
  takes no effect.
  Geometry relaxation not requested: no relaxation will be performed.
  Force calculation: scf convergence accuracy of forces not set.
  Defaulting to 'sc_accuracy_forces not_checked'.
  Handling of forces: Unphysical translation and rotation will be removed from forces.
  No accuracy limit for integral partition fn. given. Defaulting to  0.1000E-14.
  No threshold value for u(r) in integrations given. Defaulting to  0.1000E-05.
  No occupation type (smearing scheme) given. Defaulting to Gaussian broadening, width =  0.1000E-01 eV.
  The width will be adjusted in iteration number     2 of the first full s.c.f. cycle only.
  S.C.F. convergence parameters will be adjusted in iteration number     2 of the first full s.c.f. cycle only.
  No accuracy for occupation numbers given. Defaulting to  0.1000E-12.
  No threshold value for occupation numbers given. Defaulting to  0.0000E+00.
  No accuracy for fermi level given. Defaulting to  0.1000E-19.
  Maximum # of iterations to find E_F not set. Defaulting to  200.
  Preferred method for the eigenvalue solver ('KS_method') not specified in 'control.in'.
  Calling BLACS routine to test compilation state
  The best choice would be 'elsi', but your version of FHI-aims is compiled without ScaLAPACK support.
  Defaulting to 'lapack_fast' instead (serial solution, time will not improve with more CPUs).
  Will not use alltoall communication since running on < 1024 CPUs.
  Threshold for basis singularities not set.
  Default threshold for basis singularities:  0.1000E-04
  partition_type (choice of integration weights) for integrals was not specified.
  | Using a version of the partition function of Stratmann and coworkers ('stratmann_smoother').
  | At each grid point, the set of atoms used to build the partition table is smoothly restricted to
  | only those atoms whose free-atom density would be non-zero at that grid point.
  Partitioning for Hartree potential was not defined. Using partition_type for integrals.
  | Adjusted default value of keyword multip_moments_threshold to:       0.10000000E-11
  | This value may affect high angular momentum components of the Hartree potential in periodic systems.
  Spin handling was not defined in control.in. Defaulting to unpolarized case.
  No q(lm)/r^(l+1) cutoff set for long-range Hartree potential.
  | Using default value of  0.100000E-09 .
  | Verify using the multipole_threshold keyword.
  Defaulting to new monopole extrapolation.
  Density update method: automatic selection selected.
------------------------------------------------------------


------------------------------------------------------------
          Reading geometry description geometry.in.
------------------------------------------------------------
 No relaxation requested - ignoring relaxation constraint.
 No relaxation requested - ignoring relaxation constraint.
 No relaxation requested - ignoring relaxation constraint.
 * Warning: Initial charge and total charge of the system are inconsistent.
 * Selected charge in control.in:    -1.0000* Sum of initial charges in geometry.in:     0.0000
  Input structure read successfully.
  The structure contains        6 atoms,  and a total of         44.000 electrons.

  Input geometry:
  | No unit cell requested.
  | Atomic structure:
  |       Atom                x [A]            y [A]            z [A]
  |    1: Species Cl            0.00000000        0.00000000        0.00000000
  |    2: Species C             1.86805385        0.00000000        0.00000000
  |    3: Species Cl            4.92136069        0.00000000        0.00000000
  |    4: Species H             2.20237193        1.03616274        0.00000000
  |    5: Species H             2.20212213       -0.51753508        0.89747346
  |    6: Species H             2.20212213       -0.51753508       -0.89747346
  |

  | The smallest distance between any two atoms is         1.08853240 AA.
  |
  | The first atom of this pair is atom number                      2 .
  | The second atom of this pair is atom number                     5 .

  Number of empty states per atom not set in control.in - providing a guess from actual geometry.
  | Total number of empty states used during s.c.f. cycle:       14
  If you use a very high smearing, use empty_states (per atom!) in control.in to increase this value.

  Structure-dependent array size parameters: 
  | Maximum number of distinct radial functions  :       26
  | Maximum number of basis functions            :      120
  | Number of Kohn-Sham states (occupied + empty):       36
------------------------------------------------------------

------------------------------------------------------------
          Preparing all fixed parts of the calculation.
------------------------------------------------------------
  Determining machine precision:
    2.225073858507201E-308
  Setting up grids for atomic and cluster calculations.

  Creating wave function, potential, and density for free atoms.

  Species: H

  List of occupied orbitals and eigenvalues:
    n    l              occ      energy [Ha]    energy [eV]
    1    0           1.0000        -0.238386        -6.4868


  Species: C

  List of occupied orbitals and eigenvalues:
    n    l              occ      energy [Ha]    energy [eV]
    1    0           2.0000       -10.049212      -273.4530
    2    0           2.0000        -0.504761       -13.7352
    2    1           2.0000        -0.193631        -5.2690


  Species: Cl

  List of occupied orbitals and eigenvalues:
    n    l              occ      energy [Ha]    energy [eV]
    1    0           2.0000      -101.451673     -2760.6405
    2    0           2.0000        -9.288282      -252.7470
    3    0           2.0000        -0.759332       -20.6625
    2    1           6.0000        -7.042657      -191.6405
    3    1           5.0000        -0.314806        -8.5663

  Creating fixed part of basis set: Ionic, confined, hydrogenic.
 
  H                    hydrogenic:
 
  List of hydrogenic basis orbitals: 
    n    l      effective z      eigenvalue [eV]  inner max. [A]     outer max. [A]     outer radius [A]   
    2    0         2.100000       -14.9965           0.193243           1.317208           5.373006
    2    1         3.500000       -41.6672           0.602369           0.602369           4.056063
    1    0         0.850000        -9.8292           0.624871           0.624871           5.373006
    2    1         3.700000       -46.5653           0.573622           0.573622           3.910002
    2    0         1.200000        -4.5995           0.334980           2.228188           5.505995
    3    2         7.000000       -74.0753           0.680699           0.680699           3.769201
 
 
  C                    hydrogenic:
 
  List of hydrogenic basis orbitals: 
    n    l      effective z      eigenvalue [eV]  inner max. [A]     outer max. [A]     outer radius [A]   
    2    1         1.700000        -9.8152           1.245706           1.245706           5.401630
    3    2         6.000000       -54.4226           0.792453           0.792453           4.178599
    2    0         4.900000       -81.6681           0.082559           0.562749           3.353238
    4    3         9.800000       -81.6681           0.863254           0.863254           4.028125
    3    1         5.200000       -40.8774           0.305389           1.215618           4.898362
    3    0         4.300000       -27.9508           0.091041           1.610311           5.401630
    5    4        14.400000      -112.8510           0.917666           0.917666           3.883070
    3    2         6.200000       -58.1113           0.763917           0.763917           4.077671
 
 
  Cl                   ion:

  List of free ionic orbitals and eigenvalues:
    n    l      energy [Ha]    energy [eV]
    1    0      -102.554413     -2790.6476
    2    0       -10.359555      -281.8978
    3    0        -1.672516       -45.5115
    2    1        -8.116241      -220.8542
    3    1        -1.184158       -32.2226


  List of ionic basis orbitals and eigenvalues:
    n    l      energy [Ha]    energy [eV]    outer radius [A]
    3    2        -0.527851       -14.3636       4.541334
    3    0        -1.672502       -45.5111       3.428237

 
  Cl                   hydrogenic:
 
  List of hydrogenic basis orbitals: 
    n    l      effective z      eigenvalue [eV]  inner max. [A]     outer max. [A]     outer radius [A]   
    2    1         1.900000       -12.2492           1.113321           1.113321           4.597192
 

  Adding cutoff potential to free-atom effective potential.
  Creating atomic-like basis functions for current effective potential.

  Species H                   :

  List of atomic basis orbitals and eigenvalues:
    n    l      energy [Ha]    energy [eV]    outer radius [A]
    1    0        -0.238386        -6.4868       5.373006


  Species C                   :

  List of atomic basis orbitals and eigenvalues:
    n    l      energy [Ha]    energy [eV]    outer radius [A]
    1    0       -10.049212      -273.4530       1.934409
    2    0        -0.504761       -13.7352       5.271162
    2    1        -0.193631        -5.2690       5.401630


  Species Cl                  :

  List of atomic basis orbitals and eigenvalues:
    n    l      energy [Ha]    energy [eV]    outer radius [A]
    1    0      -101.451673     -2760.6405       0.642251
    2    0        -9.288282      -252.7470       2.102331
    3    0        -0.759332       -20.6625       4.431645
    2    1        -7.042657      -191.6405       2.346844
    3    1        -0.314806        -8.5663       4.541334

  Assembling full basis from fixed parts.
  | Species H :   atomic orbital   1 s accepted.
  | Species H :    hydro orbital   2 s accepted.
  | Species H :    hydro orbital   1 s accepted.
  | Species H :    hydro orbital   2 s accepted.
  | Species H :    hydro orbital   2 p accepted.
  | Species H :    hydro orbital   2 p accepted.
  | Species H :    hydro orbital   3 d accepted.
  | Species C :   atomic orbital   1 s accepted.
  | Species C :    hydro orbital   2 s accepted.
  | Species C :   atomic orbital   2 s accepted.
  | Species C :    hydro orbital   3 s accepted.
  | Species C :    hydro orbital   3 p accepted.
  | Species C :   atomic orbital   2 p accepted.
  | Species C :    hydro orbital   2 p accepted.
  | Species C :    hydro orbital   3 d accepted.
  | Species C :    hydro orbital   3 d accepted.
  | Species C :    hydro orbital   4 f accepted.
  | Species C :    hydro orbital   5 g accepted.
  | Species Cl :   atomic orbital   1 s accepted.
  | Species Cl :   atomic orbital   2 s accepted.
  | Species Cl :    ionic orbital   3 s accepted.
  | Species Cl :   atomic orbital   3 s accepted.
  | Species Cl :   atomic orbital   2 p accepted.
  | Species Cl :   atomic orbital   3 p accepted.
  | Species Cl :    hydro orbital   2 p accepted.
  | Species Cl :    ionic orbital   3 d accepted.
 
  Basis size parameters after reduction:
  | Total number of radial functions:       26
  | Total number of basis functions :      120
 
  Per-task memory consumption for arrays in subroutine allocate_ext:
  |           9.070220MB.
  Testing on-site integration grid accuracy.
  |  Species  Function  <phi|h_atom|phi> (log., in eV)  <phi|h_atom|phi> (rad., in eV)
           1        1                 -6.4870767962                 -6.4871688290
           1        2                 13.5032046589                 13.5028982997
           1        3                 32.8195184817                 32.8119941656
           1        4                 33.8513856511                 33.7670005767 ***
           1        5                 28.8544614965                 28.8544615203
           1        6                 59.6326952547                 59.6327656460
           1        7                 60.2719308513                 60.2719305949
           2        8               -273.4529726040               -273.4529710510
           2        9                -10.7721037319                -10.7721022091
           2       10                 17.6044132601                 17.6044162068
           2       11                 53.7706460658                 53.7706913775
           2       12                 15.0973290362                 15.0973256023
           2       13                  3.8545134692                  3.8545724671
           2       14                 12.1156992592                 12.1182024429
           2       15                 29.4352039302                 29.4352041819
           2       16                 54.8741144708                 54.8740268730
           2       17                 59.3556032049                 59.3556031384
           2       18                 93.4551837154                 93.4551838010
           3       19              -2760.6404887023              -2760.6391663390
           3       20               -252.7470135404               -252.7470033792
           3       21                -20.4099766545                -20.4099452961
           3       22                  8.9880683035                  8.9931146792
           3       23               -191.6404587283               -191.6404582884
           3       24                 -8.5668684731                 -8.5677140829
           3       25                  8.1442214099                  8.1082388447 ***
           3       26                  7.0580434359                  7.0555511342
 * Note: Onsite integrals marked "***" above are less accurate than
 * onsite_accuracy_threshold =    0.03000 eV. Usually, this is harmless.
 * When in doubt, tighten the "radial" and/or "radial_multiplier" flags to check.

  Preparing densities etc. for the partition functions (integrals / Hartree potential).

  Preparations completed.
  max(cpu_time)          :      0.372 s.
  Wall clock time (cpu1) :      0.381 s.
------------------------------------------------------------

------------------------------------------------------------
          Begin self-consistency loop: Initialization.

          Date     :  20180214, Time     :  154130.556
------------------------------------------------------------

  Initializing index lists of integration centers etc. from given atomic structure:
  | Number of centers in hartree potential         :         6
  | Number of centers in hartree multipole         :         6
  | Number of centers in electron density summation:         6
  | Number of centers in basis integrals           :         6
  | Number of centers in integrals                 :         6
  | Number of centers in hamiltonian               :         6
  Partitioning the integration grid into batches with parallel hashing+maxmin method.
  | Number of batches:     1021
  | Maximal batch size:     200
  | Minimal batch size:      49
  | Average batch size:      78.088
  | Standard deviation of batch sizes:      25.081

  Integration load balanced across     8 MPI tasks.
  Work distribution over tasks is as follows:
  Task     0 has       9998 integration points.
  Task     1 has      10017 integration points.
  Task     2 has       9930 integration points.
  Task     3 has      10003 integration points.
  Task     4 has       9909 integration points.
  Task     5 has      10003 integration points.
  Task     6 has       9942 integration points.
  Task     7 has       9926 integration points.
  Initializing partition tables, free-atom densities, potentials, etc. across the integration grid (initialize_grid_storage).
  | initialize_grid_storage: Actual outermost partition radius vs. multipole_radius_free
  | (-- VB: in principle, multipole_radius_free should be larger, hence this output)
  | Species        1: Confinement radius =              6.000000000000000 AA, multipole_radius_free =              6.071692442739658 AA.
  | Species        1: outer_partition_radius set to              6.071692442739658 AA .
  | Species        2: Confinement radius =              6.000000000000000 AA, multipole_radius_free =              6.029870734432609 AA.
  | Species        2: outer_partition_radius set to              6.029870734432609 AA .
  | Species        3: Confinement radius =              4.999999999999999 AA, multipole_radius_free =              5.007919576009533 AA.
  | Species        3: outer_partition_radius set to              5.007919576009533 AA .
  | Original list of interatomic distances with           6 x          6 entries is created.
  | Net number of integration points:    79728
  | of which are non-zero points    :    69340
  Renormalizing the initial density to the exact electron count on the 3D integration grid.
  | Initial density: Formal number of electrons (from input files) :      43.0000000000
  | Integrated number of electrons on 3D grid     :      42.9999403731
  | Charge integration error                      :      -0.0000596269
  | Normalization factor for density and gradient :       1.0000013867
  Obtaining max. number of non-zero basis functions in each batch (get_n_compute_maxes).
  | Maximal number of non-zero basis functions:      118 in task     0
  | Maximal number of non-zero basis functions:      117 in task     1
  | Maximal number of non-zero basis functions:      118 in task     2
  | Maximal number of non-zero basis functions:      118 in task     3
  | Maximal number of non-zero basis functions:      118 in task     4
  | Maximal number of non-zero basis functions:      118 in task     5
  | Maximal number of non-zero basis functions:      118 in task     6
  | Maximal number of non-zero basis functions:      117 in task     7
  Selecting the method for density update.
  Loop over occupied states selected for charge density update.
  Allocating        0.035 MB for KS_eigenvector
  Integrating Hamiltonian matrix: batch-based integration.
  Time summed over all CPUs for integration: real work        3.011 s, elapsed        3.163 s
  Integrating overlap matrix.
  Time summed over all CPUs for integration: real work        1.128 s, elapsed        1.181 s

  Updating Kohn-Sham eigenvalues, eigenvectors, occupation numbers, and Fermi level.
  Solving generalized eigenproblem
  Updating Kohn-Sham eigenvalues and eigenfunctions.
  Transforming overlap matrix and checking for singularities.
  Overlap matrix is nonsingular:
  | Lowest eigenvalue:  0.203887E-03
  Solving real generalised eigenvalue problem by standard LAPACK (fast)

  Obtaining occupation numbers and chemical potential using ELSI.
  | Chemical potential (Fermi level):    -4.20807473eV
  Writing Kohn-Sham eigenvalues.

  State    Occupation    Eigenvalue [Ha]    Eigenvalue [eV]
      1       2.00000        -101.459793        -2760.86143
      2       2.00000        -101.452007        -2760.64957
      3       2.00000         -10.164523         -276.59075
      4       2.00000          -9.297367         -252.99423
      5       2.00000          -9.288659         -252.75727
      6       2.00000          -7.052549         -191.90961
      7       2.00000          -7.051155         -191.87168
      8       2.00000          -7.051155         -191.87168
      9       2.00000          -7.043063         -191.65149
     10       2.00000          -7.043014         -191.65016
     11       2.00000          -7.043014         -191.65016
     12       2.00000          -0.854629          -23.25563
     13       2.00000          -0.762587          -20.75104
     14       2.00000          -0.740085          -20.13872
     15       2.00000          -0.535928          -14.58333
     16       2.00000          -0.535716          -14.57757
     17       2.00000          -0.453229          -12.33298
     18       2.00000          -0.323909           -8.81400
     19       2.00000          -0.323901           -8.81381
     20       2.00000          -0.317335           -8.63514
     21       2.00000          -0.315516           -8.58562
     22       2.00000          -0.315514           -8.58557
     23       0.00000          -0.120020           -3.26590
     24       0.00000          -0.043169           -1.17468
     25       0.00000           0.001171            0.03186
     26       0.00000           0.001233            0.03356
     27       0.00000           0.060826            1.65517
     28       0.00000           0.060937            1.65817
     29       0.00000           0.097444            2.65158
     30       0.00000           0.130728            3.55728
     31       0.00000           0.176234            4.79558
     32       0.00000           0.176248            4.79596
     33       0.00000           0.199925            5.44024
     34       0.00000           0.199954            5.44102
     35       0.00000           0.214101            5.82598
     36       0.00000           0.242631            6.60233

  Highest occupied state (VBM) at     -8.58557048 eV
  | Occupation number:      2.00000000

  Lowest unoccupied state (CBM) at    -3.26590242 eV
  | Occupation number:      0.00000000

  Overall HOMO-LUMO gap:      5.31966806 eV.
  Calculating total energy contributions from superposition of free atom densities.

  Total energy components:
  | Sum of eigenvalues            :        -558.84929047 Ha      -15207.06292065 eV
  | XC energy correction          :         -62.46913618 Ha       -1699.87168401 eV
  | XC potential correction       :          80.70902471 Ha        2196.20430405 eV
  | Free-atom electrostatic energy:        -424.17359225 Ha      -11542.35071342 eV
  | Hartree energy correction     :           0.00000000 Ha           0.00000000 eV
  | vdW energy correction         :           0.00000000 Ha           0.00000000 eV
  | Entropy correction            :           0.00000000 Ha           0.00000000 eV
  | ---------------------------
  | Total energy                  :        -964.78299419 Ha      -26253.08101403 eV
  | Total energy, T -> 0          :        -964.78299419 Ha      -26253.08101403 eV  <-- do not rely on this value for anything but (periodic) metals
  | Electronic free energy        :        -964.78299419 Ha      -26253.08101403 eV

  Derived energy quantities:
  | Kinetic energy                :         967.26200902 Ha       26320.53843960 eV
  | Electrostatic energy          :       -1869.57586703 Ha      -50873.74776962 eV
  | Energy correction for multipole
  | error in Hartree potential    :           0.00000000 Ha           0.00000000 eV
  | Sum of eigenvalues per atom                           :       -2534.51048678 eV
  | Total energy (T->0) per atom                          :       -4375.51350234 eV  <-- do not rely on this value for anything but (periodic) metals
  | Electronic free energy per atom                       :       -4375.51350234 eV
  Initialize hartree_potential_storage
  Max. number of atoms included in rho_multipole:            6

  End scf initialization - timings             :  max(cpu_time)    wall_clock(cpu1)
  | Time for scf. initialization               :        0.552 s           0.552 s
  | Boundary condition initialization          :        0.000 s           0.000 s
  | Integration                                :        0.348 s           0.345 s
  | Solution of K.-S. eqns.                    :        0.016 s           0.015 s
  | Grid partitioning                          :        0.076 s           0.077 s
  | Preloading free-atom quantities on grid    :        0.024 s           0.021 s
  | Free-atom superposition energy             :        0.024 s           0.022 s
  | Total energy evaluation                    :        0.000 s           0.001 s

  Partial memory accounting:
  | Current value for overall tracked memory usage on task 0  :           0.267 MB
  | Peak value for overall tracked memory usage on task 0     :           0.832 MB after allocating wave
  | Largest tracked array allocation on task 0 so far         :           0.189 MB  when allocating H_times_psi
  Note:  These values currently only include a subset of arrays which are explicitly tracked.
  The "true" memory usage will be greater.
------------------------------------------------------------

------------------------------------------------------------
          Begin self-consistency iteration #    1

  Date     :  20180214, Time     :  154131.109
------------------------------------------------------------
  Evaluating new KS density.
  Integration grid: deviation in total charge (<rho> - N_e) =  -7.105427E-15
  Pulay mixing of updated and previous charge densities.

  Evaluating partitioned Hartree potential by multipole expansion.
  | Analytical far-field extrapolation by fixed multipoles:
  | Hartree multipole sum: apparent total charge =  -0.500592E-01
  Summing up the Hartree potential.
  Time summed over all CPUs for potential: real work        1.983 s, elapsed        2.039 s
  | RMS charge density error from multipole expansion :   0.300490E-03

  Integrating Hamiltonian matrix: batch-based integration.
  Time summed over all CPUs for integration: real work        2.975 s, elapsed        3.060 s

  Updating Kohn-Sham eigenvalues, eigenvectors, occupation numbers, and Fermi level.
  Solving generalized eigenproblem
  Updating Kohn-Sham eigenvalues and eigenfunctions.
  Solving real generalised eigenvalue problem by standard LAPACK (fast)

  Obtaining occupation numbers and chemical potential using ELSI.
  | Chemical potential (Fermi level):    -3.78270205eV
  Writing Kohn-Sham eigenvalues.

  State    Occupation    Eigenvalue [Ha]    Eigenvalue [eV]
      1       2.00000        -101.450950        -2760.62080
      2       2.00000        -101.416476        -2759.68272
      3       2.00000         -10.126135         -275.54615
      4       2.00000          -9.288558         -252.75453
      5       2.00000          -9.256145         -251.87251
      6       2.00000          -7.044246         -191.68369
      7       2.00000          -7.042088         -191.62496
      8       2.00000          -7.042088         -191.62496
      9       2.00000          -7.010262         -190.75893
     10       2.00000          -7.010198         -190.75720
     11       2.00000          -7.010198         -190.75720
     12       2.00000          -0.837973          -22.80240
     13       2.00000          -0.738720          -20.10160
     14       2.00000          -0.721517          -19.63347
     15       2.00000          -0.513411          -13.97063
     16       2.00000          -0.513203          -13.96495
     17       2.00000          -0.438119          -11.92182
     18       2.00000          -0.314210           -8.55008
     19       2.00000          -0.314200           -8.54983
     20       2.00000          -0.294315           -8.00871
     21       2.00000          -0.292899           -7.97019
     22       2.00000          -0.292898           -7.97017
     23       0.00000          -0.104335           -2.83909
     24       0.00000          -0.031210           -0.84927
     25       0.00000           0.013813            0.37588
     26       0.00000           0.013866            0.37731
     27       0.00000           0.072209            1.96491
     28       0.00000           0.072326            1.96808
     29       0.00000           0.109115            2.96916
     30       0.00000           0.143488            3.90450
     31       0.00000           0.189982            5.16968
     32       0.00000           0.189998            5.17011
     33       0.00000           0.210711            5.73374
     34       0.00000           0.210740            5.73452
     35       0.00000           0.227285            6.18474
     36       0.00000           0.258290            7.02843

  Highest occupied state (VBM) at     -7.97016979 eV
  | Occupation number:      2.00000000

  Lowest unoccupied state (CBM) at    -2.83908850 eV
  | Occupation number:      0.00000000

  Overall HOMO-LUMO gap:      5.13108129 eV.

  Total energy components:
  | Sum of eigenvalues            :        -557.93761739 Ha      -15182.25503376 eV
  | XC energy correction          :         -62.51782618 Ha       -1701.19660626 eV
  | XC potential correction       :          80.77244485 Ha        2197.93005385 eV
  | Free-atom electrostatic energy:        -424.17359225 Ha      -11542.35071342 eV
  | Hartree energy correction     :          -0.88961473 Ha         -24.20764846 eV
  | vdW energy correction         :           0.00000000 Ha           0.00000000 eV
  | Entropy correction            :           0.00000000 Ha           0.00000000 eV
  | ---------------------------
  | Total energy                  :        -964.74620569 Ha      -26252.07994805 eV
  | Total energy, T -> 0          :        -964.74620569 Ha      -26252.07994805 eV  <-- do not rely on this value for anything but (periodic) metals
  | Electronic free energy        :        -964.74620569 Ha      -26252.07994805 eV

  Derived energy quantities:
  | Kinetic energy                :         967.52236058 Ha       26327.62296608 eV
  | Electrostatic energy          :       -1869.75074009 Ha      -50878.50630787 eV
  | Energy correction for multipole
  | error in Hartree potential    :          -0.00015967 Ha          -0.00434494 eV
  | Sum of eigenvalues per atom                           :       -2530.37583896 eV
  | Total energy (T->0) per atom                          :       -4375.34665801 eV  <-- do not rely on this value for anything but (periodic) metals
  | Electronic free energy per atom                       :       -4375.34665801 eV

  Self-consistency convergence accuracy:
  | Change of charge density      :  0.3376E+00
  | Change of sum of eigenvalues  :  0.2481E+02 eV
  | Change of total energy        :  0.1001E+01 eV

  End self-consistency iteration #     1       :  max(cpu_time)    wall_clock(cpu1)
  | Time for this iteration                    :        0.684 s           0.682 s
  | Charge density update                      :        0.256 s           0.254 s
  | Density mixing                             :        0.004 s           0.003 s
  | Hartree multipole update                   :        0.016 s           0.015 s
  | Hartree multipole summation                :        0.164 s           0.162 s
  | Integration                                :        0.244 s           0.243 s
  | Solution of K.-S. eqns.                    :        0.004 s           0.003 s
  | Total energy evaluation                    :        0.000 s           0.001 s

  Partial memory accounting:
  | Current value for overall tracked memory usage on task 0  :           0.267 MB
  | Peak value for overall tracked memory usage on task 0     :           1.022 MB after allocating gradient_basis_wave
  | Largest tracked array allocation on task 0 so far         :           0.566 MB  when allocating gradient_basis_wave
  Note:  These values currently only include a subset of arrays which are explicitly tracked.
  The "true" memory usage will be greater.
------------------------------------------------------------

------------------------------------------------------------
          Begin self-consistency iteration #    2

  Date     :  20180214, Time     :  154131.792
------------------------------------------------------------
  Evaluating new KS density.
  Integration grid: deviation in total charge (<rho> - N_e) =   0.000000E+00
  Pulay mixing of updated and previous charge densities.

  Evaluating partitioned Hartree potential by multipole expansion.
  | Analytical far-field extrapolation by fixed multipoles:
  | Hartree multipole sum: apparent total charge =  -0.412816E+00
  Summing up the Hartree potential.
  Time summed over all CPUs for potential: real work        2.057 s, elapsed        2.204 s
  | RMS charge density error from multipole expansion :   0.243355E-02

  Integrating Hamiltonian matrix: batch-based integration.
  Time summed over all CPUs for integration: real work        3.020 s, elapsed        3.379 s

  Updating Kohn-Sham eigenvalues, eigenvectors, occupation numbers, and Fermi level.
  Solving generalized eigenproblem
  Updating Kohn-Sham eigenvalues and eigenfunctions.
  Solving real generalised eigenvalue problem by standard LAPACK (fast)

  Obtaining occupation numbers and chemical potential using ELSI.
  | Chemical potential (Fermi level):    -1.61870970eV
  Highest occupied state (VBM) at     -3.64456393 eV
  | Occupation number:      2.00000000

  Lowest unoccupied state (CBM) at     0.23590128 eV
  | Occupation number:      0.00000000

  Overall HOMO-LUMO gap:      3.88046521 eV.

  Checking to see if s.c.f. parameters should be adjusted.
  The system likely has a gap. Increased the default Pulay mixing parameter (charge_mix_param). Value:   0.200000 .
  Kept the default occupation width. Value:   0.010000 eV.

  Total energy components:
  | Sum of eigenvalues            :        -551.58286907 Ha      -15009.33353401 eV
  | XC energy correction          :         -62.86620346 Ha       -1710.67643429 eV
  | XC potential correction       :          81.22593710 Ha        2210.27020569 eV
  | Free-atom electrostatic energy:        -424.17359225 Ha      -11542.35071342 eV
  | Hartree energy correction     :          -7.19678311 Ha        -195.83443248 eV
  | vdW energy correction         :           0.00000000 Ha           0.00000000 eV
  | Entropy correction            :           0.00000000 Ha           0.00000000 eV
  | ---------------------------
  | Total energy                  :        -964.59351080 Ha      -26247.92490850 eV
  | Total energy, T -> 0          :        -964.59351080 Ha      -26247.92490850 eV  <-- do not rely on this value for anything but (periodic) metals
  | Electronic free energy        :        -964.59351080 Ha      -26247.92490850 eV

  Derived energy quantities:
  | Kinetic energy                :         969.10464136 Ha       26370.67901668 eV
  | Electrostatic energy          :       -1870.83194870 Ha      -50907.92749090 eV
  | Energy correction for multipole
  | error in Hartree potential    :          -0.00129136 Ha          -0.03513980 eV
  | Sum of eigenvalues per atom                           :       -2501.55558900 eV
  | Total energy (T->0) per atom                          :       -4374.65415142 eV  <-- do not rely on this value for anything but (periodic) metals
  | Electronic free energy per atom                       :       -4374.65415142 eV

  Self-consistency convergence accuracy:
  | Change of charge density      :  0.3063E+00
  | Change of sum of eigenvalues  :  0.1729E+03 eV
  | Change of total energy        :  0.4155E+01 eV

  End self-consistency iteration #     2       :  max(cpu_time)    wall_clock(cpu1)
  | Time for this iteration                    :        0.720 s           0.719 s
  | Charge density update                      :        0.256 s           0.252 s
  | Density mixing                             :        0.004 s           0.004 s
  | Hartree multipole update                   :        0.016 s           0.015 s
  | Hartree multipole summation                :        0.176 s           0.175 s
  | Integration                                :        0.268 s           0.267 s
  | Solution of K.-S. eqns.                    :        0.004 s           0.003 s
  | Total energy evaluation                    :        0.004 s           0.001 s

  Partial memory accounting:
  | Current value for overall tracked memory usage on task 0  :           0.268 MB
  | Peak value for overall tracked memory usage on task 0     :           1.022 MB after allocating gradient_basis_wave
  | Largest tracked array allocation on task 0 so far         :           0.566 MB  when allocating gradient_basis_wave
  Note:  These values currently only include a subset of arrays which are explicitly tracked.
  The "true" memory usage will be greater.
------------------------------------------------------------

------------------------------------------------------------
          Begin self-consistency iteration #    3

  Date     :  20180214, Time     :  154132.512
------------------------------------------------------------
  Evaluating new KS density.
  Integration grid: deviation in total charge (<rho> - N_e) =   0.000000E+00
  Pulay mixing of updated and previous charge densities.

  Evaluating partitioned Hartree potential by multipole expansion.
  | Analytical far-field extrapolation by fixed multipoles:
  | Hartree multipole sum: apparent total charge =  -0.645485E+00
  Summing up the Hartree potential.
  Time summed over all CPUs for potential: real work        2.011 s, elapsed        2.073 s
  | RMS charge density error from multipole expansion :   0.353638E-02

  Integrating Hamiltonian matrix: batch-based integration.
  Time summed over all CPUs for integration: real work        3.024 s, elapsed        3.107 s

  Updating Kohn-Sham eigenvalues, eigenvectors, occupation numbers, and Fermi level.
  Solving generalized eigenproblem
  Updating Kohn-Sham eigenvalues and eigenfunctions.
  Solving real generalised eigenvalue problem by standard LAPACK (fast)

  Obtaining occupation numbers and chemical potential using ELSI.
  | Chemical potential (Fermi level):    -0.41599011eV
  Highest occupied state (VBM) at     -2.21258435 eV
  | Occupation number:      2.00000000

  Lowest unoccupied state (CBM) at     1.53580438 eV
  | Occupation number:      0.00000000

  Overall HOMO-LUMO gap:      3.74838872 eV.

  Total energy components:
  | Sum of eigenvalues            :        -549.37241592 Ha      -14949.18404336 eV
  | XC energy correction          :         -62.95236822 Ha       -1713.02109669 eV
  | XC potential correction       :          81.33683058 Ha        2213.28777102 eV
  | Free-atom electrostatic energy:        -424.17359225 Ha      -11542.35071342 eV
  | Hartree energy correction     :          -9.40230863 Ha        -255.84983529 eV
  | vdW energy correction         :           0.00000000 Ha           0.00000000 eV
  | Entropy correction            :           0.00000000 Ha           0.00000000 eV
  | ---------------------------
  | Total energy                  :        -964.56385443 Ha      -26247.11791774 eV
  | Total energy, T -> 0          :        -964.56385443 Ha      -26247.11791774 eV  <-- do not rely on this value for anything but (periodic) metals
  | Electronic free energy        :        -964.56385443 Ha      -26247.11791774 eV

  Derived energy quantities:
  | Kinetic energy                :         968.97637232 Ha       26367.18863849 eV
  | Electrostatic energy          :       -1870.58785853 Ha      -50901.28545955 eV
  | Energy correction for multipole
  | error in Hartree potential    :          -0.00176121 Ha          -0.04792484 eV
  | Sum of eigenvalues per atom                           :       -2491.53067389 eV
  | Total energy (T->0) per atom                          :       -4374.51965296 eV  <-- do not rely on this value for anything but (periodic) metals
  | Electronic free energy per atom                       :       -4374.51965296 eV

  Self-consistency convergence accuracy:
  | Change of charge density      :  0.1576E+00
  | Change of sum of eigenvalues  :  0.6015E+02 eV
  | Change of total energy        :  0.8070E+00 eV

  End self-consistency iteration #     3       :  max(cpu_time)    wall_clock(cpu1)
  | Time for this iteration                    :        0.696 s           0.698 s
  | Charge density update                      :        0.260 s           0.257 s
  | Density mixing                             :        0.008 s           0.006 s
  | Hartree multipole update                   :        0.020 s           0.019 s
  | Hartree multipole summation                :        0.168 s           0.165 s
  | Integration                                :        0.244 s           0.248 s
  | Solution of K.-S. eqns.                    :        0.004 s           0.003 s
  | Total energy evaluation                    :        0.000 s           0.000 s

  Partial memory accounting:
  | Current value for overall tracked memory usage on task 0  :           0.268 MB
  | Peak value for overall tracked memory usage on task 0     :           1.023 MB after allocating gradient_basis_wave
  | Largest tracked array allocation on task 0 so far         :           0.566 MB  when allocating gradient_basis_wave
  Note:  These values currently only include a subset of arrays which are explicitly tracked.
  The "true" memory usage will be greater.
------------------------------------------------------------

------------------------------------------------------------
          Begin self-consistency iteration #    4

  Date     :  20180214, Time     :  154133.210
------------------------------------------------------------
  Evaluating new KS density.
  Integration grid: deviation in total charge (<rho> - N_e) =   7.105427E-15
  Pulay mixing of updated and previous charge densities.

  Evaluating partitioned Hartree potential by multipole expansion.
  | Analytical far-field extrapolation by fixed multipoles:
  | Hartree multipole sum: apparent total charge =  -0.920695E+00
  Summing up the Hartree potential.
  Time summed over all CPUs for potential: real work        2.045 s, elapsed        2.171 s
  | RMS charge density error from multipole expansion :   0.495758E-02

  Integrating Hamiltonian matrix: batch-based integration.
  Time summed over all CPUs for integration: real work        2.989 s, elapsed        3.119 s

  Updating Kohn-Sham eigenvalues, eigenvectors, occupation numbers, and Fermi level.
  Solving generalized eigenproblem
  Updating Kohn-Sham eigenvalues and eigenfunctions.
  Solving real generalised eigenvalue problem by standard LAPACK (fast)

  Obtaining occupation numbers and chemical potential using ELSI.
  | Chemical potential (Fermi level):     0.96317322eV
  Highest occupied state (VBM) at     -0.60419937 eV
  | Occupation number:      2.00000000

  Lowest unoccupied state (CBM) at     2.92997325 eV
  | Occupation number:      0.00000000

  Overall HOMO-LUMO gap:      3.53417262 eV.

  Total energy components:
  | Sum of eigenvalues            :        -547.04843208 Ha      -14885.94522555 eV
  | XC energy correction          :         -63.03654461 Ha       -1715.31165303 eV
  | XC potential correction       :          81.44481799 Ha        2216.22625795 eV
  | Free-atom electrostatic energy:        -424.17359225 Ha      -11542.35071342 eV
  | Hartree energy correction     :         -11.73537158 Ha        -319.33570823 eV
  | vdW energy correction         :           0.00000000 Ha           0.00000000 eV
  | Entropy correction            :           0.00000000 Ha           0.00000000 eV
  | ---------------------------
  | Total energy                  :        -964.54912253 Ha      -26246.71704229 eV
  | Total energy, T -> 0          :        -964.54912253 Ha      -26246.71704229 eV  <-- do not rely on this value for anything but (periodic) metals
  | Electronic free energy        :        -964.54912253 Ha      -26246.71704229 eV

  Derived energy quantities:
  | Kinetic energy                :         968.59781317 Ha       26356.88752003 eV
  | Electrostatic energy          :       -1870.11039109 Ha      -50888.29290929 eV
  | Energy correction for multipole
  | error in Hartree potential    :          -0.00230220 Ha          -0.06264592 eV
  | Sum of eigenvalues per atom                           :       -2480.99087093 eV
  | Total energy (T->0) per atom                          :       -4374.45284038 eV  <-- do not rely on this value for anything but (periodic) metals
  | Electronic free energy per atom                       :       -4374.45284038 eV

  Self-consistency convergence accuracy:
  | Change of charge density      :  0.9467E-01
  | Change of sum of eigenvalues  :  0.6324E+02 eV
  | Change of total energy        :  0.4009E+00 eV

  End self-consistency iteration #     4       :  max(cpu_time)    wall_clock(cpu1)
  | Time for this iteration                    :        0.704 s           0.703 s
  | Charge density update                      :        0.256 s           0.255 s
  | Density mixing                             :        0.008 s           0.008 s
  | Hartree multipole update                   :        0.016 s           0.016 s
  | Hartree multipole summation                :        0.172 s           0.172 s
  | Integration                                :        0.248 s           0.248 s
  | Solution of K.-S. eqns.                    :        0.004 s           0.003 s
  | Total energy evaluation                    :        0.000 s           0.001 s

  Partial memory accounting:
  | Current value for overall tracked memory usage on task 0  :           0.268 MB
  | Peak value for overall tracked memory usage on task 0     :           1.023 MB after allocating gradient_basis_wave
  | Largest tracked array allocation on task 0 so far         :           0.566 MB  when allocating gradient_basis_wave
  Note:  These values currently only include a subset of arrays which are explicitly tracked.
  The "true" memory usage will be greater.
------------------------------------------------------------

------------------------------------------------------------
          Begin self-consistency iteration #    5

  Date     :  20180214, Time     :  154133.914
------------------------------------------------------------
  Evaluating new KS density.
  Integration grid: deviation in total charge (<rho> - N_e) =   7.105427E-15
  Pulay mixing of updated and previous charge densities.

  Evaluating partitioned Hartree potential by multipole expansion.
  | Analytical far-field extrapolation by fixed multipoles:
  | Hartree multipole sum: apparent total charge =  -0.981059E+00
  Summing up the Hartree potential.
  Time summed over all CPUs for potential: real work        2.027 s, elapsed        2.249 s
  | RMS charge density error from multipole expansion :   0.531269E-02

  Integrating Hamiltonian matrix: batch-based integration.
  Time summed over all CPUs for integration: real work        2.983 s, elapsed        3.086 s

  Updating Kohn-Sham eigenvalues, eigenvectors, occupation numbers, and Fermi level.
  Solving generalized eigenproblem
  Updating Kohn-Sham eigenvalues and eigenfunctions.
  Solving real generalised eigenvalue problem by standard LAPACK (fast)

  Obtaining occupation numbers and chemical potential using ELSI.
  | Chemical potential (Fermi level):     1.17630156eV
  Highest occupied state (VBM) at     -0.20252795 eV
  | Occupation number:      2.00000000

  Lowest unoccupied state (CBM) at     3.12973895 eV
  | Occupation number:      0.00000000

  Overall HOMO-LUMO gap:      3.33226690 eV.

  Total energy components:
  | Sum of eigenvalues            :        -546.74548392 Ha      -14877.70158645 eV
  | XC energy correction          :         -63.03657598 Ha       -1715.31250666 eV
  | XC potential correction       :          81.44444601 Ha        2216.21613566 eV
  | Free-atom electrostatic energy:        -424.17359225 Ha      -11542.35071342 eV
  | Hartree energy correction     :         -12.03702471 Ha        -327.54410766 eV
  | vdW energy correction         :           0.00000000 Ha           0.00000000 eV
  | Entropy correction            :           0.00000000 Ha           0.00000000 eV
  | ---------------------------
  | Total energy                  :        -964.54823085 Ha      -26246.69277853 eV
  | Total energy, T -> 0          :        -964.54823085 Ha      -26246.69277853 eV  <-- do not rely on this value for anything but (periodic) metals
  | Electronic free energy        :        -964.54823085 Ha      -26246.69277853 eV

  Derived energy quantities:
  | Kinetic energy                :         968.35163782 Ha       26350.18874799 eV
  | Electrostatic energy          :       -1869.86329269 Ha      -50881.56901986 eV
  | Energy correction for multipole
  | error in Hartree potential    :          -0.00242842 Ha          -0.06608057 eV
  | Sum of eigenvalues per atom                           :       -2479.61693108 eV
  | Total energy (T->0) per atom                          :       -4374.44879642 eV  <-- do not rely on this value for anything but (periodic) metals
  | Electronic free energy per atom                       :       -4374.44879642 eV

  Self-consistency convergence accuracy:
  | Change of charge density      :  0.3007E-01
  | Change of sum of eigenvalues  :  0.8244E+01 eV
  | Change of total energy        :  0.2426E-01 eV

  End self-consistency iteration #     5       :  max(cpu_time)    wall_clock(cpu1)
  | Time for this iteration                    :        0.704 s           0.705 s
  | Charge density update                      :        0.252 s           0.251 s
  | Density mixing                             :        0.012 s           0.010 s
  | Hartree multipole update                   :        0.016 s           0.016 s
  | Hartree multipole summation                :        0.180 s           0.179 s
  | Integration                                :        0.244 s           0.244 s
  | Solution of K.-S. eqns.                    :        0.004 s           0.003 s
  | Total energy evaluation                    :        0.000 s           0.000 s

  Partial memory accounting:
  | Current value for overall tracked memory usage on task 0  :           0.268 MB
  | Peak value for overall tracked memory usage on task 0     :           1.023 MB after allocating gradient_basis_wave
  | Largest tracked array allocation on task 0 so far         :           0.566 MB  when allocating gradient_basis_wave
  Note:  These values currently only include a subset of arrays which are explicitly tracked.
  The "true" memory usage will be greater.
------------------------------------------------------------

------------------------------------------------------------
          Begin self-consistency iteration #    6

  Date     :  20180214, Time     :  154134.619
------------------------------------------------------------
  Evaluating new KS density.
  Integration grid: deviation in total charge (<rho> - N_e) =  -7.105427E-15
  Pulay mixing of updated and previous charge densities.

  Evaluating partitioned Hartree potential by multipole expansion.
  | Analytical far-field extrapolation by fixed multipoles:
  | Hartree multipole sum: apparent total charge =  -0.100590E+01
  Summing up the Hartree potential.
  Time summed over all CPUs for potential: real work        2.013 s, elapsed        2.116 s
  | RMS charge density error from multipole expansion :   0.548211E-02

  Integrating Hamiltonian matrix: batch-based integration.
  Time summed over all CPUs for integration: real work        3.012 s, elapsed        3.111 s

  Updating Kohn-Sham eigenvalues, eigenvectors, occupation numbers, and Fermi level.
  Solving generalized eigenproblem
  Updating Kohn-Sham eigenvalues and eigenfunctions.
  Solving real generalised eigenvalue problem by standard LAPACK (fast)

  Obtaining occupation numbers and chemical potential using ELSI.
  | Chemical potential (Fermi level):     1.32030466eV
  Highest occupied state (VBM) at     -0.07941020 eV
  | Occupation number:      2.00000000

  Lowest unoccupied state (CBM) at     3.29168287 eV
  | Occupation number:      0.00000000

  Overall HOMO-LUMO gap:      3.37109308 eV.

  Total energy components:
  | Sum of eigenvalues            :        -546.52749483 Ha      -14871.76980174 eV
  | XC energy correction          :         -63.04418071 Ha       -1715.51944171 eV
  | XC potential correction       :          81.45427276 Ha        2216.48353516 eV
  | Free-atom electrostatic energy:        -424.17359225 Ha      -11542.35071342 eV
  | Hartree energy correction     :         -12.25718708 Ha        -333.53503052 eV
  | vdW energy correction         :           0.00000000 Ha           0.00000000 eV
  | Entropy correction            :           0.00000000 Ha           0.00000000 eV
  | ---------------------------
  | Total energy                  :        -964.54818211 Ha      -26246.69145222 eV
  | Total energy, T -> 0          :        -964.54818211 Ha      -26246.69145222 eV  <-- do not rely on this value for anything but (periodic) metals
  | Electronic free energy        :        -964.54818211 Ha      -26246.69145222 eV

  Derived energy quantities:
  | Kinetic energy                :         968.31438546 Ha       26349.17505962 eV
  | Electrostatic energy          :       -1869.81838686 Ha      -50880.34707014 eV
  | Energy correction for multipole
  | error in Hartree potential    :          -0.00247100 Ha          -0.06723929 eV
  | Sum of eigenvalues per atom                           :       -2478.62830029 eV
  | Total energy (T->0) per atom                          :       -4374.44857537 eV  <-- do not rely on this value for anything but (periodic) metals
  | Electronic free energy per atom                       :       -4374.44857537 eV

  Self-consistency convergence accuracy:
  | Change of charge density      :  0.1022E-01
  | Change of sum of eigenvalues  :  0.5932E+01 eV
  | Change of total energy        :  0.1326E-02 eV

  End self-consistency iteration #     6       :  max(cpu_time)    wall_clock(cpu1)
  | Time for this iteration                    :        0.700 s           0.702 s
  | Charge density update                      :        0.256 s           0.254 s
  | Density mixing                             :        0.012 s           0.014 s
  | Hartree multipole update                   :        0.016 s           0.016 s
  | Hartree multipole summation                :        0.168 s           0.168 s
  | Integration                                :        0.244 s           0.247 s
  | Solution of K.-S. eqns.                    :        0.004 s           0.003 s
  | Total energy evaluation                    :        0.000 s           0.000 s

  Partial memory accounting:
  | Current value for overall tracked memory usage on task 0  :           0.268 MB
  | Peak value for overall tracked memory usage on task 0     :           1.023 MB after allocating gradient_basis_wave
  | Largest tracked array allocation on task 0 so far         :           0.566 MB  when allocating gradient_basis_wave
  Note:  These values currently only include a subset of arrays which are explicitly tracked.
  The "true" memory usage will be greater.
------------------------------------------------------------

------------------------------------------------------------
          Begin self-consistency iteration #    7

  Date     :  20180214, Time     :  154135.322
------------------------------------------------------------
  Evaluating new KS density.
  Integration grid: deviation in total charge (<rho> - N_e) =   7.105427E-15
  Pulay mixing of updated and previous charge densities.

  Evaluating partitioned Hartree potential by multipole expansion.
  | Analytical far-field extrapolation by fixed multipoles:
  | Hartree multipole sum: apparent total charge =  -0.998774E+00
  Summing up the Hartree potential.
  Time summed over all CPUs for potential: real work        2.007 s, elapsed        2.096 s
  | RMS charge density error from multipole expansion :   0.545567E-02

  Integrating Hamiltonian matrix: batch-based integration.
  Time summed over all CPUs for integration: real work        2.966 s, elapsed        3.115 s

  Updating Kohn-Sham eigenvalues, eigenvectors, occupation numbers, and Fermi level.
  Solving generalized eigenproblem
  Updating Kohn-Sham eigenvalues and eigenfunctions.
  Solving real generalised eigenvalue problem by standard LAPACK (fast)

  Obtaining occupation numbers and chemical potential using ELSI.
  | Chemical potential (Fermi level):     1.28063207eV
  Highest occupied state (VBM) at     -0.12351407 eV
  | Occupation number:      2.00000000

  Lowest unoccupied state (CBM) at     3.24861095 eV
  | Occupation number:      0.00000000

  Overall HOMO-LUMO gap:      3.37212502 eV.

  Total energy components:
  | Sum of eigenvalues            :        -546.60268718 Ha      -14873.81588958 eV
  | XC energy correction          :         -63.04065798 Ha       -1715.42358335 eV
  | XC potential correction       :          81.44972156 Ha        2216.35969069 eV
  | Free-atom electrostatic energy:        -424.17359225 Ha      -11542.35071342 eV
  | Hartree energy correction     :         -12.18095837 Ha        -331.46074170 eV
  | vdW energy correction         :           0.00000000 Ha           0.00000000 eV
  | Entropy correction            :           0.00000000 Ha           0.00000000 eV
  | ---------------------------
  | Total energy                  :        -964.54817422 Ha      -26246.69123736 eV
  | Total energy, T -> 0          :        -964.54817422 Ha      -26246.69123736 eV  <-- do not rely on this value for anything but (periodic) metals
  | Electronic free energy        :        -964.54817422 Ha      -26246.69123736 eV

  Derived energy quantities:
  | Kinetic energy                :         968.31704504 Ha       26349.24743041 eV
  | Electrostatic energy          :       -1869.82456128 Ha      -50880.51508442 eV
  | Energy correction for multipole
  | error in Hartree potential    :          -0.00245216 Ha          -0.06672660 eV
  | Sum of eigenvalues per atom                           :       -2478.96931493 eV
  | Total energy (T->0) per atom                          :       -4374.44853956 eV  <-- do not rely on this value for anything but (periodic) metals
  | Electronic free energy per atom                       :       -4374.44853956 eV

  Self-consistency convergence accuracy:
  | Change of charge density      :  0.4151E-02
  | Change of sum of eigenvalues  : -0.2046E+01 eV
  | Change of total energy        :  0.2149E-03 eV

  End self-consistency iteration #     7       :  max(cpu_time)    wall_clock(cpu1)
  | Time for this iteration                    :        0.712 s           0.712 s
  | Charge density update                      :        0.260 s           0.262 s
  | Density mixing                             :        0.016 s           0.016 s
  | Hartree multipole update                   :        0.016 s           0.016 s
  | Hartree multipole summation                :        0.168 s           0.167 s
  | Integration                                :        0.248 s           0.247 s
  | Solution of K.-S. eqns.                    :        0.004 s           0.003 s
  | Total energy evaluation                    :        0.000 s           0.001 s

  Partial memory accounting:
  | Current value for overall tracked memory usage on task 0  :           0.268 MB
  | Peak value for overall tracked memory usage on task 0     :           1.023 MB after allocating gradient_basis_wave
  | Largest tracked array allocation on task 0 so far         :           0.566 MB  when allocating gradient_basis_wave
  Note:  These values currently only include a subset of arrays which are explicitly tracked.
  The "true" memory usage will be greater.
------------------------------------------------------------

------------------------------------------------------------
          Begin self-consistency iteration #    8

  Date     :  20180214, Time     :  154136.035
------------------------------------------------------------
  Evaluating new KS density.
  Integration grid: deviation in total charge (<rho> - N_e) =   3.552714E-14
  Pulay mixing of updated and previous charge densities.

  Evaluating partitioned Hartree potential by multipole expansion.
  | Analytical far-field extrapolation by fixed multipoles:
  | Hartree multipole sum: apparent total charge =  -0.100034E+01
  Summing up the Hartree potential.
  Time summed over all CPUs for potential: real work        2.023 s, elapsed        2.254 s
  | RMS charge density error from multipole expansion :   0.547828E-02

  Integrating Hamiltonian matrix: batch-based integration.
  Time summed over all CPUs for integration: real work        3.036 s, elapsed        3.150 s

  Updating Kohn-Sham eigenvalues, eigenvectors, occupation numbers, and Fermi level.
[...]
     10       2.00000          -6.697907         -182.25934
     11       2.00000          -6.697907         -182.25933
     12       2.00000          -0.622069          -16.92736
     13       2.00000          -0.462706          -12.59086
     14       2.00000          -0.429408          -11.68478
     15       2.00000          -0.240252           -6.53759
     16       2.00000          -0.240086           -6.53307
     17       2.00000          -0.219107           -5.96219
     18       2.00000          -0.120174           -3.27011
     19       2.00000          -0.120147           -3.26937
     20       2.00000          -0.007051           -0.19188
     21       2.00000          -0.003823           -0.10404
     22       2.00000          -0.003822           -0.10400
     23       0.00000           0.119501            3.25178
     24       0.00000           0.139222            3.78843
     25       0.00000           0.173520            4.72172
     26       0.00000           0.173533            4.72208
     27       0.00000           0.258950            7.04638
     28       0.00000           0.259088            7.05015
     29       0.00000           0.288498            7.85044
     30       0.00000           0.333836            9.08413
     31       0.00000           0.385368           10.48640
     32       0.00000           0.385390           10.48699
     33       0.00000           0.393468           10.70680
     34       0.00000           0.393480           10.70714
     35       0.00000           0.411664           11.20194
     36       0.00000           0.444492           12.09524

  Highest occupied state (VBM) at     -0.10399909 eV
  | Occupation number:      2.00000000

  Lowest unoccupied state (CBM) at     3.25177566 eV
  | Occupation number:      0.00000000

  Overall HOMO-LUMO gap:      3.35577475 eV.

  Self-consistency cycle converged.

  End self-consistency iteration #    16       :  max(cpu_time)    wall_clock(cpu1)
  | Time for this iteration                    :        1.952 s           1.958 s
  | Charge density & force component update    :        1.056 s           1.055 s
  | Density mixing                             :        0.020 s           0.023 s
  | Hartree multipole update                   :        0.020 s           0.018 s
  | Hartree multipole summation                :        0.596 s           0.598 s
  | Integration                                :        0.256 s           0.256 s
  | Solution of K.-S. eqns.                    :        0.004 s           0.003 s
  | Total energy evaluation                    :        0.004 s           0.003 s

  Partial memory accounting:
  | Current value for overall tracked memory usage on task 0  :           0.268 MB
  | Peak value for overall tracked memory usage on task 0     :           2.348 MB after allocating hessian_basis_wave
  | Largest tracked array allocation on task 0 so far         :           1.133 MB  when allocating hessian_basis_wave
  Note:  These values currently only include a subset of arrays which are explicitly tracked.
  The "true" memory usage will be greater.
------------------------------------------------------------
  Obtaining max. number of non-zero basis functions in each batch .
  Evaluating KS electron density on previously omitted grid points.
  Evaluating non-empirical van der Waals correction (Tkatchenko/Scheffler 2009).
  Performing Hirshfeld analysis of fragment charges and moments.
  ----------------------------------------------------------------------
  | Atom     1: Cl
  |   Hirshfeld charge        :     -0.21443034
  |   Free atom volume        :     65.35447769
  |   Hirshfeld volume        :     67.93914508
  |   Hirshfeld dipole vector :      0.11065908      -0.00000273       0.00000000
  |   Hirshfeld dipole moment :      0.11065908
  |   Hirshfeld second moments:      0.05120229      -0.00000362      -0.00000000
  |                                 -0.00000362      -0.17453369       0.00000000
  |                                 -0.00000000       0.00000000      -0.17450012
  ----------------------------------------------------------------------
  | Atom     2: C
  |   Hirshfeld charge        :     -0.09375002
  |   Free atom volume        :     38.37861207
  |   Hirshfeld volume        :     33.34287613
  |   Hirshfeld dipole vector :     -0.02779811      -0.00005058       0.00000000
  |   Hirshfeld dipole moment :      0.02779815
  |   Hirshfeld second moments:      0.06948692      -0.00001062       0.00000000
  |                                 -0.00001062       0.12839990       0.00000000
  |                                  0.00000000       0.00000000       0.12840357
  ----------------------------------------------------------------------
  | Atom     3: Cl
  |   Hirshfeld charge        :     -0.77530274
  |   Free atom volume        :     65.35447769
  |   Hirshfeld volume        :     85.14165161
  |   Hirshfeld dipole vector :     -0.12896280       0.00000452       0.00000000
  |   Hirshfeld dipole moment :      0.12896280
  |   Hirshfeld second moments:     -0.42735359      -0.00002385      -0.00000000
  |                                 -0.00002385      -0.63373112       0.00000000
  |                                 -0.00000000       0.00000000      -0.63369931
  ----------------------------------------------------------------------
  | Atom     4: H
  |   Hirshfeld charge        :      0.02778964
  |   Free atom volume        :     10.31539447
  |   Hirshfeld volume        :      8.27427523
  |   Hirshfeld dipole vector :      0.01114308       0.07871246       0.00000000
  |   Hirshfeld dipole moment :      0.07949729
  |   Hirshfeld second moments:      0.03037000      -0.00883632      -0.00000000
  |                                 -0.00883632       0.07427201      -0.00000000
  |                                 -0.00000000      -0.00000000       0.09239693
  ----------------------------------------------------------------------
  | Atom     5: H
  |   Hirshfeld charge        :      0.02781971
  |   Free atom volume        :     10.31539447
  |   Hirshfeld volume        :      8.27369241
  |   Hirshfeld dipole vector :      0.01113381      -0.03931136       0.06823601
  |   Hirshfeld dipole moment :      0.07953299
  |   Hirshfeld second moments:      0.03038661       0.00441599      -0.00765044
  |                                  0.00441599       0.08787016       0.00783907
  |                                 -0.00765044       0.00783907       0.07884397
  ----------------------------------------------------------------------
  | Atom     6: H
  |   Hirshfeld charge        :      0.02781971
  |   Free atom volume        :     10.31539447
  |   Hirshfeld volume        :      8.27369241
  |   Hirshfeld dipole vector :      0.01113381      -0.03931136      -0.06823601
  |   Hirshfeld dipole moment :      0.07953299
  |   Hirshfeld second moments:      0.03038661       0.00441599       0.00765044
  |                                  0.00441599       0.08787016      -0.00783907
  |                                  0.00765044      -0.00783907       0.07884397
  ----------------------------------------------------------------------


  Total energy components:
  | Sum of eigenvalues            :        -546.58177561 Ha      -14873.24685687 eV
  | XC energy correction          :         -63.04244279 Ha       -1715.47215055 eV
  | XC potential correction       :          81.45202724 Ha        2216.42243158 eV
  | Free-atom electrostatic energy:        -424.17359225 Ha      -11542.35071342 eV
  | Hartree energy correction     :         -12.20238729 Ha        -332.04385227 eV
  | vdW energy correction         :          -0.00041070 Ha          -0.01117569 eV
  | Entropy correction            :           0.00000000 Ha           0.00000000 eV
  | ---------------------------
  | Total energy                  :        -964.54858139 Ha      -26246.70231722 eV
  | Total energy, T -> 0          :        -964.54858139 Ha      -26246.70231722 eV  <-- do not rely on this value for anything but (periodic) metals
  | Electronic free energy        :        -964.54858139 Ha      -26246.70231722 eV

  Derived energy quantities:
  | Kinetic energy                :         968.32404893 Ha       26349.43801616 eV
  | Electrostatic energy          :       -1869.82977684 Ha      -50880.65700714 eV
  | Energy correction for multipole
  | error in Hartree potential    :          -0.00244799 Ha          -0.06661316 eV
  | Sum of eigenvalues per atom                           :       -2478.87447614 eV
  | Total energy (T->0) per atom                          :       -4374.45038620 eV  <-- do not rely on this value for anything but (periodic) metals
  | Electronic free energy per atom                       :       -4374.45038620 eV

  atomic forces [eV/Ang]:
  -----------------------
  atom #    1
   Hellmann-Feynman              : -0.267110E+02 -0.122854E-02  0.432713E-12
   Ionic forces                  :  0.000000E+00  0.000000E+00  0.000000E+00
   Multipole                     :  0.368367E-01 -0.306348E-04  0.745552E-12
   Pulay + GGA                   :  0.266818E+02  0.159885E-02  0.234069E-10
   Van der Waals                 :  0.331956E-02 -0.902003E-06 -0.209070E-17
   ----------------------------------------------------------------
   Total forces(   1)            :  0.109200E-01  0.338773E-03  0.245851E-10
  atom #    2
   Hellmann-Feynman              :  0.354965E+01  0.873193E-02  0.296336E-11
   Ionic forces                  :  0.000000E+00  0.000000E+00  0.000000E+00
   Multipole                     : -0.158450E-01  0.575332E-03 -0.803943E-13
   Pulay + GGA                   : -0.352830E+01  0.110801E-02 -0.409763E-11
   Van der Waals                 : -0.472178E-02 -0.175664E-07 -0.136113E-19
   ----------------------------------------------------------------
   Total forces(   2)            :  0.788626E-03  0.104153E-01 -0.121466E-11
  atom #    3
   Hellmann-Feynman              :  0.231354E+01 -0.615643E-03 -0.459735E-11
   Ionic forces                  :  0.000000E+00  0.000000E+00  0.000000E+00
   Multipole                     : -0.467712E-01  0.306029E-04  0.694253E-12
   Pulay + GGA                   : -0.227747E+01  0.101187E-02 -0.352359E-10
   Van der Waals                 :  0.889082E-02 -0.583790E-06 -0.418139E-17
   ----------------------------------------------------------------
   Total forces(   3)            : -0.181666E-02  0.426250E-03 -0.391390E-10
  atom #    4
   Hellmann-Feynman              : -0.844329E-02 -0.633448E-01 -0.109180E-13
   Ionic forces                  :  0.000000E+00  0.000000E+00  0.000000E+00
   Multipole                     : -0.124650E-01 -0.173256E-01 -0.172831E-15
   Pulay + GGA                   :  0.183171E-01  0.742486E-01 -0.320462E-13
   Van der Waals                 : -0.249385E-02  0.206145E-02 -0.980014E-19
   ----------------------------------------------------------------
   Total forces(   4)            : -0.508509E-02 -0.436029E-02 -0.431371E-13
  atom #    5
   Hellmann-Feynman              : -0.459905E-02  0.261509E-01 -0.517761E-01
   Ionic forces                  :  0.000000E+00  0.000000E+00  0.000000E+00
   Multipole                     : -0.124998E-01  0.858764E-02 -0.151250E-01
   Pulay + GGA                   :  0.183851E-01 -0.370928E-01  0.643444E-01
   Van der Waals                 : -0.249737E-02 -0.102997E-02  0.178633E-02
   ----------------------------------------------------------------
   Total forces(   5)            : -0.121105E-02 -0.338424E-02 -0.770388E-03
  atom #    6
   Hellmann-Feynman              : -0.459905E-02  0.261509E-01  0.517761E-01
   Ionic forces                  :  0.000000E+00  0.000000E+00  0.000000E+00
   Multipole                     : -0.124998E-01  0.858764E-02  0.151250E-01
   Pulay + GGA                   :  0.183851E-01 -0.370928E-01 -0.643444E-01
   Van der Waals                 : -0.249737E-02 -0.102997E-02 -0.178633E-02
   ----------------------------------------------------------------
   Total forces(   6)            : -0.121105E-02 -0.338424E-02  0.770388E-03

  Timings for VdW correction (Tkatchenko-Scheffler 2009 or later):
  | CPU time:        0.048 s, Wall clock time:        0.047 s.
  Removing unitary transformations (pure translations, rotations) from forces on atoms.
  Atomic forces before filtering:
  | Net force on center of mass :   0.238473E-02  0.515130E-04 -0.156486E-10 eV/A
  | Net torque on center of mass:  -0.906129E-13  0.159775E-09  0.946873E-03 eV
  Atomic forces after filtering:
  | Net force on center of mass :  -0.696899E-18  0.000000E+00 -0.871124E-19 eV/A
  | Net torque on center of mass:   0.000000E+00  0.256419E-18  0.737566E-18 eV

  Energy and forces in a compact form:
  | Total energy uncorrected      :         -0.262467023172154E+05 eV
  | Total energy corrected        :         -0.262467023172154E+05 eV  <-- do not rely on this value for anything but (periodic) metals
  | Electronic free energy        :         -0.262467023172154E+05 eV
  Total atomic forces (unitary forces cleaned) [eV/Ang]:
  |   1          0.105224959369557E-01          0.481635424676752E-03          0.164084273655890E-11
  |   2          0.391158225285466E-03          0.104314055644408E-01         -0.277953465080323E-11
  |   3         -0.221412728023334E-02          0.235282802537780E-03         -0.575951584243555E-11
  |   4         -0.541227047911508E-02         -0.436681668216441E-02          0.224650966812025E-11
  |   5         -0.164362821166711E-02         -0.339075355478985E-02         -0.770387651096510E-03
  |   6         -0.164362819122560E-02         -0.339075355470108E-02          0.770387655748208E-03

  ------------------------------------ 
  Start decomposition of the XC Energy 
  ------------------------------------ 
  X and C from original XC functional choice 
  Hartree-Fock Energy :          0.000000000 Ha              0.000000000 eV
  X Energy            :        -61.416366296 Ha          -1671.224357860 eV
  C Energy            :         -1.626076493 Ha            -44.247792690 eV
  Total XC Energy     :        -63.042442789 Ha          -1715.472150550 eV
  ------------------------------------ 
  LDA X and C from self-consistent density 
  X Energy LDA        :        -56.824903671 Ha          -1546.284302967 eV
  C Energy LDA        :         -3.249066737 Ha            -88.411604233 eV
  ------------------------------------ 
  End decomposition of the XC Energy 
  ------------------------------------ 

------------------------------------------------------------

------------------------------------------------------------------------------
  Final output of selected total energy values:

  The following output summarizes some interesting total energy values
  at the end of a run (AFTER all relaxation, molecular dynamics, etc.).

  | Total energy of the DFT / Hartree-Fock s.c.f. calculation      :         -26246.702317215 eV
  | Final zero-broadening corrected energy (caution - metals only) :         -26246.702317215 eV
  | For reference only, the value of 1 Hartree used in FHI-aims is :             27.211384500 eV

  Before relying on these values, please be sure to understand exactly which
  total energy value is referred to by a given number. Different objects may
  all carry the same name 'total energy'. Definitions:

  Total energy of the DFT / Hartree-Fock s.c.f. calculation:
  | Note that this energy does not include ANY quantities calculated after the
  | s.c.f. cycle, in particular not ANY RPA, MP2, etc. many-body perturbation terms.

  Final zero-broadening corrected energy:
  | For metallic systems only, a broadening of the occupation numbers at the Fermi
  | level can be extrapolated back to zero broadening by an electron-gas inspired
  | formula. For all systems that are not real metals, this value can be
  | meaningless and should be avoided.

------------------------------------------------------------------------------
  Methods described in the following list of references were used in this FHI-aims run.
  If you publish the results, please make sure to cite these reference if they apply.
  FHI-aims is an academic code, and for our developers (often, Ph.D. students
  and postdocs), scientific credit in the community is essential.
  Thank you for helping us!

  For any use of FHI-aims, please cite:

    Volker Blum, Ralf Gehrke, Felix Hanke, Paula Havu, Ville Havu,
    Xinguo Ren, Karsten Reuter, and Matthias Scheffler
    'Ab initio molecular simulations with numeric atom-centered orbitals'
    Computer Physics Communications 180, 2175-2196 (2009)
    http://dx.doi.org/10.1016/j.cpc.2009.06.022


  For the real-space grid partitioning and parallelization used in this calculation, please cite:

    Ville Havu, Volker Blum, Paula Havu, and Matthias Scheffler,
    'Efficient O(N) integration for all-electron electronic structure calculation'
    'using numerically tabulated basis functions'
    Journal of Computational Physics 228, 8367-8379 (2009).
    http://dx.doi.org/10.1016/j.jcp.2009.08.008

  Of course, there are many other important community references, e.g., those cited in the
  above references. Our list is limited to references that describe implementations in the
  FHI-aims code. The reason is purely practical (length of this list) - please credit others as well.

------------------------------------------------------------
          Leaving FHI-aims.
          Date     :  20180214, Time     :  154143.826

          Computational steps:
          | Number of self-consistency cycles          :           16
          | Number of SCF (re)initializations          :            1

          Detailed time accounting                     :  max(cpu_time)    wall_clock(cpu1)
          | Total time                                 :       13.612 s          13.674 s
          | Preparation time                           :        0.372 s           0.381 s
          | Boundary condition initalization           :        0.000 s           0.000 s
          | Grid partitioning                          :        0.076 s           0.077 s
          | Preloading free-atom quantities on grid    :        0.024 s           0.021 s
          | Free-atom superposition energy             :        0.024 s           0.022 s
          | Total time for integrations                :        4.376 s           4.369 s
          | Total time for solution of K.-S. equations :        0.080 s           0.062 s
          | Total time for density & force components  :        4.888 s           4.875 s
          | Total time for mixing                      :        0.244 s           0.243 s
          | Total time for Hartree multipole update    :        0.284 s           0.278 s
          | Total time for Hartree multipole sum       :        3.164 s           3.149 s
          | Total time for total energy evaluation     :        0.008 s           0.014 s
          | Total time for scaled ZORA corrections     :        0.000 s           0.000 s
          | Total time for vdW correction              :        0.048 s           0.047 s

          Partial memory accounting:
          | Residual value for overall tracked memory usage across tasks :           0.000 MB (should be 0.000 MB)
          | Peak values for overall tracked memory usage (after allocating hessian_basis_wave):
          |   Minimum:        2.332 MB (on task 2)
          |   Maximum:        2.348 MB (on task 1)
          |   Average:        2.344 MB
          | Largest tracked array allocation (hessian_basis_wave):
          |   Minimum:        1.123 MB (on task 2)
          |   Maximum:        1.133 MB (on task 1)
          |   Average:        1.130 MB
          Note:  These values currently only include a subset of arrays which are explicitly tracked.
          The "true" memory usage will be greater.

          Have a nice day.
------------------------------------------------------------
