  MPI-parallelism will be employed.
------------------------------------------------------------
          Invoking FHI-aims ...

          When using FHI-aims, please cite the following reference:

          Volker Blum, Ralf Gehrke, Felix Hanke, Paula Havu,
          Ville Havu, Xinguo Ren, Karsten Reuter, and Matthias Scheffler,
          'Ab Initio Molecular Simulations with Numeric Atom-Centered Orbitals',
          Computer Physics Communications 180, 2175-2196 (2009)

          For any questions about FHI-aims, please visit the aimsclub website
          with its forums and wiki. Contributions to both the forums and the
          wiki are warmly encouraged - they are for you, and everyone is welcome there.

------------------------------------------------------------



  Date     :  20190817, Time     :  154314.282
  Time zero on CPU 1             :   0.208770000000000E-01  s.
  Internal wall clock time zero  :           335288594.282  s.

  FHI-aims created a unique identifier for this run for later identification
  aims_uuid : 50D13D0C-9A43-498B-A9CE-73BA0935E3F4

  Build configuration of the current instance of FHI-aims
  -------------------------------------------------------
  FHI-aims version      : 190813
  Commit number         : 3da7baeb3
  CMake host system     : Linux-4.4.180-94.97-default
  CMake version         : 3.5.2
  Fortran compiler      : /mpcdf/soft/SLE_12_SP3/packages/x86_64/intel_parallel_studio/2018.4/compilers_and_libraries_2018.5.274/linux/mpi/bin64/mpiifort (Intel) version 18.0.5.20180823
  Fortran compiler flags: -O3 -ip -fp-model precise
  C compiler            : /mpcdf/soft/SLE_12_SP3/packages/skylake/intel/18.0.5/bin/icc (Intel) version 18.0.5.20180823
  C compiler flags      : -O3 -ip -fp-model precise
  Architecture          :
  Using MPI
  Using Scalapack
  Using C files
  Using SPGlib
  Using i-PI
  Linking against: /mpcdf/soft/SLE_12_SP3/packages/x86_64/anaconda/3.5.1.0/lib/libmkl_intel_lp64.so
                   /mpcdf/soft/SLE_12_SP3/packages/x86_64/anaconda/3.5.1.0/lib/libmkl_sequential.so
                   /mpcdf/soft/SLE_12_SP3/packages/x86_64/anaconda/3.5.1.0/lib/libmkl_core.so
                   /mpcdf/soft/SLE_12_SP3/packages/x86_64/anaconda/3.5.1.0/lib/libmkl_blacs_intelmpi_lp64.so
                   /mpcdf/soft/SLE_12_SP3/packages/x86_64/anaconda/3.5.1.0/lib/libmkl_scalapack_lp64.so

  Using        8 parallel tasks.
  Task        0 on host co1631 reporting.
  Task        1 on host co1631 reporting.
  Task        2 on host co1631 reporting.
  Task        3 on host co1631 reporting.
  Task        4 on host co1631 reporting.
  Task        5 on host co1631 reporting.
  Task        6 on host co1631 reporting.
  Task        7 on host co1631 reporting.

  Performing system and environment tests:
  | Environment variable OMP_NUM_THREADS correctly set to 1.
  | Maximum stacksize for task 0: unlimited
  | Maximum stacksize for task 1: unlimited
  | Maximum stacksize for task 2: unlimited
  | Maximum stacksize for task 3: unlimited
  | Maximum stacksize for task 4: unlimited
  | Maximum stacksize for task 5: unlimited
  | Maximum stacksize for task 6: unlimited
  | Maximum stacksize for task 7: unlimited
  | Current stacksize for task 0: unlimited
  | Current stacksize for task 1: unlimited
  | Current stacksize for task 2: unlimited
  | Current stacksize for task 3: unlimited
  | Current stacksize for task 4: unlimited
  | Current stacksize for task 5: unlimited
  | Current stacksize for task 6: unlimited
  | Current stacksize for task 7: unlimited
  | Checking for scalapack...
  | Testing pdtran()...
  | All pdtran() tests passed.

  Obtaining array dimensions for all initial allocations:
  
  -----------------------------------------------------------------------
  Parsing control.in (first pass over file, find array dimensions only).
  The contents of control.in will be repeated verbatim below
  unless switched off by setting 'verbatim_writeout .false.' .
  in the first line of control.in .
  -----------------------------------------------------------------------
  
  xc           	pw-lda
  relativistic 	atomic_zora scalar
  
  occupation_type gaussian  0.1
  
  mixer           pulay
  	n_max_pulay               10
  	charge_mix_param          0.2
  
  sc_accuracy_rho         1e-5
  sc_accuracy_eev         1e-3
  sc_accuracy_etot        1e-6
  sc_accuracy_forces      1e-4
  sc_iter_limit		100
  #k_grid                  16  16   8
  k_grid                  8  8   8
  
  # MD_MB_init 300.0
  MD_time_step 0.01
  MD_clean_rotations .false.
  MD_schedule
    MD_segment 0.03 NVT_nose-hoover 500 10                # Thermalization
      thermodynamic_integration 0.45 0.45 QHA_force_constants.dat -0.131726015947869d5
    MD_segment 0.03 NVT_nose-hoover 500 10                # Start statistics
      thermodynamic_integration 0.45 0.55 QHA_force_constants.dat -0.131726015947869d5
    species        Al
  #     global species definitions
      nucleus             13
      mass                26.9815386
  #
      l_hartree           3
  #
      cut_pot             3.5          1.5  1.0
      basis_dep_cutoff    1e-4
  #
      radial_base         41 5.0
      radial_multiplier   1
      angular_grids       specified
        division   0.6594  110
        division   0.8170  194
        division   0.9059  302
  #      division   1.0363  434
  #      division   1.1443  590
  #      division   1.2621  770
  #      division   2.8177  974
  #      outer_grid   974
        outer_grid   302
  ################################################################################
  #
  #  Definition of "minimal" basis
  #
  ################################################################################
  #     valence basis states
      valence      3  s   2.
      valence      3  p   1.
  #     ion occupancy
      ion_occ      3  s   1.
      ion_occ      2  p   6.
  ################################################################################
  #
  #  Suggested additional basis functions. For production calculations,
  #  uncomment them one after another (the most important basis functions are
  #  listed first).
  #
  #  Constructed for dimers: 2.0 A, 2.5 A, 3.0 A, 3.75 A, 4.5 A
  #
  ################################################################################
  #  "First tier" - improvements: -199.47 meV to -10.63 meV
  #     ionic 3 d auto
       ionic 3 p auto
  #     hydro 4 f 4.7
       ionic 3 s auto
  #  "Second tier" - improvements: -5.35 meV to -1.57 meV
  #     hydro 5 g 7
  #     hydro 3 d 6
  #     hydro 2 s 11.6
  #     hydro 2 p 0.9
  #  "Third tier" - improvements: -0.63 meV to -0.20 meV
  #     hydro 5 f 7.6
  #     hydro 4 p 7.2
  #     hydro 4 s 3.7
  #     hydro 4 d 7.6
  #  "Fourth tier" - improvements: -0.17 meV to -0.08 meV
  #     hydro 4 d 13.6
  #     hydro 5 g 11.2
  #     hydro 4 d 0.9
  #     hydro 1 s 0.4
  #     hydro 4 p 0.1
  #     hydro 5 f 9.8
  #  Further basis functions that fell out of the optimization - noise level...
  #     hydro 4 p 5
  
  
  -----------------------------------------------------------------------
  Completed first pass over input file control.in .
  -----------------------------------------------------------------------
  
  
  -----------------------------------------------------------------------
  Parsing geometry.in (first pass over file, find array dimensions only).
  The contents of geometry.in will be repeated verbatim below
  unless switched off by setting 'verbatim_writeout .false.' .
  in the first line of geometry.in .
  -----------------------------------------------------------------------
  
  lattice_vector    1.993530    1.993530    0.000000
  lattice_vector    0.000000    1.993530    1.993530
  lattice_vector    3.987060    0.000000    3.987060
   atom               0.00000000        0.00000000        0.00000000  Al
     velocity          -1.34456495          4.58700561         -2.21029428
   atom               1.99353000        1.99353000        3.98706000  Al
     velocity           1.34456495         -4.58700561          2.21029428
  
  
  -----------------------------------------------------------------------
  Completed first pass over input file geometry.in .
  -----------------------------------------------------------------------
  

  Basic array size parameters:
  | Number of species                 :        1
  | Number of atoms                   :        2
  | Number of lattice vectors         :        3
  | Max. basis fn. angular momentum   :        1
  | Max. atomic/ionic basis occupied n:        3
  | Max. number of basis fn. types    :        2
  | Max. radial fns per species/type  :        5
  | Max. logarithmic grid size        :     1340
  | Max. radial integration grid size :       41
  | Max. angular integration grid size:      302
  | Max. angular grid division number :        8
  | Radial grid for Hartree potential :     1340
  | Number of spin channels           :        1

------------------------------------------------------------
          Reading file control.in.
------------------------------------------------------------
  XC: Using Perdew-Wang parametrisation of Ceperley-Alder LDA.
  Scalar relativistic treatment of kinetic energy: on-site free-atom approximation to ZORA.
  Occupation type: Gaussian broadening, width =   0.100000E+00 eV.
  Using pulay charge density mixing.
  Pulay mixing - number of memorized iterations:   10
  Charge density mixing - mixing parameter:     0.2000
  Convergence accuracy of self-consistent charge density:  0.1000E-04
  Convergence accuracy of sum of eigenvalues:  0.1000E-02
  Convergence accuracy of total energy:  0.1000E-05
  Convergence accuracy of forces:  0.1000E-03
  Maximum number of s.-c. iterations  :   100
  Found k-point grid:         8         8         8
  Molecular dynamics time step =       0.010000 ps
  Explicitly not using rotational cleaning for initial velocities.
 
  Reading configuration options for species Al                  .
  | Found nuclear charge :  13.0000
  | Found atomic mass :    26.9815386000000      amu
  | Found l_max for Hartree potential  :   3
  | Found cutoff potl. onset [A], width [A], scale factor :    3.50000    1.50000    1.00000
  | Threshold for basis-dependent cutoff potential is   0.100000E-03
  | Found data for basic radial integration grid :    41 points, outermost radius =    5.000 A
  | Found multiplier for basic radial grid :   1
  | Found angular grid specification: user-specified.
  | Specified grid contains     4 separate shells.
  | Check grid settings after all constraints further below.
  | Found free-atom valence shell :  3 s   2.000
  | Found free-atom valence shell :  3 p   1.000
  | Found free-ion valence shell :  3 s   1.000
  | Found free-ion valence shell :  2 p   6.000
  | Found ionic basis function :  3 p , default cutoff radius.
  | Found ionic basis function :  3 s , default cutoff radius.
  Species Al                  : Missing cutoff potential type.
  Defaulting to exp(1/x)/(1-x)^2 type cutoff potential.
  Species Al: No 'logarithmic' tag. Using default grid for free atom:
  | Default logarithmic grid data [bohr] : 0.1000E-03 0.1000E+03 0.1012E+01
  | Will include ionic basis functions of  2.0-fold positive Al                   ion.
  Species Al: On-site basis accuracy parameter (for Gram-Schmidt orthonormalisation) not specified.
  Using default value basis_acc =  0.1000000E-03.
  Species Al                  : Using default innermost maximum threshold i_radial=  2 for radial functions.
  Species Al                  : Default cutoff onset for free atom density etc. : 0.35000000E+01 AA.
  Species Al                  : Basic radial grid will be enhanced according to radial_multiplier =   1, to contain    41 grid points.
 
  Finished reading input file 'control.in'. Consistency checks are next.
 
  MPI_IN_PLACE appears to work with this MPI implementation.
  | Keeping use_mpi_in_place .true. (see manual).
  Target number of points in a grid batch is not set. Defaulting to  100
  Method for grid partitioning is not set. Defaulting to parallel hash+maxmin partitioning.
  Batch size limit is not set. Defaulting to    200
  By default, will store active basis functions for each batch.
  If in need of memory, prune_basis_once .false. can be used to disable this option.
  communication_type for Hartree potential was not specified.
  Defaulting to calc_hartree .
  Pulay mixer: Number of initial linear mixing iterations not set.
  Defaulting to    0 iterations.
  Work space size for distributed Hartree potential not set.
  Defaulting to   0.200000E+03 MB.
  Algorithm-dependent basis array size parameters:
  | n_max_pulay                         :       10
  Presetting      1001 iterations before the initial mixing cycle
  is restarted anyway using the sc_init_iter criterion / keyword.
  Presetting a factor      1.000 between actual scf density residual
  and density convergence criterion sc_accuracy_rho below which sc_init_iter
  takes no effect.
  Geometry relaxation not requested: no relaxation will be performed.
  Handling of forces: Unphysical translation and rotation will be removed from forces.
  No accuracy limit for integral partition fn. given. Defaulting to  0.1000E-14.
  No threshold value for u(r) in integrations given. Defaulting to  0.1000E-05.
  No accuracy for occupation numbers given. Defaulting to  0.1000E-12.
  No threshold value for occupation numbers given. Defaulting to  0.0000E+00.
  No accuracy for fermi level given. Defaulting to  0.1000E-19.
  Maximum # of iterations to find E_F not set. Defaulting to  200.
  Preferred method for the eigenvalue solver ('KS_method') not specified in 'control.in'.
  Defaulting to serial version, LAPACK (via ELSI), since more k-points than CPUs available.
  Will not use alltoall communication since running on < 1024 CPUs.
  Threshold for basis singularities not set.
  Default threshold for basis singularities:  0.1000E-04
  partition_type (choice of integration weights) for integrals was not specified.
  | Using a version of the partition function of Stratmann and coworkers ('stratmann_sparse').
  | At each grid point, the set of atoms used to build the partition table is smoothly restricted to
  | only those atoms whose free-atom density would be non-zero at that grid point.
  Partitioning for Hartree potential was not defined. Using partition_type for integrals.
  | Adjusted default value of keyword multip_moments_threshold to:       0.10000000E-11
  | This value may affect high angular momentum components of the Hartree potential in periodic systems.
  Spin handling was not defined in control.in. Defaulting to unpolarized case.
  Angular momentum expansion for Kerker preconditioner not set explicitly.
  | Using default value of   0
  No explicit requirement for turning off preconditioner.
  | By default, it will be turned off when the charge convergence reaches
  | sc_accuracy_rho  =   0.100000E-04
  | sc_accuracy_eev  =   0.100000E-02
  | sc_accuracy_etot =   0.100000E-05
  No special mixing parameter while Kerker preconditioner is on.
  Using default: charge_mix_param =     0.2000.
  No q(lm)/r^(l+1) cutoff set for long-range Hartree potential.
  | Using default value of  0.100000E-09 .
  | Verify using the multipole_threshold keyword.
  Defaulting to new monopole extrapolation.
  Density update method: automatic selection selected.
  Using density matrix based charge density update.
  Using density matrix based charge density update.
  Using packed matrix style: index .
  Defaulting to use time-reversal symmetry for k-point grid.
  Charge integration errors on the 3D integration grid will be compensated
  by explicit normalization and distribution of residual charges.
  Use the "compensate_multipole_errors" flag to change this behaviour.
------------------------------------------------------------


------------------------------------------------------------
          Reading geometry description geometry.in.
------------------------------------------------------------
  Input structure read successfully.
  The structure contains        2 atoms,  and a total of         26.000 electrons.

  Input geometry:
  | Unit cell:
  |        1.99353000        1.99353000        0.00000000
  |        0.00000000        1.99353000        1.99353000
  |        3.98706000        0.00000000        3.98706000
  | Atomic structure:
  |       Atom                x [A]            y [A]            z [A]
  |    1: Species Al            0.00000000        0.00000000        0.00000000
  |    2: Species Al            1.99353000        1.99353000        3.98706000

  Lattice parameters for 3D lattice (in Angstroms) :     2.819277    2.819277    5.638554
  Angle(s) between unit vectors (in degrees)       :    60.000000   60.000000   60.000000

  | The smallest distance between any two atoms is         2.81927716 AA.
  | The first atom of this pair is atom number                      1 .
  | The second atom of this pair is atom number                     2 .
  | Wigner-Seitz cell of the first atom image           0     0     0 .
  | (The Wigner-Seitz cell of the second atom is 0 0 0  by definition.)

  Symmetry information by spglib:
  | Precision set to  0.1E-04
  | Number of Operations  : 24
  | Space group           : 225
  | International         : Fm-3m
  | Schoenflies           : Oh^5

  Quantities derived from the lattice vectors:
  | Reciprocal lattice vector 1:  1.575894  1.575894 -1.575894
  | Reciprocal lattice vector 2: -1.575894  1.575894  1.575894
  | Reciprocal lattice vector 3:  0.787947 -0.787947  0.787947
  | Unit cell volume                               :   0.316904E+02  A^3

  Range separation radius for Ewald summation (hartree_convergence_parameter):      3.56444155 bohr.

  Fractional coordinates:
                         L1                L2                L3
       atom_frac         0.00000000        0.00000000        0.00000000  Al
       atom_frac         0.00000000        1.00000000        0.50000000  Al

  Number of empty states per atom not set in control.in - providing a guess from actual geometry.
  | Total number of empty states used during s.c.f. cycle:        6
  If you use a very high smearing, use empty_states (per atom!) in control.in to increase this value.

  Structure-dependent array size parameters: 
  | Maximum number of distinct radial functions  :        7
  | Maximum number of basis functions            :       26
  | Number of Kohn-Sham states (occupied + empty):       19
------------------------------------------------------------
------------------------------------------------------------
  Parsing the force constant files for the thermodynamic_integration

  | Pre-parsing file QHA_force_constants.dat for segment    1
  | Pre-parsing file QHA_force_constants.dat for segment    2
  ----------------------------------------------------------
  | Now parsing file QHA_force_constants.dat for segment    1
  |- Iteratively symmetrizing the force constants:
  |  | Iteration |  Max. Dev. in Permutation Symm. | Max. Dev. in Translational Symm.
  |  |         0 |        0.00000000E+00 (eV/AA^2) |        0.00000000E+00 (eV/AA^2)
  |  |         1 |        0.00000000E+00 (eV/AA^2) |        0.00000000E+00 (eV/AA^2)
  | --------------------------------------------------------
  | Equilibrium conditions read from input file:
  | Unit cell: 
  |         1.993530         1.993530         0.000000
  |         0.000000         1.993530         1.993530
  |         3.987060         0.000000         3.987060
  | Atomic structure: 
  |  Atom           x [A]            y [A]            z [A]
  |    1         0.000000         0.000000         0.000000
  |    2         1.993530         0.000000         1.993530
  | --------------------------------------------------------
  | Calculating the quasi-harmonic potential for this geometry
  | Mean value              of the elongation from equilibrium           0.140963858149882E+01 A
  | Std. dev.               of the elongation from equilibrium           0.199353000000000E+01 A
  | Potential energy        in the quasi-harmonic approximation          0.355049946894797E+01 eV
  | Mean force              in the quasi-harmonic approximation          0.251873034375439E+01 eV/A
  | Std. Dev. of the forces in the quasi-harmonic approximation          0.000000000000000E+00 eV/A
  | Force on the center of mass in the quasi-harmonic approx.            0.000000000000000E+00         0.000000000000000E+00         0.000000000000000E+00 eV/A
  ----------------------------------------------------------
  | Now parsing file QHA_force_constants.dat for segment    2
  |- Iteratively symmetrizing the force constants:
  |  | Iteration |  Max. Dev. in Permutation Symm. | Max. Dev. in Translational Symm.
  |  |         0 |        0.00000000E+00 (eV/AA^2) |        0.00000000E+00 (eV/AA^2)
  |  |         1 |        0.00000000E+00 (eV/AA^2) |        0.00000000E+00 (eV/AA^2)
  | --------------------------------------------------------
  | Equilibrium conditions read from input file:
  | Unit cell: 
  |         1.993530         1.993530         0.000000
  |         0.000000         1.993530         1.993530
  |         3.987060         0.000000         3.987060
  | Atomic structure: 
  |  Atom           x [A]            y [A]            z [A]
  |    1         0.000000         0.000000         0.000000
  |    2         1.993530         0.000000         1.993530
  | --------------------------------------------------------
  | Calculating the quasi-harmonic potential for this geometry
  | Mean value              of the elongation from equilibrium           0.140963858149882E+01 A
  | Std. dev.               of the elongation from equilibrium           0.199353000000000E+01 A
  | Potential energy        in the quasi-harmonic approximation          0.355049946894797E+01 eV
  | Mean force              in the quasi-harmonic approximation          0.251873034375439E+01 eV/A
  | Std. Dev. of the forces in the quasi-harmonic approximation          0.000000000000000E+00 eV/A
  | Force on the center of mass in the quasi-harmonic approx.            0.000000000000000E+00         0.000000000000000E+00         0.000000000000000E+00 eV/A
  | ------------------------------------------------------------
  Setting up the thermodynamic integration for MD_segment 1
  | Energy offset                 :        -0.131726015947869E+05 eV
  | Starting with the lambda value:         0.450000000000000E+00
  | Stopping   at the lambda value:         0.450000000000000E+00
  --------------------------------------------------------------

------------------------------------------------------------
          Preparing all fixed parts of the calculation.
------------------------------------------------------------
  Determining machine precision:
    2.225073858507201E-308
  Setting up grids for atomic and cluster calculations.

  Creating wave function, potential, and density for free atoms.

  Species: Al

  List of occupied orbitals and eigenvalues:
    n    l              occ      energy [Ha]    energy [eV]
    1    0           2.0000       -55.368617     -1506.6567
    2    0           2.0000        -3.933052      -107.0238
    3    0           2.0000        -0.275173        -7.4878
    2    1           6.0000        -2.544101       -69.2285
    3    1           1.0000        -0.086012        -2.3405

  Creating fixed part of basis set: Ionic, confined, hydrogenic.
 
  Al                   ion:

  List of free ionic orbitals and eigenvalues:
    n    l      energy [Ha]    energy [eV]
    1    0       -56.167517     -1528.3959
    2    0        -4.710173      -128.1703
    3    0        -0.879347       -23.9283
    2    1        -3.321561       -90.3843


  List of ionic basis orbitals and eigenvalues:
    n    l      energy [Ha]    energy [eV]    outer radius [A]
    3    1        -0.638653       -17.3786       4.538221
    3    0        -0.879312       -23.9273       4.483079


  Adding cutoff potential to free-atom effective potential.
  Creating atomic-like basis functions for current effective potential.

  Species Al                  :

  List of atomic basis orbitals and eigenvalues:
    n    l      energy [Ha]    energy [eV]    outer radius [A]
    1    0       -55.368617     -1506.6567       0.850197
    2    0        -3.933052      -107.0238       3.183593
    3    0        -0.275173        -7.4878       4.594041
    2    1        -2.544101       -69.2285       3.731966
    3    1        -0.086012        -2.3405       4.594041

  Assembling full basis from fixed parts.
  | Species Al :   atomic orbital   1 s accepted.
  | Species Al :   atomic orbital   2 s accepted.
  | Species Al :    ionic orbital   3 s accepted.
  | Species Al :   atomic orbital   3 s accepted.
  | Species Al :   atomic orbital   2 p accepted.
  | Species Al :    ionic orbital   3 p accepted.
  | Species Al :   atomic orbital   3 p accepted.
 
  Basis size parameters after reduction:
  | Total number of radial functions:        7
  | Total number of basis functions :       26
 
  Per-task memory consumption for arrays in subroutine allocate_ext:
  |           2.402256MB.
  Testing on-site integration grid accuracy.
  |  Species  Function  <phi|h_atom|phi> (log., in eV)  <phi|h_atom|phi> (rad., in eV)
           1        1              -1506.6567349563              -1506.6561595453
           1        2               -107.0238002879               -107.0237973754
           1        3                 -7.0435360886                 -7.0439988225
           1        4                  4.8527617730                  4.7697900123 ***
           1        5                -69.2285135094                -69.2285134423
           1        6                 -1.5497969167                 -1.5527571275
           1        7                  6.4027499806                  6.1501072511 ***
 * Note: Onsite integrals marked "***" above are less accurate than
 * onsite_accuracy_threshold =    0.03000 eV. Usually, this is harmless.
 * When in doubt, tighten the "radial" and/or "radial_multiplier" flags to check.

  Preparing densities etc. for the partition functions (integrals / Hartree potential).

  Preparations completed.
  max(cpu_time)          :      0.148 s.
  Wall clock time (cpu1) :      0.148 s.
------------------------------------------------------------

------------------------------------------------------------
          Begin self-consistency loop: Initialization.

          Date     :  20190817, Time     :  154314.536
------------------------------------------------------------

  Initializing index lists of integration centers etc. from given atomic structure:
  Mapping all atomic coordinates to central unit cell.

  Initializing the k-points
          Using symmetry for reducing the k-points
  | k-points reduced from:      512 to      260
  | Number of k-points                             :       260
  The eigenvectors in the calculations are COMPLEX.
  | K-points in task   0:        32
  | K-points in task   1:        33
  | K-points in task   2:        33
  | K-points in task   3:        33
  | K-points in task   4:        33
  | K-points in task   5:        32
  | K-points in task   6:        32
  | K-points in task   7:        32
  | Number of basis functions in the Hamiltonian integrals :      1119
  | Number of basis functions in a single unit cell        :        26
  | Number of centers in hartree potential         :       786
  | Number of centers in hartree multipole         :       384
  | Number of centers in electron density summation:       276
  | Number of centers in basis integrals           :       304
  | Number of centers in integrals                 :       123
  | Number of centers in hamiltonian               :       276
  | Consuming        706 KiB for k_phase.
  | Number of super-cells (origin) [n_cells]                     :        2025
  | Number of super-cells (after PM_index) [n_cells]             :         174
  | Number of super-cells in hamiltonian [n_cells_in_hamiltonian]:         174
  | Size of matrix packed + index [n_hamiltonian_matrix_size] :       29539
  | Estimated reciprocal-space cutoff momentum G_max:         2.57000655 bohr^-1 .
  | Reciprocal lattice points for long-range Hartree potential:      60
  Partitioning the integration grid into batches with parallel hashing+maxmin method.
  | Number of batches:      196
  | Maximal batch size:     157
  | Minimal batch size:      50
  | Average batch size:      77.122
  | Standard deviation of batch sizes:      21.772

  Integration load balanced across     8 MPI tasks.
  Work distribution over tasks is as follows:
  Task     0 has       1858 integration points.
  Task     1 has       1942 integration points.
  Task     2 has       1855 integration points.
  Task     3 has       1922 integration points.
  Task     4 has       1869 integration points.
  Task     5 has       1888 integration points.
  Task     6 has       1876 integration points.
  Task     7 has       1906 integration points.
  Initializing partition tables, free-atom densities, potentials, etc. across the integration grid (initialize_grid_storage).
  | initialize_grid_storage: Actual outermost partition radius vs. multipole_radius_free
  | (-- VB: in principle, multipole_radius_free should be larger, hence this output)
  | Species        1: Confinement radius =              4.999999999999999 AA, multipole_radius_free =              5.004487022111096 AA.
  | Species        1: outer_partition_radius set to              5.004487022111096 AA .
  | The sparse table of interatomic distances needs        448.10 kbyte instead of       739.33 kbyte of memory.
  | Net number of integration points:    15116
  | of which are non-zero points    :    13300
  | Numerical average free-atom electrostatic potential    :    -16.02308368 eV
  Renormalizing the initial density to the exact electron count on the 3D integration grid.
  | Initial density: Formal number of electrons (from input files) :      26.0000000000
  | Integrated number of electrons on 3D grid     :      26.0011467309
  | Charge integration error                      :       0.0011467309
  | Normalization factor for density and gradient :       0.9999558969
  Renormalizing the free-atom superposition density to the exact electron count on the 3D integration grid.
  | Formal number of electrons (from input files) :      26.0000000000
  | Integrated number of electrons on 3D grid     :      26.0011467309
  | Charge integration error                      :       0.0011467309
  | Normalization factor for density and gradient :       0.9999558969
  Obtaining max. number of non-zero basis functions in each batch (get_n_compute_maxes).
  | Maximal number of non-zero basis functions:      415 in task     0
  | Maximal number of non-zero basis functions:      406 in task     1
  | Maximal number of non-zero basis functions:      391 in task     2
  | Maximal number of non-zero basis functions:      417 in task     3
  | Maximal number of non-zero basis functions:      403 in task     4
  | Maximal number of non-zero basis functions:      391 in task     5
  | Maximal number of non-zero basis functions:      414 in task     6
  | Maximal number of non-zero basis functions:      407 in task     7
  Allocating        0.241 MB for KS_eigenvector_complex
  Integrating Hamiltonian matrix: batch-based integration.
  Time summed over all CPUs for integration: real work        0.390 s, elapsed        0.410 s
  Integrating overlap matrix.
  Time summed over all CPUs for integration: real work        0.305 s, elapsed        0.324 s
  Decreasing sparse matrix size:
   Tolerance:  9.999999824516700E-014
   Hamiltonian matrix
  | Array has    21084 nonzero elements out of    29539 elements
  | Sparsity factor is 0.286
   Overlap matrix
  | Array has    20028 nonzero elements out of    29539 elements
  | Sparsity factor is 0.322
  New size of hamiltonian matrix:       21211

  Updating Kohn-Sham eigenvalues and eigenvectors using ELSI and the (modified) LAPACK eigensolver.
  Singularity check in k-point 8, task 0 (analysis for other k-points/tasks may follow below):
  Overlap matrix is not singular
  | Lowest and highest eigenvalues :  0.3400E-03,  0.1015E+02
  Finished singularity check of overlap matrix
  | Time :     0.001 s
  Starting LAPACK eigensolver
  Finished Cholesky decomposition
  | Time :     0.000 s
  Finished transformation to standard eigenproblem
  | Time :     0.000 s
  Finished solving standard eigenproblem
  | Time :     0.000 s
  Finished back-transformation of eigenvectors
  | Time :     0.000 s

  Obtaining occupation numbers and chemical potential using ELSI.
  | Chemical potential (Fermi level):    -5.41571373 eV
  Writing Kohn-Sham eigenvalues.
  K-point:       1 at    0.000000    0.000000    0.000000 (in units of recip. lattice)

  State    Occupation    Eigenvalue [Ha]    Eigenvalue [eV]
      1       2.00000         -55.384653        -1507.09308
      2       2.00000         -55.384653        -1507.09308
      3       2.00000          -3.954996         -107.62091
      4       2.00000          -3.954857         -107.61713
      5       2.00000          -2.566645          -69.84197
      6       2.00000          -2.565756          -69.81776
      7       2.00000          -2.565756          -69.81776
      8       2.00000          -2.565594          -69.81336
      9       2.00000          -2.565594          -69.81336
     10       2.00000          -2.565594          -69.81336
     11       2.00000          -0.633630          -17.24195
     12       2.00000          -0.388771          -10.57899
     13       2.00000          -0.368651          -10.03151
     14       0.00000           0.238254            6.48321
     15       0.00000           0.238254            6.48321
     16       0.00000           0.342831            9.32891
     17       0.00000           0.342831            9.32891
     18       0.00000           0.342831            9.32891
     19       0.00000           0.588106           16.00319

  What follows are estimated values for band gap, HOMO, LUMO, etc.
  | They are estimated on a discrete k-point grid and not necessarily exact.
  | For converged numbers, create a DOS and/or band structure plot on a denser k-grid.

  Highest occupied state (VBM) at     -5.44905334 eV (relative to internal zero)
  | Occupation number:      1.36271148
  | K-point:      19 at    0.000000    0.375000    0.125000 (in units of recip. lattice)

  Lowest unoccupied state (CBM) at    -5.32320373 eV (relative to internal zero)
  | Occupation number:      0.19077534
  | K-point:     193 at    0.500000    0.250000    0.500000 (in units of recip. lattice)

  ESTIMATED overall HOMO-LUMO gap:      0.12584960 eV between HOMO at k-point 19 and LUMO at k-point 193
  | This appears to be an indirect band gap.
  | Smallest direct gap :      0.52597343 eV for k_point 223 at    0.500000    0.250000    0.500000 (in units of recip. lattice)
  However, this system has fractional occupation numbers. Since we use a finite k-point grid,
  this material is metallic within the approximate finite broadening function (occupation_type)
  applied to determine the occupation numbers.
  Calculating total energy contributions from superposition of free atom densities.

  Total energy components:
  | Sum of eigenvalues            :        -270.40458601 Ha       -7358.08316035 eV
  | XC energy correction          :         -35.47497840 Ha        -965.32327744 eV
  | XC potential correction       :          46.85450676 Ha        1274.97599902 eV
  | Free-atom electrostatic energy:        -225.25815400 Ha       -6129.58624025 eV
  | Hartree energy correction     :           0.00000000 Ha           0.00000000 eV
  | Entropy correction            :          -0.00005480 Ha          -0.00149121 eV
  | ---------------------------
  | Total energy                  :        -484.28321165 Ha      -13178.01667902 eV
  | Total energy, T -> 0          :        -484.28326645 Ha      -13178.01817023 eV  <-- do not rely on this value for anything but (periodic) metals
  | Electronic free energy        :        -484.28332125 Ha      -13178.01966145 eV

  Derived energy quantities:
  | Kinetic energy                :         485.18633090 Ha       13202.59180414 eV
  | Electrostatic energy          :        -933.99456414 Ha      -25415.28520572 eV
  | Energy correction for multipole
  | error in Hartree potential    :           0.00000000 Ha           0.00000000 eV
  | Sum of eigenvalues per atom                           :       -3679.04158017 eV
  | Total energy (T->0) per atom                          :       -6589.00908512 eV  <-- do not rely on this value for anything but (periodic) metals
  | Electronic free energy per atom                       :       -6589.00983072 eV
  Initialize hartree_potential_storage
  Max. number of atoms included in rho_multipole:            2

  End scf initialization - timings             :  max(cpu_time)    wall_clock(cpu1)
  | Time for scf. initialization               :        0.273 s           0.273 s
  | Boundary condition initialization          :        0.060 s           0.061 s
  | Integration                                :        0.094 s           0.094 s
  | Solution of K.-S. eqns.                    :        0.023 s           0.023 s
  | Grid partitioning                          :        0.016 s           0.016 s
  | Preloading free-atom quantities on grid    :        0.001 s           0.001 s
  | Free-atom superposition energy             :        0.011 s           0.011 s
  | Total energy evaluation                    :        0.000 s           0.000 s

  Partial memory accounting:
  | Current value for overall tracked memory usage:
  |   Minimum:        0.646 MB (on task 0)
  |   Maximum:        0.654 MB (on task 1)
  |   Average:        0.650 MB
  | Peak value for overall tracked memory usage:
  |   Minimum:        3.376 MB (on task 5 after allocating wave)
  |   Maximum:        3.638 MB (on task 3 after allocating wave)
  |   Average:        3.521 MB
  | Largest tracked array allocation so far:
  |   Minimum:        1.166 MB (hamiltonian_shell on task 2)
  |   Maximum:        1.327 MB (hamiltonian_shell on task 3)
  |   Average:        1.255 MB
  Note:  These values currently only include a subset of arrays which are explicitly tracked.
  The "true" memory usage will be greater.
------------------------------------------------------------

------------------------------------------------------------
          Begin self-consistency iteration #    1

  Date     :  20190817, Time     :  154314.810
------------------------------------------------------------
  Evaluating new KS density using the density matrix
  Evaluating density matrix
  Time summed over all CPUs for getting density from density matrix: real work        0.352 s, elapsed        0.377 s
  Integration grid: deviation in total charge (<rho> - N_e) =  -7.815970E-14
  Pulay mixing of updated and previous charge densities.
  Renormalizing the density to the exact electron count on the 3D integration grid.
  | Formal number of electrons (from input files) :      26.0000000000
  | Integrated number of electrons on 3D grid     :      26.0002172287
  | Charge integration error                      :       0.0002172287
  | Normalization factor for density and gradient :       0.9999916451

  Evaluating partitioned Hartree potential by multipole expansion.
  | Original multipole sum: apparent total charge =  -0.271872E-13
  | Sum of charges compensated after spline to logarithmic grids =  -0.563114E-07
  | Analytical far-field extrapolation by fixed multipoles:
  | Hartree multipole sum: apparent total charge =   0.000000E+00
  Summing up the Hartree potential.
  Time summed over all CPUs for potential: real work        0.463 s, elapsed        0.482 s
  | RMS charge density error from multipole expansion :   0.125655E-02
  | Average real-space part of the electrostatic potential :     -0.06308768 eV

  Integrating Hamiltonian matrix: batch-based integration.
  Time summed over all CPUs for integration: real work        0.394 s, elapsed        0.421 s

  Updating Kohn-Sham eigenvalues and eigenvectors using ELSI and the (modified) LAPACK eigensolver.
  Starting LAPACK eigensolver
  Finished Cholesky decomposition
  | Time :     0.001 s
  Finished transformation to standard eigenproblem
  | Time :     0.000 s
  Finished solving standard eigenproblem
  | Time :     0.000 s
  Finished back-transformation of eigenvectors
  | Time :     0.000 s

  Obtaining occupation numbers and chemical potential using ELSI.
  | Chemical potential (Fermi level):    -5.42368192 eV
  Writing Kohn-Sham eigenvalues.
  K-point:       1 at    0.000000    0.000000    0.000000 (in units of recip. lattice)

  State    Occupation    Eigenvalue [Ha]    Eigenvalue [eV]
      1       2.00000         -55.391701        -1507.28486
      2       2.00000         -55.391701        -1507.28486
      3       2.00000          -3.960842         -107.78001
      4       2.00000          -3.960705         -107.77626
      5       2.00000          -2.572457          -70.00013
      6       2.00000          -2.571571          -69.97601
      7       2.00000          -2.571571          -69.97601
      8       2.00000          -2.571416          -69.97178
      9       2.00000          -2.571411          -69.97165
     10       2.00000          -2.571411          -69.97165
     11       2.00000          -0.633921          -17.24987
     12       2.00000          -0.388924          -10.58315
     13       2.00000          -0.369128          -10.04449
     14       0.00000           0.237153            6.45325
     15       0.00000           0.237153            6.45325
     16       0.00000           0.341613            9.29577
     17       0.00000           0.341613            9.29577
     18       0.00000           0.341625            9.29608
     19       0.00000           0.586796           15.96754

  What follows are estimated values for band gap, HOMO, LUMO, etc.
  | They are estimated on a discrete k-point grid and not necessarily exact.
  | For converged numbers, create a DOS and/or band structure plot on a denser k-grid.

  Highest occupied state (VBM) at     -5.45826369 eV (relative to internal zero)
  | Occupation number:      1.37520089
  | K-point:     223 at    0.625000    0.625000    0.375000 (in units of recip. lattice)

  Lowest unoccupied state (CBM) at    -5.31763164 eV (relative to internal zero)
  | Occupation number:      0.13367207
  | K-point:     110 at    0.250000    0.500000    0.500000 (in units of recip. lattice)

  ESTIMATED overall HOMO-LUMO gap:      0.14063205 eV between HOMO at k-point 223 and LUMO at k-point 110
  | This appears to be an indirect band gap.
  | Smallest direct gap :      0.52016148 eV for k_point 214 at    0.250000    0.500000    0.500000 (in units of recip. lattice)
  However, this system has fractional occupation numbers. Since we use a finite k-point grid,
  this material is metallic within the approximate finite broadening function (occupation_type)
  applied to determine the occupation numbers.

  Total energy components:
  | Sum of eigenvalues            :        -270.52779609 Ha       -7361.43587721 eV
  | XC energy correction          :         -35.46520147 Ha        -965.05723362 eV
  | XC potential correction       :          46.84158230 Ha        1274.62430649 eV
  | Free-atom electrostatic energy:        -225.25815400 Ha       -6129.58624025 eV
  | Hartree energy correction     :           0.12700152 Ha           3.45588727 eV
  | Entropy correction            :          -0.00005396 Ha          -0.00146828 eV
  | ---------------------------
  | Total energy                  :        -484.28256774 Ha      -13177.99915733 eV
  | Total energy, T -> 0          :        -484.28262169 Ha      -13178.00062561 eV  <-- do not rely on this value for anything but (periodic) metals
  | Electronic free energy        :        -484.28267565 Ha      -13178.00209389 eV

  Derived energy quantities:
  | Kinetic energy                :         485.05496295 Ha       13199.01710042 eV
  | Electrostatic energy          :        -933.87232921 Ha      -25411.95902413 eV
  | Energy correction for multipole
  | error in Hartree potential    :           0.00009275 Ha           0.00252388 eV
  | Sum of eigenvalues per atom                           :       -3680.71793860 eV
  | Total energy (T->0) per atom                          :       -6589.00031280 eV  <-- do not rely on this value for anything but (periodic) metals
  | Electronic free energy per atom                       :       -6589.00104695 eV

  Self-consistency convergence accuracy:
  | Change of charge density      :  0.5984E-01
  | Change of sum of eigenvalues  : -0.3353E+01 eV
  | Change of total energy        :  0.1752E-01 eV

  End self-consistency iteration #     1       :  max(cpu_time)    wall_clock(cpu1)
  | Time for this iteration                    :        0.200 s           0.200 s
  | Charge density update                      :        0.051 s           0.051 s
  | Density mixing & preconditioning           :        0.015 s           0.014 s
  | Hartree multipole update                   :        0.001 s           0.001 s
  | Hartree multipole summation                :        0.061 s           0.061 s
  | Integration                                :        0.053 s           0.053 s
  | Solution of K.-S. eqns.                    :        0.019 s           0.019 s
  | Total energy evaluation                    :        0.000 s           0.000 s

  Partial memory accounting:
  | Current value for overall tracked memory usage:
  |   Minimum:        0.646 MB (on task 0)
  |   Maximum:        0.654 MB (on task 1)
  |   Average:        0.650 MB
  | Peak value for overall tracked memory usage:
  |   Minimum:        3.376 MB (on task 5 after allocating wave)
  |   Maximum:        3.638 MB (on task 3 after allocating wave)
  |   Average:        3.521 MB
  | Largest tracked array allocation so far:
  |   Minimum:        1.166 MB (hamiltonian_shell on task 2)
  |   Maximum:        1.327 MB (hamiltonian_shell on task 3)
  |   Average:        1.255 MB
  Note:  These values currently only include a subset of arrays which are explicitly tracked.
  The "true" memory usage will be greater.
------------------------------------------------------------

------------------------------------------------------------
          Begin self-consistency iteration #    2

  Date     :  20190817, Time     :  154315.010
------------------------------------------------------------
  Evaluating new KS density using the density matrix
  Evaluating density matrix
  Time summed over all CPUs for getting density from density matrix: real work        0.351 s, elapsed        0.383 s
  Integration grid: deviation in total charge (<rho> - N_e) =   7.105427E-15
  Pulay mixing of updated and previous charge densities.
  Renormalizing the density to the exact electron count on the 3D integration grid.
  | Formal number of electrons (from input files) :      26.0000000000
  | Integrated number of electrons on 3D grid     :      26.0011104786
  | Charge integration error                      :       0.0011104786
  | Normalization factor for density and gradient :       0.9999572911

  Evaluating partitioned Hartree potential by multipole expansion.
  | Original multipole sum: apparent total charge =  -0.342003E-13
  | Sum of charges compensated after spline to logarithmic grids =  -0.471383E-06
  | Analytical far-field extrapolation by fixed multipoles:
  | Hartree multipole sum: apparent total charge =   0.000000E+00
  Summing up the Hartree potential.
  Time summed over all CPUs for potential: real work        0.486 s, elapsed        0.505 s
  | RMS charge density error from multipole expansion :   0.685969E-02
  | Average real-space part of the electrostatic potential :     -0.34983890 eV

  Integrating Hamiltonian matrix: batch-based integration.
  Time summed over all CPUs for integration: real work        0.392 s, elapsed        0.421 s

  Updating Kohn-Sham eigenvalues and eigenvectors using ELSI and the (modified) LAPACK eigensolver.
  Starting LAPACK eigensolver
  Finished Cholesky decomposition
  | Time :     0.000 s
  Finished transformation to standard eigenproblem
  | Time :     0.000 s
  Finished solving standard eigenproblem
  | Time :     0.001 s
  Finished back-transformation of eigenvectors
  | Time :     0.000 s

  Obtaining occupation numbers and chemical potential using ELSI.
  | Chemical potential (Fermi level):    -5.45877731 eV
  What follows are estimated values for band gap, HOMO, LUMO, etc.
  | They are estimated on a discrete k-point grid and not necessarily exact.
  | For converged numbers, create a DOS and/or band structure plot on a denser k-grid.

  Highest occupied state (VBM) at     -5.49630981 eV (relative to internal zero)
  | Occupation number:      1.40443556
  | K-point:      19 at    0.000000    0.375000    0.125000 (in units of recip. lattice)

  Lowest unoccupied state (CBM) at    -5.33311621 eV (relative to internal zero)
  | Occupation number:      0.07554911
  | K-point:     101 at    0.250000    0.375000    0.000000 (in units of recip. lattice)

  ESTIMATED overall HOMO-LUMO gap:      0.16319360 eV between HOMO at k-point 19 and LUMO at k-point 101
  | This appears to be an indirect band gap.
  | Smallest direct gap :      0.49457174 eV for k_point 19 at    0.250000    0.375000    0.000000 (in units of recip. lattice)
  However, this system has fractional occupation numbers. Since we use a finite k-point grid,
  this material is metallic within the approximate finite broadening function (occupation_type)
  applied to determine the occupation numbers.

  Checking to see if s.c.f. parameters should be adjusted.

  Total energy components:
  | Sum of eigenvalues            :        -271.06904721 Ha       -7376.16406981 eV
  | XC energy correction          :         -35.42527523 Ha        -963.97078540 eV
  | XC potential correction       :          46.78881257 Ha        1273.18836921 eV
  | Free-atom electrostatic energy:        -225.25815400 Ha       -6129.58624025 eV
  | Hartree energy correction     :           0.68268770 Ha          18.57687748 eV
  | Entropy correction            :          -0.00005219 Ha          -0.00142012 eV
  | ---------------------------
  | Total energy                  :        -484.28097618 Ha      -13177.95584877 eV
  | Total energy, T -> 0          :        -484.28102836 Ha      -13177.95726889 eV  <-- do not rely on this value for anything but (periodic) metals
  | Electronic free energy        :        -484.28108055 Ha      -13177.95868901 eV

  Derived energy quantities:
  | Kinetic energy                :         484.51605851 Ha       13184.35276452 eV
  | Electrostatic energy          :        -933.37175945 Ha      -25398.33782790 eV
  | Energy correction for multipole
  | error in Hartree potential    :           0.00055023 Ha           0.01497249 eV
  | Sum of eigenvalues per atom                           :       -3688.08203491 eV
  | Total energy (T->0) per atom                          :       -6588.97863444 eV  <-- do not rely on this value for anything but (periodic) metals
  | Electronic free energy per atom                       :       -6588.97934450 eV

  Self-consistency convergence accuracy:
  | Change of charge density      :  0.4951E-01
  | Change of sum of eigenvalues  : -0.1473E+02 eV
  | Change of total energy        :  0.4331E-01 eV

  End self-consistency iteration #     2       :  max(cpu_time)    wall_clock(cpu1)
  | Time for this iteration                    :        0.202 s           0.202 s
  | Charge density update                      :        0.051 s           0.051 s
  | Density mixing & preconditioning           :        0.015 s           0.015 s
  | Hartree multipole update                   :        0.000 s           0.000 s
  | Hartree multipole summation                :        0.064 s           0.064 s
  | Integration                                :        0.053 s           0.053 s
  | Solution of K.-S. eqns.                    :        0.019 s           0.019 s
  | Total energy evaluation                    :        0.000 s           0.000 s

  Partial memory accounting:
  | Current value for overall tracked memory usage:
  |   Minimum:        0.647 MB (on task 0)
  |   Maximum:        0.654 MB (on task 1)
  |   Average:        0.651 MB
  | Peak value for overall tracked memory usage:
  |   Minimum:        3.376 MB (on task 5 after allocating wave)
  |   Maximum:        3.638 MB (on task 3 after allocating wave)
  |   Average:        3.521 MB
  | Largest tracked array allocation so far:
  |   Minimum:        1.166 MB (hamiltonian_shell on task 2)
  |   Maximum:        1.327 MB (hamiltonian_shell on task 3)
  |   Average:        1.255 MB
  Note:  These values currently only include a subset of arrays which are explicitly tracked.
  The "true" memory usage will be greater.
------------------------------------------------------------

------------------------------------------------------------
          Begin self-consistency iteration #    3

  Date     :  20190817, Time     :  154315.213
------------------------------------------------------------
  Evaluating new KS density using the density matrix
  Evaluating density matrix
  Time summed over all CPUs for getting density from density matrix: real work        0.349 s, elapsed        0.376 s
  Integration grid: deviation in total charge (<rho> - N_e) =   7.815970E-14
  Pulay mixing of updated and previous charge densities.
  Renormalizing the density to the exact electron count on the 3D integration grid.
  | Formal number of electrons (from input files) :      26.0000000000
  | Integrated number of electrons on 3D grid     :      26.0008329498
  | Charge integration error                      :       0.0008329498
  | Normalization factor for density and gradient :       0.9999679645

  Evaluating partitioned Hartree potential by multipole expansion.
  | Original multipole sum: apparent total charge =  -0.258756E-13
  | Sum of charges compensated after spline to logarithmic grids =  -0.130527E-05
  | Analytical far-field extrapolation by fixed multipoles:
  | Hartree multipole sum: apparent total charge =   0.000000E+00
  Summing up the Hartree potential.
  Time summed over all CPUs for potential: real work        0.466 s, elapsed        0.484 s
  | RMS charge density error from multipole expansion :   0.731196E-02
  | Average real-space part of the electrostatic potential :     -0.40200898 eV

  Integrating Hamiltonian matrix: batch-based integration.
  Time summed over all CPUs for integration: real work        0.388 s, elapsed        0.414 s

  Updating Kohn-Sham eigenvalues and eigenvectors using ELSI and the (modified) LAPACK eigensolver.
  Starting LAPACK eigensolver
  Finished Cholesky decomposition
  | Time :     0.000 s
  Finished transformation to standard eigenproblem
  | Time :     0.000 s
  Finished solving standard eigenproblem
  | Time :     0.000 s
  Finished back-transformation of eigenvectors
  | Time :     0.000 s

  Obtaining occupation numbers and chemical potential using ELSI.
  | Chemical potential (Fermi level):    -5.46322657 eV
  What follows are estimated values for band gap, HOMO, LUMO, etc.
  | They are estimated on a discrete k-point grid and not necessarily exact.
  | For converged numbers, create a DOS and/or band structure plot on a denser k-grid.

  Highest occupied state (VBM) at     -5.50130741 eV (relative to internal zero)
  | Occupation number:      1.40979872
  | K-point:      19 at    0.000000    0.375000    0.125000 (in units of recip. lattice)

  Lowest unoccupied state (CBM) at    -5.33777661 eV (relative to internal zero)
  | Occupation number:      0.07604159
  | K-point:     199 at    0.500000    0.375000    0.500000 (in units of recip. lattice)

  ESTIMATED overall HOMO-LUMO gap:      0.16353080 eV between HOMO at k-point 19 and LUMO at k-point 199
  | This appears to be an indirect band gap.
  | Smallest direct gap :      0.49062848 eV for k_point 19 at    0.500000    0.375000    0.500000 (in units of recip. lattice)
  However, this system has fractional occupation numbers. Since we use a finite k-point grid,
  this material is metallic within the approximate finite broadening function (occupation_type)
  applied to determine the occupation numbers.

  Total energy components:
  | Sum of eigenvalues            :        -271.08952869 Ha       -7376.72139919 eV
  | XC energy correction          :         -35.43080089 Ha        -964.12114612 eV
  | XC potential correction       :          46.79620067 Ha        1273.38940959 eV
  | Free-atom electrostatic energy:        -225.25815400 Ha       -6129.58624025 eV
  | Hartree energy correction     :           0.70138587 Ha          19.08568071 eV
  | Entropy correction            :          -0.00005218 Ha          -0.00141984 eV
  | ---------------------------
  | Total energy                  :        -484.28089704 Ha      -13177.95369526 eV
  | Total energy, T -> 0          :        -484.28094921 Ha      -13177.95511510 eV  <-- do not rely on this value for anything but (periodic) metals
  | Electronic free energy        :        -484.28100139 Ha      -13177.95653495 eV

  Derived energy quantities:
  | Kinetic energy                :         484.68629836 Ha       13188.98522666 eV
  | Electrostatic energy          :        -933.53639451 Ha      -25402.81777580 eV
  | Energy correction for multipole
  | error in Hartree potential    :           0.00063473 Ha           0.01727199 eV
  | Sum of eigenvalues per atom                           :       -3688.36069960 eV
  | Total energy (T->0) per atom                          :       -6588.97755755 eV  <-- do not rely on this value for anything but (periodic) metals
  | Electronic free energy per atom                       :       -6588.97826747 eV

  Self-consistency convergence accuracy:
  | Change of charge density      :  0.1243E-01
  | Change of sum of eigenvalues  : -0.5573E+00 eV
  | Change of total energy        :  0.2154E-02 eV

  End self-consistency iteration #     3       :  max(cpu_time)    wall_clock(cpu1)
  | Time for this iteration                    :        0.197 s           0.197 s
  | Charge density update                      :        0.051 s           0.050 s
  | Density mixing & preconditioning           :        0.013 s           0.014 s
  | Hartree multipole update                   :        0.001 s           0.000 s
  | Hartree multipole summation                :        0.061 s           0.061 s
  | Integration                                :        0.052 s           0.053 s
  | Solution of K.-S. eqns.                    :        0.018 s           0.018 s
  | Total energy evaluation                    :        0.000 s           0.000 s

  Partial memory accounting:
  | Current value for overall tracked memory usage:
  |   Minimum:        0.647 MB (on task 0)
  |   Maximum:        0.654 MB (on task 1)
  |   Average:        0.651 MB
  | Peak value for overall tracked memory usage:
  |   Minimum:        3.376 MB (on task 5 after allocating wave)
  |   Maximum:        3.638 MB (on task 3 after allocating wave)
  |   Average:        3.521 MB
  | Largest tracked array allocation so far:
  |   Minimum:        1.166 MB (hamiltonian_shell on task 2)
  |   Maximum:        1.327 MB (hamiltonian_shell on task 3)
  |   Average:        1.255 MB
  Note:  These values currently only include a subset of arrays which are explicitly tracked.
  The "true" memory usage will be greater.
------------------------------------------------------------

------------------------------------------------------------
          Begin self-consistency iteration #    4

  Date     :  20190817, Time     :  154315.410
------------------------------------------------------------
  Evaluating new KS density using the density matrix
  Evaluating density matrix
  Time summed over all CPUs for getting density from density matrix: real work        0.345 s, elapsed        0.373 s
  Integration grid: deviation in total charge (<rho> - N_e) =  -3.552714E-15
  Pulay mixing of updated and previous charge densities.
  Renormalizing the density to the exact electron count on the 3D integration grid.
  | Formal number of electrons (from input files) :      26.0000000000
  | Integrated number of electrons on 3D grid     :      26.0001201326
  | Charge integration error                      :       0.0001201326
  | Normalization factor for density and gradient :       0.9999953795

  Evaluating partitioned Hartree potential by multipole expansion.
  | Original multipole sum: apparent total charge =  -0.694636E-13
  | Sum of charges compensated after spline to logarithmic grids =  -0.134761E-05
  | Analytical far-field extrapolation by fixed multipoles:
  | Hartree multipole sum: apparent total charge =   0.000000E+00
  Summing up the Hartree potential.
  Time summed over all CPUs for potential: real work        0.472 s, elapsed        0.492 s
  | RMS charge density error from multipole expansion :   0.731522E-02
  | Average real-space part of the electrostatic potential :     -0.40392684 eV

  Integrating Hamiltonian matrix: batch-based integration.
  Time summed over all CPUs for integration: real work        0.391 s, elapsed        0.417 s

  Updating Kohn-Sham eigenvalues and eigenvectors using ELSI and the (modified) LAPACK eigensolver.
  Starting LAPACK eigensolver
  Finished Cholesky decomposition
  | Time :     0.000 s
  Finished transformation to standard eigenproblem
  | Time :     0.000 s
  Finished solving standard eigenproblem
  | Time :     0.000 s
  Finished back-transformation of eigenvectors
  | Time :     0.000 s

  Obtaining occupation numbers and chemical potential using ELSI.
  | Chemical potential (Fermi level):    -5.46345564 eV
  What follows are estimated values for band gap, HOMO, LUMO, etc.
  | They are estimated on a discrete k-point grid and not necessarily exact.
  | For converged numbers, create a DOS and/or band structure plot on a denser k-grid.

  Highest occupied state (VBM) at     -5.50154015 eV (relative to internal zero)
  | Occupation number:      1.40983455
  | K-point:     223 at    0.625000    0.625000    0.375000 (in units of recip. lattice)

  Lowest unoccupied state (CBM) at    -5.33802017 eV (relative to internal zero)
  | Occupation number:      0.07607548
  | K-point:     128 at    0.250000    0.875000    0.500000 (in units of recip. lattice)

  ESTIMATED overall HOMO-LUMO gap:      0.16351998 eV between HOMO at k-point 223 and LUMO at k-point 128
  | This appears to be an indirect band gap.
  | Smallest direct gap :      0.49041191 eV for k_point 223 at    0.250000    0.875000    0.500000 (in units of recip. lattice)
  However, this system has fractional occupation numbers. Since we use a finite k-point grid,
  this material is metallic within the approximate finite broadening function (occupation_type)
  applied to determine the occupation numbers.

  Total energy components:
  | Sum of eigenvalues            :        -271.09302512 Ha       -7376.81654191 eV
  | XC energy correction          :         -35.43065776 Ha        -964.11725132 eV
  | XC potential correction       :          46.79601294 Ha        1273.38430120 eV
  | Free-atom electrostatic energy:        -225.25815400 Ha       -6129.58624025 eV
  | Hartree energy correction     :           0.70492802 Ha          19.18206726 eV
  | Entropy correction            :          -0.00005220 Ha          -0.00142041 eV
  | ---------------------------
  | Total energy                  :        -484.28089593 Ha      -13177.95366502 eV
  | Total energy, T -> 0          :        -484.28094812 Ha      -13177.95508543 eV  <-- do not rely on this value for anything but (periodic) metals
  | Electronic free energy        :        -484.28100032 Ha      -13177.95650585 eV

  Derived energy quantities:
  | Kinetic energy                :         484.68856736 Ha       13189.04696916 eV
  | Electrostatic energy          :        -933.53880553 Ha      -25402.88338285 eV
  | Energy correction for multipole
  | error in Hartree potential    :           0.00063998 Ha           0.01741482 eV
  | Sum of eigenvalues per atom                           :       -3688.40827095 eV
  | Total energy (T->0) per atom                          :       -6588.97754272 eV  <-- do not rely on this value for anything but (periodic) metals
  | Electronic free energy per atom                       :       -6588.97825292 eV

  Self-consistency convergence accuracy:
  | Change of charge density      :  0.9200E-03
  | Change of sum of eigenvalues  : -0.9514E-01 eV
  | Change of total energy        :  0.3024E-04 eV

  End self-consistency iteration #     4       :  max(cpu_time)    wall_clock(cpu1)
  | Time for this iteration                    :        0.198 s           0.198 s
  | Charge density update                      :        0.050 s           0.050 s
  | Density mixing & preconditioning           :        0.013 s           0.013 s
  | Hartree multipole update                   :        0.001 s           0.001 s
  | Hartree multipole summation                :        0.062 s           0.062 s
  | Integration                                :        0.053 s           0.053 s
  | Solution of K.-S. eqns.                    :        0.018 s           0.018 s
  | Total energy evaluation                    :        0.000 s           0.000 s

  Partial memory accounting:
  | Current value for overall tracked memory usage:
  |   Minimum:        0.647 MB (on task 0)
  |   Maximum:        0.654 MB (on task 1)
  |   Average:        0.651 MB
  | Peak value for overall tracked memory usage:
  |   Minimum:        3.376 MB (on task 5 after allocating wave)
  |   Maximum:        3.638 MB (on task 3 after allocating wave)
  |   Average:        3.521 MB
  | Largest tracked array allocation so far:
  |   Minimum:        1.166 MB (hamiltonian_shell on task 2)
  |   Maximum:        1.327 MB (hamiltonian_shell on task 3)
  |   Average:        1.255 MB
  Note:  These values currently only include a subset of arrays which are explicitly tracked.
  The "true" memory usage will be greater.
------------------------------------------------------------

------------------------------------------------------------
          Begin self-consistency iteration #    5

  Date     :  20190817, Time     :  154315.608
------------------------------------------------------------
  Evaluating new KS density using the density matrix
  Evaluating density matrix
  Time summed over all CPUs for getting density from density matrix: real work        0.350 s, elapsed        0.377 s
  Integration grid: deviation in total charge (<rho> - N_e) =  -2.131628E-14
  Pulay mixing of updated and previous charge densities.
  Renormalizing the density to the exact electron count on the 3D integration grid.
  | Formal number of electrons (from input files) :      26.0000000000
  | Integrated number of electrons on 3D grid     :      26.0002185348
  | Charge integration error                      :       0.0002185348
  | Normalization factor for density and gradient :       0.9999915949

  Evaluating partitioned Hartree potential by multipole expansion.
  | Original multipole sum: apparent total charge =  -0.243655E-13
  | Sum of charges compensated after spline to logarithmic grids =  -0.140345E-05
  | Analytical far-field extrapolation by fixed multipoles:
  | Hartree multipole sum: apparent total charge =   0.000000E+00
  Summing up the Hartree potential.
  Time summed over all CPUs for potential: real work        0.535 s, elapsed        0.555 s
  | RMS charge density error from multipole expansion :   0.730370E-02
  | Average real-space part of the electrostatic potential :     -0.40593812 eV

  Integrating Hamiltonian matrix: batch-based integration.
  Time summed over all CPUs for integration: real work        0.393 s, elapsed        0.419 s

  Updating Kohn-Sham eigenvalues and eigenvectors using ELSI and the (modified) LAPACK eigensolver.
  Starting LAPACK eigensolver
  Finished Cholesky decomposition
  | Time :     0.000 s
  Finished transformation to standard eigenproblem
  | Time :     0.000 s
  Finished solving standard eigenproblem
  | Time :     0.001 s
  Finished back-transformation of eigenvectors
  | Time :     0.000 s

  Obtaining occupation numbers and chemical potential using ELSI.
  | Chemical potential (Fermi level):    -5.46376427 eV
  What follows are estimated values for band gap, HOMO, LUMO, etc.
  | They are estimated on a discrete k-point grid and not necessarily exact.
  | For converged numbers, create a DOS and/or band structure plot on a denser k-grid.

  Highest occupied state (VBM) at     -5.50185340 eV (relative to internal zero)
  | Occupation number:      1.40987967
  | K-point:      19 at    0.000000    0.375000    0.125000 (in units of recip. lattice)

  Lowest unoccupied state (CBM) at    -5.33836858 eV (relative to internal zero)
  | Occupation number:      0.07616859
  | K-point:     128 at    0.250000    0.875000    0.500000 (in units of recip. lattice)

  ESTIMATED overall HOMO-LUMO gap:      0.16348482 eV between HOMO at k-point 19 and LUMO at k-point 128
  | This appears to be an indirect band gap.
  | Smallest direct gap :      0.49014344 eV for k_point 19 at    0.250000    0.875000    0.500000 (in units of recip. lattice)
  However, this system has fractional occupation numbers. Since we use a finite k-point grid,
  this material is metallic within the approximate finite broadening function (occupation_type)
  applied to determine the occupation numbers.

  Total energy components:
  | Sum of eigenvalues            :        -271.09890522 Ha       -7376.97654733 eV
  | XC energy correction          :         -35.43025268 Ha        -964.10622874 eV
  | XC potential correction       :          46.79547804 Ha        1273.36974578 eV
  | Free-atom electrostatic energy:        -225.25815400 Ha       -6129.58624025 eV
  | Hartree energy correction     :           0.71093909 Ha          19.34563688 eV
  | Entropy correction            :          -0.00005223 Ha          -0.00142128 eV
  | ---------------------------
  | Total energy                  :        -484.28089477 Ha      -13177.95363366 eV
  | Total energy, T -> 0          :        -484.28094700 Ha      -13177.95505495 eV  <-- do not rely on this value for anything but (periodic) metals
  | Electronic free energy        :        -484.28099924 Ha      -13177.95647623 eV

  Derived energy quantities:
  | Kinetic energy                :         484.68920620 Ha       13189.06435296 eV
  | Electrostatic energy          :        -933.53984829 Ha      -25402.91175788 eV
  | Energy correction for multipole
  | error in Hartree potential    :           0.00064733 Ha           0.01761472 eV
  | Sum of eigenvalues per atom                           :       -3688.48827367 eV
  | Total energy (T->0) per atom                          :       -6588.97752747 eV  <-- do not rely on this value for anything but (periodic) metals
  | Electronic free energy per atom                       :       -6588.97823811 eV

  Self-consistency convergence accuracy:
  | Change of charge density      :  0.6320E-03
  | Change of sum of eigenvalues  : -0.1600E+00 eV
  | Change of total energy        :  0.3136E-04 eV

  End self-consistency iteration #     5       :  max(cpu_time)    wall_clock(cpu1)
  | Time for this iteration                    :        0.207 s           0.207 s
  | Charge density update                      :        0.051 s           0.051 s
  | Density mixing & preconditioning           :        0.014 s           0.013 s
  | Hartree multipole update                   :        0.001 s           0.001 s
  | Hartree multipole summation                :        0.070 s           0.070 s
  | Integration                                :        0.053 s           0.053 s
  | Solution of K.-S. eqns.                    :        0.019 s           0.019 s
  | Total energy evaluation                    :        0.000 s           0.000 s

  Partial memory accounting:
  | Current value for overall tracked memory usage:
  |   Minimum:        0.647 MB (on task 0)
  |   Maximum:        0.654 MB (on task 1)
  |   Average:        0.651 MB
  | Peak value for overall tracked memory usage:
  |   Minimum:        3.376 MB (on task 5 after allocating wave)
  |   Maximum:        3.638 MB (on task 3 after allocating wave)
  |   Average:        3.521 MB
  | Largest tracked array allocation so far:
  |   Minimum:        1.166 MB (hamiltonian_shell on task 2)
  |   Maximum:        1.327 MB (hamiltonian_shell on task 3)
  |   Average:        1.255 MB
  Note:  These values currently only include a subset of arrays which are explicitly tracked.
  The "true" memory usage will be greater.
------------------------------------------------------------

------------------------------------------------------------
          Begin self-consistency iteration #    6

  Date     :  20190817, Time     :  154315.816
------------------------------------------------------------
  Evaluating new KS density using the density matrix
  Evaluating density matrix
  Time summed over all CPUs for getting density from density matrix: real work        0.348 s, elapsed        0.376 s
  Integration grid: deviation in total charge (<rho> - N_e) =  -4.263256E-14
  Pulay mixing of updated and previous charge densities.
  Renormalizing the density to the exact electron count on the 3D integration grid.
  | Formal number of electrons (from input files) :      26.0000000000
  | Integrated number of electrons on 3D grid     :      26.0000012267
  | Charge integration error                      :       0.0000012267
  | Normalization factor for density and gradient :       0.9999999528

  Evaluating partitioned Hartree potential by multipole expansion.
  | Original multipole sum: apparent total charge =  -0.447759E-13
  | Sum of charges compensated after spline to logarithmic grids =  -0.138878E-05
  | Analytical far-field extrapolation by fixed multipoles:
  | Hartree multipole sum: apparent total charge =   0.000000E+00
  Summing up the Hartree potential.
  Time summed over all CPUs for potential: real work        0.522 s, elapsed        0.540 s
  | RMS charge density error from multipole expansion :   0.731109E-02
  | Average real-space part of the electrostatic potential :     -0.40600690 eV

  Integrating Hamiltonian matrix: batch-based integration.
  Time summed over all CPUs for integration: real work        0.391 s, elapsed        0.417 s

  Updating Kohn-Sham eigenvalues and eigenvectors using ELSI and the (modified) LAPACK eigensolver.
  Starting LAPACK eigensolver
  Finished Cholesky decomposition
  | Time :     0.000 s
  Finished transformation to standard eigenproblem
  | Time :     0.000 s
  Finished solving standard eigenproblem
  | Time :     0.000 s
  Finished back-transformation of eigenvectors
  | Time :     0.000 s

  Obtaining occupation numbers and chemical potential using ELSI.
  | Chemical potential (Fermi level):    -5.46379640 eV
  What follows are estimated values for band gap, HOMO, LUMO, etc.
  | They are estimated on a discrete k-point grid and not necessarily exact.
  | For converged numbers, create a DOS and/or band structure plot on a denser k-grid.

  Highest occupied state (VBM) at     -5.50191150 eV (relative to internal zero)
  | Occupation number:      1.41013308
  | K-point:     214 at    0.625000    0.000000    0.875000 (in units of recip. lattice)

  Lowest unoccupied state (CBM) at    -5.33838269 eV (relative to internal zero)
  | Occupation number:      0.07612640
  | K-point:     128 at    0.250000    0.875000    0.500000 (in units of recip. lattice)

  ESTIMATED overall HOMO-LUMO gap:      0.16352881 eV between HOMO at k-point 214 and LUMO at k-point 128
  | This appears to be an indirect band gap.
  | Smallest direct gap :      0.49019447 eV for k_point 214 at    0.250000    0.875000    0.500000 (in units of recip. lattice)
  However, this system has fractional occupation numbers. Since we use a finite k-point grid,
  this material is metallic within the approximate finite broadening function (occupation_type)
  applied to determine the occupation numbers.

  Total energy components:
  | Sum of eigenvalues            :        -271.09905321 Ha       -7376.98057450 eV
  | XC energy correction          :         -35.43026196 Ha        -964.10648111 eV
  | XC potential correction       :          46.79549040 Ha        1273.37008205 eV
  | Free-atom electrostatic energy:        -225.25815400 Ha       -6129.58624025 eV
  | Hartree energy correction     :           0.71108372 Ha          19.34957246 eV
  | Entropy correction            :          -0.00005221 Ha          -0.00142074 eV
  | ---------------------------
  | Total energy                  :        -484.28089506 Ha      -13177.95364135 eV
  | Total energy, T -> 0          :        -484.28094727 Ha      -13177.95506209 eV  <-- do not rely on this value for anything but (periodic) metals
  | Electronic free energy        :        -484.28099948 Ha      -13177.95648283 eV

  Derived energy quantities:
  | Kinetic energy                :         484.69014455 Ha       13189.08988663 eV
  | Electrostatic energy          :        -933.54077764 Ha      -25402.93704687 eV
  | Energy correction for multipole
  | error in Hartree potential    :           0.00064693 Ha           0.01760395 eV
  | Sum of eigenvalues per atom                           :       -3688.49028725 eV
  | Total energy (T->0) per atom                          :       -6588.97753104 eV  <-- do not rely on this value for anything but (periodic) metals
  | Electronic free energy per atom                       :       -6588.97824141 eV

  Self-consistency convergence accuracy:
  | Change of charge density      :  0.1959E-03
  | Change of sum of eigenvalues  : -0.4027E-02 eV
  | Change of total energy        : -0.7687E-05 eV

  End self-consistency iteration #     6       :  max(cpu_time)    wall_clock(cpu1)
  | Time for this iteration                    :        0.206 s           0.206 s
  | Charge density update                      :        0.050 s           0.050 s
  | Density mixing & preconditioning           :        0.015 s           0.015 s
  | Hartree multipole update                   :        0.001 s           0.000 s
  | Hartree multipole summation                :        0.068 s           0.068 s
  | Integration                                :        0.053 s           0.053 s
  | Solution of K.-S. eqns.                    :        0.019 s           0.019 s
  | Total energy evaluation                    :        0.000 s           0.001 s

  Partial memory accounting:
  | Current value for overall tracked memory usage:
  |   Minimum:        0.647 MB (on task 0)
  |   Maximum:        0.655 MB (on task 1)
  |   Average:        0.651 MB
  | Peak value for overall tracked memory usage:
  |   Minimum:        3.376 MB (on task 5 after allocating wave)
  |   Maximum:        3.638 MB (on task 3 after allocating wave)
  |   Average:        3.521 MB
  | Largest tracked array allocation so far:
  |   Minimum:        1.166 MB (hamiltonian_shell on task 2)
  |   Maximum:        1.327 MB (hamiltonian_shell on task 3)
  |   Average:        1.255 MB
  Note:  These values currently only include a subset of arrays which are explicitly tracked.
  The "true" memory usage will be greater.
------------------------------------------------------------

------------------------------------------------------------
          Begin self-consistency iteration #    7

  Date     :  20190817, Time     :  154316.022
------------------------------------------------------------
[...]
  | Sum of eigenvalues per atom                           :       -3687.74387754 eV
  | Total energy (T->0) per atom                          :       -6588.78017645 eV  <-- do not rely on this value for anything but (periodic) metals
  | Electronic free energy per atom                       :       -6588.78110247 eV

  atomic forces [eV/Ang]:
  -----------------------
  atom #    1
   Hellmann-Feynman              :  0.278132E+00  0.259747E+00  0.110889E+01
   Ionic forces                  :  0.000000E+00  0.000000E+00  0.000000E+00
   Multipole                     : -0.109246E-02  0.793047E-02  0.135227E-02
   Pulay                         : -0.920582E+00 -0.602295E-01 -0.179798E+01
   ----------------------------------------------------------------
   Total forces(   1)            : -0.643542E+00  0.207448E+00 -0.687736E+00
  atom #    2
   Hellmann-Feynman              : -0.278132E+00 -0.259747E+00 -0.110889E+01
   Ionic forces                  :  0.000000E+00  0.000000E+00  0.000000E+00
   Multipole                     :  0.109246E-02 -0.793047E-02 -0.135227E-02
   Pulay                         :  0.920582E+00  0.602295E-01  0.179798E+01
   ----------------------------------------------------------------
   Total forces(   2)            :  0.643542E+00 -0.207448E+00  0.687736E+00


  Self-consistency convergence accuracy:
  | Change of charge density      :  0.1018E-06
  | Change of sum of eigenvalues  :  0.1366E-04 eV
  | Change of total energy        : -0.2243E-08 eV
  | Change of forces              :  0.3863E-04 eV/A

  Writing Kohn-Sham eigenvalues.
  K-point:       1 at    0.000000    0.000000    0.000000 (in units of recip. lattice)

  State    Occupation    Eigenvalue [Ha]    Eigenvalue [eV]
      1       2.00000         -55.413132        -1507.86805
      2       2.00000         -55.413132        -1507.86805
      3       2.00000          -3.987154         -108.49597
      4       2.00000          -3.986811         -108.48666
      5       2.00000          -2.598829          -70.71774
      6       2.00000          -2.597131          -70.67153
      7       2.00000          -2.596947          -70.66653
      8       2.00000          -2.596856          -70.66405
      9       2.00000          -2.596782          -70.66204
     10       2.00000          -2.596027          -70.64148
     11       2.00000          -0.636019          -17.30696
     12       2.00000          -0.393374          -10.70426
     13       2.00000          -0.372572          -10.13819
     14       0.00000           0.241047            6.55923
     15       0.00000           0.245101            6.66953
     16       0.00000           0.266486            7.25145
     17       0.00000           0.317307            8.63436
     18       0.00000           0.396602           10.79209
     19       0.00000           0.695158           18.91622

  What follows are estimated values for band gap, HOMO, LUMO, etc.
  | They are estimated on a discrete k-point grid and not necessarily exact.
  | For converged numbers, create a DOS and/or band structure plot on a denser k-grid.

  Highest occupied state (VBM) at     -5.60884818 eV (relative to internal zero)
  | Occupation number:      1.22856943
  | K-point:     108 at    0.250000    0.500000    0.250000 (in units of recip. lattice)

  Lowest unoccupied state (CBM) at    -5.58827449 eV (relative to internal zero)
  | Occupation number:      0.99963962
  | K-point:      75 at    0.125000    0.750000    0.750000 (in units of recip. lattice)

  ESTIMATED overall HOMO-LUMO gap:      0.02057368 eV between HOMO at k-point 108 and LUMO at k-point 75
  | This appears to be an indirect band gap.
  | Smallest direct gap :      0.15038459 eV for k_point 214 at    0.125000    0.750000    0.750000 (in units of recip. lattice)
  However, this system has fractional occupation numbers. Since we use a finite k-point grid,
  this material is metallic within the approximate finite broadening function (occupation_type)
  applied to determine the occupation numbers.

  Self-consistency cycle converged.

  End self-consistency iteration #    10       :  max(cpu_time)    wall_clock(cpu1)
  | Time for this iteration                    :        0.889 s           0.889 s
  | Charge density & force component update    :        0.577 s           0.578 s
  | Density mixing                             :        0.000 s           0.000 s
  | Hartree multipole update                   :        0.001 s           0.001 s
  | Hartree multipole summation                :        0.240 s           0.241 s
  | Integration                                :        0.049 s           0.049 s
  | Solution of K.-S. eqns.                    :        0.019 s           0.019 s
  | Total energy evaluation                    :        0.001 s           0.000 s

  Partial memory accounting:
  | Current value for overall tracked memory usage:
  |   Minimum:        0.730 MB (on task 0)
  |   Maximum:        0.738 MB (on task 1)
  |   Average:        0.734 MB
  | Peak value for overall tracked memory usage:
  |   Minimum:        7.856 MB (on task 3 after allocating d_wave)
  |   Maximum:        8.445 MB (on task 2 after allocating d_wave)
  |   Average:        8.079 MB
  | Largest tracked array allocation so far:
  |   Minimum:        1.279 MB (gradient_basis_wave on task 5)
  |   Maximum:        1.398 MB (density_matrix_con on task 2)
  |   Average:        1.322 MB
  Note:  These values currently only include a subset of arrays which are explicitly tracked.
  The "true" memory usage will be greater.
------------------------------------------------------------
  Removing unitary transformations (pure translations, rotations) from forces on atoms.
  Atomic forces before filtering:
  | Net force on center of mass :  -0.633222E-09 -0.715905E-09 -0.739718E-10 eV/A
  Atomic forces after filtering:
  | Net force on center of mass :   0.000000E+00 -0.446015E-16  0.000000E+00 eV/A

  Energy and forces in a compact form:
  | Total energy uncorrected      :         -0.131775585008766E+05 eV
  | Total energy corrected        :         -0.131775603529053E+05 eV  <-- do not rely on this value for anything but (periodic) metals
  | Electronic free energy        :         -0.131775622049340E+05 eV
  Total atomic forces (unitary forces cleaned) [eV/Ang]:
  |    1         -0.643541642233465E+00          0.207447804757642E+00         -0.687736033241034E+00
  |    2          0.643541642233465E+00         -0.207447804757642E+00          0.687736033241034E+00

  ------------------------------------ 
  Start decomposition of the XC Energy 
  ------------------------------------ 
  X and C from original XC functional choice 
  Hartree-Fock Energy :          0.000000000 Ha              0.000000000 eV
  X Energy            :        -33.469728324 Ha           -910.757646538 eV
  C Energy            :         -1.980125507 Ha            -53.881956541 eV
  Total XC Energy     :        -35.449853832 Ha           -964.639603079 eV
  ------------------------------------ 
  LDA X and C from self-consistent density 
  X Energy LDA        :        -33.469728324 Ha           -910.757646538 eV
  C Energy LDA        :         -1.980125507 Ha            -53.881956541 eV
  ------------------------------------ 
  End decomposition of the XC Energy 
  ------------------------------------ 

------------------------------------------------------------
  Relaxation / MD: End force evaluation.       :  max(cpu_time)    wall_clock(cpu1)
  | Time for this force evaluation             :        3.139 s           3.140 s
  
  -----------------------------------------------------------
  Thermodynamic integration:
  | Calculating the quasi-harmonic potential for this geometry
  | Mean value              of the elongation from equilibrium           0.141171182022324E+01 A
  | Std. dev.               of the elongation from equilibrium           0.122336135141318E+01 A
  | Potential energy        in the quasi-harmonic approximation         -0.131712508613358E+05 eV
  | Mean force              in the quasi-harmonic approximation          0.156905762669142E+01 eV/A
  | Std. Dev. of the forces in the quasi-harmonic approximation          0.000000000000000E+00 eV/A
  | Force on the center of mass in the quasi-harmonic approx.            0.000000000000000E+00         0.000000000000000E+00         0.000000000000000E+00 eV/A
  -----------------------------------------------------------

------------------------------------------------------------
  Molecular dynamics: Attempting to update all nuclear coordinates.

  Removing unitary transformations (pure translations, rotations) from forces on atoms.
  Atomic forces before filtering:
  | Net force on center of mass :   0.000000E+00  0.000000E+00  0.000000E+00 eV/A
  Atomic forces after filtering:
  | Net force on center of mass :   0.000000E+00  0.000000E+00  0.000000E+00 eV/A
  Cleaning translations from velocities
  | Velocity rescaling factor to preserve kinetic energy before and after cleaning:   1.00000000
------------------------------------------------------------
  Thermodynamic integration:
  All values given in the MD section refer to the hybrid system
------------------------------------------------------------
  Advancing structure using Born-Oppenheimer Molecular Dynamics:
  Complete information for previous time-step:
  | Time step number          :        6
  | Simulation time           :           0.600000000000000E-01 ps
  | Electronic free energy    :          -0.131747221003148E+05 eV
  | Temperature (nuclei)      :           0.385639022271497E+03 K
  | Nuclear kinetic energy    :           0.996955120225936E-01 eV
  | Total energy (el.+nuc.)   :          -0.131746224048028E+05 eV
  | Thermostat value ln(s)    :           0.168972234335563E+01
  | Thermostat momentum pi    :           0.171191756032823E-01 eV ps
  | Nose-Hoover Hamiltonian   :          -0.131736806895487E+05 eV
------------------------------------------------------------
  Thermodynamic integration:
  Results for this single time step: ( with | without energy offset)
  | Time step number                            :          6
  | Value of lambda                             :          0.550000000000000E+00
  | Value of dlambda/dt                         :          0.333333333333333E+01 1/ps
  | Potential energy of the   harmonic system   :         -0.131712508613358E+05 eV |          0.135073345110993E+01 eV
  | Potential energy of the anharmonic system   :         -0.131775622049340E+05 eV |         -0.496061014712967E+01 eV
  | Potential energy of the     hybrid system   :         -0.131747221003148E+05 eV |         -0.212050552792069E+01 eV
  | Total     energy of the     hybrid system   :         -0.131746224048028E+05 eV |         -0.202081001589855E+01 eV
  d/dlambda (Tot. En.  of the hybrid system)
  |   Value in this step                        :         -0.631134359824029E+01 eV
  |   Thermod. Average in this segment          :         -0.689779180911424E+01 eV
  |   Change w.r.t. last step                   :          0.195482736957985E+00 eV
  ----------------------------------------------------------
  Final values for the thermodynamic integration in this segment:
  | Lambda was varied in between     0.4500000000E+00 and     0.5500000000E+00 in     0.3999999990E-01 ps.
  | Thermod. Average of  d/dlambda (Tot. En.  of the hybrid system)  :        -0.689779180911424E+01 eV
------------------------------------------------------------
  Final atomic structure (and velocities) as used in the preceding time step:
                      x [A]             y [A]             z [A]       Atom
   atom               0.05662091        0.39902770        0.36934167  Al
     velocity          -0.60990559          4.47240589          3.90851427
   atom               3.93043909        3.58803230        3.61771833  Al
     velocity           0.60990559         -4.47240589         -3.90851427
------------------------------------------------------------
  ------------------------------------------------------------
  Equilibrium conditions written to restart file:
  | Unit cell: 
  |         1.993530         1.993530         0.000000
  |         0.000000         1.993530         1.993530
  |         3.987060         0.000000         3.987060
  | Atomic structure: 
  |  Atom           x [A]            y [A]            z [A]
  |    1         0.000000         0.000000         0.000000
  |    2        -1.993530        -1.993530        -3.987060
  ------------------------------------------------------------
  |------------------------------------------------------
  | Final ELSI Output
  |------------------------------------------------------
  |
  | Physical Properties
  |   Number of electrons       :        0.26000000E+02
  |   Number of states          :                    19
  |
  | Matrix Properties
  |   Matrix format             :           BLACS_DENSE
  |   Number of basis functions :                    26
  |
  | Computational Details
  |   Parallel mode             :           SINGLE_PROC
  |   Solver requested          :                LAPACK
  |   Number of ELSI calls      :                  2464
  |
  |------------------------------------------------------
  | ELSI Project (c)  elsi-interchange.org
  |------------------------------------------------------

------------------------------------------------------------------------------
  Final output of selected total energy values:

  The following output summarizes some interesting total energy values
  at the end of a run (AFTER all relaxation, molecular dynamics, etc.).

  | Total energy of the DFT / Hartree-Fock s.c.f. calculation      :         -13174.722100315 eV
  | Final zero-broadening corrected energy (caution - metals only) :         -13174.723952344 eV
  | For reference only, the value of 1 Hartree used in FHI-aims is :             27.211384500 eV
  | For reference only, the overall average (free atom contribution
  | + realspace contribution) of the electrostatic potential after
  | s.c.f. convergence is                                          :            -16.515900575 eV

  Before relying on these values, please be sure to understand exactly which
  total energy value is referred to by a given number. Different objects may
  all carry the same name 'total energy'. Definitions:

  Total energy of the DFT / Hartree-Fock s.c.f. calculation:
  | Note that this energy does not include ANY quantities calculated after the
  | s.c.f. cycle, in particular not ANY RPA, MP2, etc. many-body perturbation terms.

  Final zero-broadening corrected energy:
  | For metallic systems only, a broadening of the occupation numbers at the Fermi
  | level can be extrapolated back to zero broadening by an electron-gas inspired
  | formula. For all systems that are not real metals, this value can be
  | meaningless and should be avoided.

------------------------------------------------------------------------------
  Methods described in the following list of references were used in this FHI-aims run.
  If you publish the results, please make sure to cite these reference if they apply.
  FHI-aims is an academic code, and for our developers (often, Ph.D. students
  and postdocs), scientific credit in the community is essential.
  Thank you for helping us!

  For any use of FHI-aims, please cite:

    Volker Blum, Ralf Gehrke, Felix Hanke, Paula Havu, Ville Havu,
    Xinguo Ren, Karsten Reuter, and Matthias Scheffler
    'Ab initio molecular simulations with numeric atom-centered orbitals'
    Computer Physics Communications 180, 2175-2196 (2009)
    http://dx.doi.org/10.1016/j.cpc.2009.06.022


  The provided symmetry information was generated with SPGlib:

    Atsushi Togo, Yusuke Seto, Dimitar Pashov
    SPGlib 1.7.3 obtained from http://spglib.sourceforge.net
    Copyright (C) 2008 Atsushi Togo


  The ELSI infrastructure was used in your run to solve the Kohn-Sham electronic structure.
  Please check out http://elsi-interchange.org to learn more.
  If scalability is important for your project, please acknowledge ELSI by citing:

    V. W-z. Yu, F. Corsetti, A. Garcia, W. P. Huhn, M. Jacquelin, W. Jia,
    B. Lange, L. Lin, J. Lu, W. Mi, A. Seifitokaldani, A. Vazquez-Mayagoitia,
    C. Yang, H. Yang, and V. Blum
    'ELSI: A unified software interface for Kohn-Sham electronic structure solvers'
    Computer Physics Communications 222, 267-285 (2018).
    http://dx.doi.org/10.1016/j.cpc.2017.09.007


  For the real-space grid partitioning and parallelization used in this calculation, please cite:

    Ville Havu, Volker Blum, Paula Havu, and Matthias Scheffler,
    'Efficient O(N) integration for all-electron electronic structure calculation'
    'using numerically tabulated basis functions'
    Journal of Computational Physics 228, 8367-8379 (2009).
    http://dx.doi.org/10.1016/j.jcp.2009.08.008

  Of course, there are many other important community references, e.g., those cited in the
  above references. Our list is limited to references that describe implementations in the
  FHI-aims code. The reason is purely practical (length of this list) - please credit others as well.

------------------------------------------------------------
          Leaving FHI-aims.
          Date     :  20190817, Time     :  154337.449

          Computational steps:
          | Number of self-consistency cycles          :           76
          | Number of SCF (re)initializations          :            7
          | Number of molecular dynamics steps         :            7
          | Number of force evaluations                :            7

          Detailed time accounting                     :  max(cpu_time)    wall_clock(cpu1)
          | Total time                                 :       23.112 s          23.167 s
          | Preparation time                           :        0.148 s           0.148 s
          | Boundary condition initalization           :        0.409 s           0.410 s
          | Grid partitioning                          :        0.128 s           0.127 s
          | Preloading free-atom quantities on grid    :        0.404 s           0.402 s
          | Free-atom superposition energy             :        0.074 s           0.074 s
          | Total time for integrations                :        4.202 s           4.201 s
          | Total time for solution of K.-S. equations :        1.541 s           1.539 s
          | Total time for EV reorthonormalization     :        0.018 s           0.018 s
          | Total time for density & force components  :        6.948 s           6.944 s
          | Total time for mixing & preconditioning    :        0.813 s           0.818 s
          | Total time for Hartree multipole update    :        0.057 s           0.056 s
          | Total time for Hartree multipole sum       :        8.115 s           8.119 s
          | Total time for total energy evaluation     :        0.029 s           0.018 s
          | Total time for scaled ZORA corrections     :        0.000 s           0.000 s

          Partial memory accounting:
          | Residual value for overall tracked memory usage across tasks:     0.000000 MB (should be 0.000000 MB)
          | Peak values for overall tracked memory usage:
          |   Minimum:        7.856 MB (on task 3 after allocating d_wave)
          |   Maximum:        8.445 MB (on task 2 after allocating d_wave)
          |   Average:        8.079 MB
          | Largest tracked array allocation:
          |   Minimum:        1.279 MB (gradient_basis_wave on task 5)
          |   Maximum:        1.398 MB (density_matrix_con on task 2)
          |   Average:        1.322 MB
          Note:  These values currently only include a subset of arrays which are explicitly tracked.
          The "true" memory usage will be greater.

          Have a nice day.
------------------------------------------------------------
