  MPI-parallelism will be employed.
------------------------------------------------------------
          Invoking FHI-aims ...
          Version 170101
          Git rev.: d9022c0 VB: Version stamp update
          Compiled on 2017/01/01 at 11:33:22 on host node17.timewarp.

          When using FHI-aims, please cite the following reference:

          Volker Blum, Ralf Gehrke, Felix Hanke, Paula Havu,
          Ville Havu, Xinguo Ren, Karsten Reuter, and Matthias Scheffler,
          'Ab Initio Molecular Simulations with Numeric Atom-Centered Orbitals',
          Computer Physics Communications 180, 2175-2196 (2009)

          For any questions about FHI-aims, please visit the aimsclub website
          with its forums and wiki. Contributions to both the forums and the
          wiki are warmly encouraged - they are for you, and everyone is welcome there.

------------------------------------------------------------



  Date     :  20170101, Time     :  121437.633
  Time zero on CPU 1             :   0.102984000000000E+00  s.
  Internal wall clock time zero  :           252504877.633  s.

  FHI-aims created a unique identifier for this run for later identification
  aims_uuid : 0A483E20-E6E6-40C8-A0A5-FDD0EB004756

  Using       20 parallel tasks.
  Task        0 on host node10.timewarp reporting.
  Task        1 on host node10.timewarp reporting.
  Task        2 on host node10.timewarp reporting.
  Task        3 on host node10.timewarp reporting.
  Task        4 on host node10.timewarp reporting.
  Task        5 on host node10.timewarp reporting.
  Task        6 on host node10.timewarp reporting.
  Task        7 on host node10.timewarp reporting.
  Task        8 on host node10.timewarp reporting.
  Task        9 on host node10.timewarp reporting.
  Task       10 on host node10.timewarp reporting.
  Task       11 on host node10.timewarp reporting.
  Task       12 on host node10.timewarp reporting.
  Task       13 on host node10.timewarp reporting.
  Task       14 on host node10.timewarp reporting.
  Task       15 on host node10.timewarp reporting.
  Task       16 on host node10.timewarp reporting.
  Task       17 on host node10.timewarp reporting.
  Task       18 on host node10.timewarp reporting.
  Task       19 on host node10.timewarp reporting.

  Performing system and environment tests:
  | Environment variable OMP_NUM_THREADS correctly set to 1.
  | Maximum stacksize for task 0: unlimited
  | Maximum stacksize for task 1: unlimited
  | Maximum stacksize for task 2: unlimited
  | Maximum stacksize for task 3: unlimited
  | Maximum stacksize for task 4: unlimited
  | Maximum stacksize for task 5: unlimited
  | Maximum stacksize for task 6: unlimited
  | Maximum stacksize for task 7: unlimited
  | Maximum stacksize for task 8: unlimited
  | Maximum stacksize for task 9: unlimited
  | Maximum stacksize for task 10: unlimited
  | Maximum stacksize for task 11: unlimited
  | Maximum stacksize for task 12: unlimited
  | Maximum stacksize for task 13: unlimited
  | Maximum stacksize for task 14: unlimited
  | Maximum stacksize for task 15: unlimited
  | Maximum stacksize for task 16: unlimited
  | Maximum stacksize for task 17: unlimited
  | Maximum stacksize for task 18: unlimited
  | Maximum stacksize for task 19: unlimited
  | Current stacksize for task 0: unlimited
  | Current stacksize for task 1: unlimited
  | Current stacksize for task 2: unlimited
  | Current stacksize for task 3: unlimited
  | Current stacksize for task 4: unlimited
  | Current stacksize for task 5: unlimited
  | Current stacksize for task 6: unlimited
  | Current stacksize for task 7: unlimited
  | Current stacksize for task 8: unlimited
  | Current stacksize for task 9: unlimited
  | Current stacksize for task 10: unlimited
  | Current stacksize for task 11: unlimited
  | Current stacksize for task 12: unlimited
  | Current stacksize for task 13: unlimited
  | Current stacksize for task 14: unlimited
  | Current stacksize for task 15: unlimited
  | Current stacksize for task 16: unlimited
  | Current stacksize for task 17: unlimited
  | Current stacksize for task 18: unlimited
  | Current stacksize for task 19: unlimited
  | Checking for scalapack...
  | Testing pdtran()...
  | All pdtran() tests passed.

  Obtaining array dimensions for all initial allocations:
  
  -----------------------------------------------------------------------
  Parsing control.in (first pass over file, find array dimensions only).
  The contents of control.in will be repeated verbatim below
  unless switched off by setting 'verbatim_writeout .false.' .
  in the first line of control.in .
  -----------------------------------------------------------------------
  
  #  VB, December 2016
  #
  #  Input file control.in : All computational details for structure geometry.in
  #
  #  * First, general computational parameters:
  #
  #  Physics choices (model):
  #
    xc               pbe
      vdw_correction_hirshfeld
    spin             none
    relativistic     none
    charge           1.0
    occupation_type  gaussian 0.05
  #
  #  SCF cycle:
  #
    mixer            pulay
      n_max_pulay       10
      charge_mix_param  0.4
  #
  #  accuracy / efficiency for normal scf
  #
    density_update_method automatic
    collect_eigenvectors .false.
    empty_states 3
  
    use_hartree_non_periodic_ewald gridspacing 0.6
  
  #   use_local_index .true.
  #   load_balancing .true.
  #   distributed_spline_storage .true.
  
  # For MD:
    MD_run   0.01   NVT_nose-hoover 300  1700
    MD_thermostat_units cm^-1
    MD_time_step  0.001
    MD_clean_rotations  .true.
    MD_restart    .true.
    output_level MD_light
  #
  ################################################################################
  #
  #  FHI-aims code project
  #  VB, Fritz-Haber Institut, 2009
  #
  #  Suggested "light" defaults for H atom (to be pasted into control.in file)
  #  Be sure to double-check any results obtained with these settings for post-processing,
  #  e.g., with the "tight" defaults and larger basis sets.
  #
  ################################################################################
    species        H
  #     global species definitions
      nucleus             1
      mass                1.00794
  #
      l_hartree           4
  #
      cut_pot             3.5  1.5  1.0
      basis_dep_cutoff    1e-4
  #
      radial_base         24 5.0
      radial_multiplier   1
      angular_grids       specified
        division   0.2421   50
        division   0.3822  110
        division   0.4799  194
        division   0.5341  302
  #      division   0.5626  434
  #      division   0.5922  590
  #      division   0.6542  770
  #      division   0.6868 1202
  #      outer_grid  770
        outer_grid  302
  ################################################################################
  #
  #  Definition of "minimal" basis
  #
  ################################################################################
  #     valence basis states
      valence      1  s   1.
  #     ion occupancy
      ion_occ      1  s   0.5
  ################################################################################
  #
  #  Suggested additional basis functions. For production calculations,
  #  uncomment them one after another (the most important basis functions are
  #  listed first).
  #
  #  Basis constructed for dimers: 0.5 A, 0.7 A, 1.0 A, 1.5 A, 2.5 A
  #
  ################################################################################
  #  "First tier" - improvements: -1014.90 meV to -62.69 meV
       hydro 2 s 2.1
       hydro 2 p 3.5
  #  "Second tier" - improvements: -12.89 meV to -1.83 meV
  #     hydro 1 s 0.85
  #     hydro 2 p 3.7
  #     hydro 2 s 1.2
  #     hydro 3 d 7
  #  "Third tier" - improvements: -0.25 meV to -0.12 meV
  #     hydro 4 f 11.2
  #     hydro 3 p 4.8
  #     hydro 4 d 9
  #     hydro 3 s 3.2
  
  ################################################################################
  #
  #  FHI-aims code project
  #  VB, Fritz-Haber Institut, 2009
  #
  #  Suggested "light" defaults for C atom (to be pasted into control.in file)
  #  Be sure to double-check any results obtained with these settings for post-processing,
  #  e.g., with the "tight" defaults and larger basis sets.
  #
  ################################################################################
    species        C
  #     global species definitions
      nucleus             6
      mass                12.0107
  #
      l_hartree           4
  #
      cut_pot             3.5  1.5  1.0
      basis_dep_cutoff    1e-4
  #
      radial_base         34 5.0
      radial_multiplier   1
      angular_grids specified
        division   0.3326   50
        division   0.5710  110
        division   0.7727  194
        division   0.8772  302
  #      division   0.9334  434
  #      division   0.9625  590
  #      division   0.9924  770
  #      division   1.0230  974
  #      division   1.4589 1202
  #     outer_grid  974
       outer_grid 302
  ################################################################################
  #
  #  Definition of "minimal" basis
  #
  ################################################################################
  #     valence basis states
      valence      2  s   2.
      valence      2  p   2.
  #     ion occupancy
      ion_occ      2  s   1.
      ion_occ      2  p   1.
  ################################################################################
  #
  #  Suggested additional basis functions. For production calculations,
  #  uncomment them one after another (the most important basis functions are
  #  listed first).
  #
  #  Constructed for dimers: 1.0 A, 1.25 A, 1.5 A, 2.0 A, 3.0 A
  #
  ################################################################################
  #  "First tier" - improvements: -1214.57 meV to -155.61 meV
       hydro 2 p 1.7
       hydro 3 d 6
       hydro 2 s 4.9
  #  "Second tier" - improvements: -67.75 meV to -5.23 meV
  #     hydro 4 f 9.8
  #     hydro 3 p 5.2
  #     hydro 3 s 4.3
  #     hydro 5 g 14.4
  #     hydro 3 d 6.2
  #  "Third tier" - improvements: -2.43 meV to -0.60 meV
  #     hydro 2 p 5.6
  #     hydro 2 s 1.4
  #     hydro 3 d 4.9
  #     hydro 4 f 11.2
  #  "Fourth tier" - improvements: -0.39 meV to -0.18 meV
  #     hydro 2 p 2.1
  #     hydro 5 g 16.4
  #     hydro 4 d 13.2
  #     hydro 3 s 13.6
  #     hydro 4 f 17.6
  #  Further basis functions - improvements: -0.08 meV and below
  #     hydro 3 s 2
  #     hydro 3 p 6
  #     hydro 4 d 20
  
  ################################################################################
  #
  #  FHI-aims code project
  #  VB, Fritz-Haber Institut, 2009
  #
  #  Suggested "light" defaults for N atom (to be pasted into control.in file)
  #  Be sure to double-check any results obtained with these settings for post-processing,
  #  e.g., with the "tight" defaults and larger basis sets.
  #
  ################################################################################
    species        N
  #     global species definitions
      nucleus             7
      mass                14.0067
  #
      l_hartree           4
  #
      cut_pot             3.5  1.5  1.0
      basis_dep_cutoff    1e-4
  #
      radial_base         35 5.0
      radial_multiplier   1
      angular_grids       specified
        division   0.2599   50
        division   0.4601  110
        division   0.5885  194
        division   0.6503  302
  #      division   0.6939  434
  #      division   0.7396  590
  #      division   0.7632  770
  #      division   0.8122  974
  #      division   1.1604 1202
  #      outer_grid  974
        outer_grid  302
  ################################################################################
  #
  #  Definition of "minimal" basis
  #
  ################################################################################
  #     valence basis states
      valence      2  s   2.
      valence      2  p   3.
  #     ion occupancy
      ion_occ      2  s   1.
      ion_occ      2  p   2.
  ################################################################################
  #
  #  Suggested additional basis functions. For production calculations,
  #  uncomment them one after another (the most important basis functions are
  #  listed first).
  #
  #  Constructed for dimers: 1.0 A, 1.1 A, 1.5 A, 2.0 A, 3.0 A
  #
  ################################################################################
  #  "First tier" - improvements: -1193.42 meV to -220.60 meV
       hydro 2 p 1.8
       hydro 3 d 6.8
       hydro 3 s 5.8
  #  "Second tier" - improvements: -80.21 meV to -6.86 meV
  #     hydro 4 f 10.8
  #     hydro 3 p 5.8
  #     hydro 1 s 0.8
  #     hydro 5 g 16
  #     hydro 3 d 4.9
  #  "Third tier" - improvements: -4.29 meV to -0.53 meV
  #     hydro 3 s 16
  #     ionic 2 p auto
  #     hydro 3 d 6.6
  #     hydro 4 f 11.6
  #  "Fourth tier" - improvements: -0.75 meV to -0.25 meV
  #     hydro 2 p 4.5
  #     hydro 2 s 2.4
  #     hydro 5 g 14.4
  #     hydro 4 d 14.4
  #     hydro 4 f 16.8
  # Further basis functions - -0.21 meV and below
  #     hydro 3 p 14.8
  #     hydro 3 s 4.4
  #     hydro 3 d 19.6
  #     hydro 5 g 12.8
  
  ################################################################################
  #
  #  FHI-aims code project
  #  VB, Fritz-Haber Institut, 2009
  #
  #  Suggested "light" defaults for O atom (to be pasted into control.in file)
  #  Be sure to double-check any results obtained with these settings for post-processing,
  #  e.g., with the "tight" defaults and larger basis sets.
  #
  ################################################################################
    species        O
  #     global species definitions
      nucleus             8
      mass                15.9994
  #
      l_hartree           4
  #
      cut_pot             3.5  1.5  1.0
      basis_dep_cutoff    1e-4
  #
      radial_base         36 5.0
      radial_multiplier   1
       angular_grids specified
        division   0.2659   50
        division   0.4451  110
        division   0.6052  194
        division   0.7543  302
  #      division   0.8014  434
  #      division   0.8507  590
  #      division   0.8762  770
  #      division   0.9023  974
  #      division   1.2339 1202
  #      outer_grid 974
        outer_grid 302
  ################################################################################
  #
  #  Definition of "minimal" basis
  #
  ################################################################################
  #     valence basis states
      valence      2  s   2.
      valence      2  p   4.
  #     ion occupancy
      ion_occ      2  s   1.
      ion_occ      2  p   3.
  ################################################################################
  #
  #  Suggested additional basis functions. For production calculations,
  #  uncomment them one after another (the most important basis functions are
  #  listed first).
  #
  #  Constructed for dimers: 1.0 A, 1.208 A, 1.5 A, 2.0 A, 3.0 A
  #
  ################################################################################
  #  "First tier" - improvements: -699.05 meV to -159.38 meV
       hydro 2 p 1.8
       hydro 3 d 7.6
       hydro 3 s 6.4
  #  "Second tier" - improvements: -49.91 meV to -5.39 meV
  #     hydro 4 f 11.6
  #     hydro 3 p 6.2
  #     hydro 3 d 5.6
  #     hydro 5 g 17.6
  #     hydro 1 s 0.75
  #  "Third tier" - improvements: -2.83 meV to -0.50 meV
  #     ionic 2 p auto
  #     hydro 4 f 10.8
  #     hydro 4 d 4.7
  #     hydro 2 s 6.8
  #  "Fourth tier" - improvements: -0.40 meV to -0.12 meV
  #     hydro 3 p 5
  #     hydro 3 s 3.3
  #     hydro 5 g 15.6
  #     hydro 4 f 17.6
  #     hydro 4 d 14
  # Further basis functions - -0.08 meV and below
  #     hydro 3 s 2.1
  #     hydro 4 d 11.6
  #     hydro 3 p 16
  #     hydro 2 s 17.2
  
  -----------------------------------------------------------------------
  Completed first pass over input file control.in .
  -----------------------------------------------------------------------
  
  
  -----------------------------------------------------------------------
  Parsing geometry.in (first pass over file, find array dimensions only).
  The contents of geometry.in will be repeated verbatim below
  unless switched off by setting 'verbatim_writeout .false.' .
  in the first line of geometry.in .
  -----------------------------------------------------------------------
  
     atom              -0.23141335        0.18340697       -0.12448228  C
       velocity          -2.85460306         -5.02856971         -0.17065224
     atom              -0.19118146       -0.09445273        1.35861646  C
       velocity           1.34102743          2.06289079          2.18348732
     atom               0.87376279       -0.29855567        1.96328750  O
       velocity           3.01139339          6.09596320         -4.28965956
     atom               0.36785049       -0.57211680       -0.64751632  H
       velocity          27.79909091         26.76842722         44.36475253
     atom               0.24361635        1.15689711       -0.30800466  H
       velocity           2.99849515         19.07655371         25.72520332
     atom              -1.24405433        0.19904286       -0.54445825  H
       velocity         -13.14552145         23.84710413         31.25608028
     atom              -1.39320160       -0.13509756        2.01066912  N
       velocity           4.39464260         -1.57697338          0.70179892
     atom              -1.47399369       -0.17510188        3.47422463  C
       velocity           4.22858613          0.24028838         -3.75239546
     atom              -0.74481451       -1.39197706        4.06525094  C
       velocity           0.94689108          4.38781085          5.01278526
     atom              -0.10720583       -1.28752078        5.11915922  O
       velocity           3.19282735         -5.70129778          3.67100322
     atom              -2.22883133        0.14645564        1.50223235  H
       velocity           9.19722647          5.15330635          7.93136957
     atom              -0.93862610        0.69255616        3.89341183  H
       velocity           1.73664363         17.16734770         11.49485815
     atom              -2.95102104       -0.12688702        3.90911901  C
       velocity           3.26959071         -5.82922122         -1.94216809
     atom              -3.15902850       -0.11366481        5.42642767  C
       velocity          -5.73657125         -4.26022046          3.75074995
     atom              -4.63246320        0.03461148        5.82204763  C
       velocity           5.74409951          2.14700845         -0.07860436
     atom              -4.84172238        0.02562749        7.34719618  C
       velocity          -0.81084380          6.63265080         -7.41258338
     atom              -6.21566268        0.16539372        7.82877465  N
       velocity          -1.17141096         -4.48309148         -2.81054745
     atom              -3.48764352       -0.98449316        3.46638773  H
       velocity           7.22564780         24.55254590         20.79998433
     atom              -3.39485731        0.78564949        3.47426368  H
       velocity           8.88751960         25.66638986         -3.77425968
     atom              -2.57198933        0.70976033        5.86815429  H
       velocity           8.88493766         27.42441231         -6.34697044
     atom              -2.75329054       -1.03961842        5.86595780  H
       velocity         -20.68856529         -3.05644418         25.39358292
     atom              -5.22363247       -0.78325525        5.37208584  H
       velocity          24.32014371          7.47422681         26.85845340
     atom              -5.03812002        0.97454665        5.40689360  H
       velocity          -5.13596138         13.60491572          0.80600547
     atom              -4.24485186        0.83624581        7.79886014  H
       velocity          -1.18621105        -35.65990264         25.61248116
     atom              -4.43523308       -0.91287088        7.76189787  H
       velocity          -5.85194573         -5.76121022          1.99348493
     atom              -6.80742494       -0.58308954        7.46002526  H
       velocity           0.66664311        -17.23909533         12.24159131
     atom              -6.62437245        1.04639876        7.50760589  H
       velocity          13.61451945        -23.23620629         22.54685335
     atom              -0.87288914       -2.57195828        3.40163776  N
       velocity           0.38155142          2.64240781         -3.70964500
     atom              -0.22942536       -3.79039124        3.89067160  C
       velocity           0.17562043         -1.54182111          4.01901389
     atom               1.31279099       -3.69671907        3.89100534  C
       velocity          -9.07844798         -4.04695584          0.40917920
     atom               1.96376917       -4.29969654        4.75257734  O
       velocity          -2.13125630         -3.16021075         -1.63282034
     atom              -1.40167440       -2.59410569        2.53213899  H
       velocity          17.93490105          3.33788291         -0.79215271
     atom              -0.49705671       -3.91912990        4.94989576  H
       velocity          -2.02857921        -18.32571856          4.44851928
     atom              -0.69471834       -5.00439622        3.08569253  C
       velocity          -3.82398303          8.27917896          3.54224539
     atom              -0.20144116       -5.90690980        3.46612511  H
       velocity         -11.25281536        -11.81105879         10.11361325
     atom              -0.43803250       -4.90204604        2.02106356  H
       velocity           0.49119884         14.96644546        -37.11794285
     atom              -1.78019655       -5.14264567        3.18204520  H
       velocity         -17.60674370         13.80347064        -22.78223593
     atom               1.87815503       -2.98655727        2.87975322  N
       velocity           5.59029433          0.94424645         -3.77903968
     atom               3.32341222       -2.76597359        2.83378853  C
       velocity          -4.97144523          0.61161715          2.00665073
     atom               3.80625687       -1.82677416        3.95922580  C
       velocity          -3.99982127          0.79874514          2.02312470
     atom               4.85429730       -2.07173785        4.57152541  O
       velocity           5.28854168         -3.35297457          1.52121920
     atom               1.28997978       -2.34357558        2.34651125  H
       velocity           4.02633018         17.26211080         -4.15332789
     atom               3.80916041       -3.72603995        3.05564454  H
       velocity          -6.06561954        -15.98216560        -30.25618810
     atom               3.75432630       -2.26403531        1.45421281  C
       velocity          -8.04636512          2.75535985         -4.20261449
     atom               4.83857663       -2.09612846        1.44607078  H
       velocity         -12.50005151         21.07257091         -0.20978616
     atom               3.25484920       -1.31923898        1.19831767  H
       velocity         -16.22075291          6.00642867        -19.45617647
     atom               3.51647262       -3.01196933        0.68598297  H
       velocity          -4.02817349          6.33815570         -0.27292263
     atom               3.02390141       -0.75320528        4.23247302  N
       velocity          -1.85217035         -7.46715096          4.50316798
     atom               3.32561088        0.12534155        5.35988855  C
       velocity          -5.59457146          1.22136721          8.60981209
     atom               3.28319896       -0.63620260        6.70436494  C
       velocity          -1.15056404         -8.15905252         -2.48733792
     atom               4.14260033       -0.41994506        7.57054652  O
       velocity           8.41969273          1.86512788         -2.11897849
     atom               2.18729761       -0.57588179        3.67391458  H
       velocity          22.02043630         19.06248489         -7.24170884
     atom               4.36930945        0.46323161        5.27511344  H
       velocity         -16.22363324         -9.89876109         -6.37948287
     atom               2.38381511        1.33069087        5.36861760  C
       velocity          -2.27137252         -4.07958802         -2.18056533
     atom               2.62428699        1.97916721        6.22022960  H
       velocity          -9.47268233        -25.52119810         12.05545478
     atom               1.33530898        1.01320861        5.45913041  H
       velocity         -20.39712368         17.83638801         -2.20744225
     atom               2.50230926        1.91641143        4.44668745  H
       velocity         -31.45102184         31.50515105         -0.39656419
     atom               2.27256341       -1.52372393        6.86462869  N
       velocity           3.81549804         -3.63305891          2.71640186
     atom               2.15622822       -2.32084114        8.08242957  C
       velocity          -2.84172078          0.23581879         -2.96610638
     atom               3.35061058       -3.28403332        8.25376043  C
       velocity          -3.79437073          5.03264294          1.51557603
     atom               3.87841916       -3.43130406        9.36646760  O
       velocity           4.22526437         -4.54671038         -0.03630133
     atom               1.53290982       -1.58947434        6.15996244  H
       velocity          -3.51630534         15.68228375        -17.92822769
     atom               2.22403430       -1.65174319        8.95380389  H
       velocity          14.45977118         26.88247524         17.06622902
     atom               0.82545971       -3.07609060        8.10438698  C
       velocity           4.97190392         -1.50555417         -2.96727628
     atom               0.74706014       -3.65413357        9.03360508  H
       velocity          -9.47276945         36.60192410          2.49422503
     atom               0.75046051       -3.77138100        7.25647362  H
       velocity          21.70542553          5.33480302          5.36992699
     atom              -0.01613803       -2.37161333        8.06042136  H
       velocity         -37.37365901         -1.84185855         13.59816252
     atom               3.76685555       -3.93791629        7.14419156  N
       velocity           2.98382496         -5.53305421         -4.26251719
     atom               4.92340382       -4.82817848        7.18779342  C
       velocity           1.50359471         -0.80801625         -1.33986568
     atom               6.21526757       -4.06778158        7.55715949  C
       velocity          -1.53537353         -2.00950715         -0.91988845
     atom               7.03286280       -4.57137908        8.34366984  O
       velocity           1.28160836         -6.67098076         -2.90142494
     atom               3.24351230       -3.85550237        6.26783087  H
       velocity          21.34491268         25.55757213        -13.57339045
     atom               4.78922499       -5.54769293        8.01002213  H
       velocity          20.83732977         -5.70653946          4.62088705
     atom               5.07864906       -5.57222475        5.85973731  C
       velocity           1.45598051         10.00078184         -0.27696441
     atom               5.94376815       -6.24467125        5.91558382  H
       velocity          17.60896181         10.29971578         -3.37990984
     atom               5.23576258       -4.86937865        5.02975360  H
       velocity           8.97216913          5.84788046          8.98619996
     atom               4.18266963       -6.17054139        5.64784204  H
       velocity          -2.82779598         23.03055846          3.51539625
     atom               6.39252855       -2.85964483        6.97536487  N
       velocity          -0.68851974         -2.49051764          4.31715749
     atom               7.55517242       -2.03624157        7.29208925  C
       velocity           0.24155959          2.38097449         -4.17813341
     atom               7.56862140       -1.61146826        8.77579435  C
       velocity          -3.40174457         -2.79023818          3.82225536
     atom               8.63004699       -1.62765343        9.42031458  O
       velocity          -1.87241285          0.84519489         -8.53688609
     atom               5.72578946       -2.52200515        6.27388695  H
       velocity          -4.93169994         16.98887536         10.15151803
     atom               8.46460396       -2.64605288        7.17877264  H
       velocity           1.21866263         15.36943504        -29.45072326
     atom               7.62060395       -0.81969131        6.36602662  C
       velocity          -0.44068098        -13.99571017         -3.16437627
     atom               8.50372640       -0.21748958        6.61376481  H
       velocity           9.73451385          9.81905604          7.92582590
     atom               6.72537268       -0.19215550        6.47597126  H
       velocity           3.02078344         25.63664781         -7.49744010
     atom               7.69695277       -1.13963547        5.31837784  H
       velocity          10.72929530         26.46459245         -0.28111765
     atom               6.38568743       -1.22679329        9.30555215  N
       velocity           4.66467782         -5.30238671         -1.21274062
     atom               6.27612215       -0.86206955       10.71415571  C
       velocity           4.62796650         -3.89324531         -1.78626375
     atom               6.60387316       -2.05271740       11.63989896  C
       velocity          -3.16655530          2.60880380          4.90386050
     atom               7.29097222       -1.88046741       12.66056329  O
       velocity          -0.19467059         -3.22598326         -1.64027525
     atom               5.55353195       -1.15146428        8.71065136  H
       velocity          -0.18016307         13.16672102         -6.73807775
     atom               7.05002276       -0.11579385       10.95095374  H
       velocity          12.59142811         11.23368663          7.67402819
     atom               4.88787975       -0.29188518       11.01440084  C
       velocity           3.03677985          1.89713365         -2.54715120
     atom               4.82569216       -0.01694210       12.07484840  H
       velocity           5.83540817          3.73596862         32.59545435
     atom               4.10389742       -1.02995582       10.79563273  H
       velocity          20.43581732          8.25992033         23.68000113
     atom               4.70322552        0.60440332       10.40750815  H
       velocity          -9.58738922          0.29910151          7.08367301
     atom               6.10142033       -3.25443416       11.27881616  N
       velocity           3.92976143          1.50274132          1.23900228
     atom               6.40057998       -4.45648258       12.04992128  C
       velocity          -1.07341346         -2.09468367          9.40658073
     atom               7.90893956       -4.78357907       12.03361961  C
       velocity          -2.30663573          2.95177424          3.98057691
     atom               8.48104917       -5.15102874       13.07403266  O
       velocity          -6.21116428          8.48624148         -0.39222897
     atom               5.47356975       -3.32987647       10.47051672  H
       velocity           0.80918006        -13.53014869         -5.69970538
     atom               6.17796735       -4.26473981       13.11089692  H
       velocity          -3.27065578         -7.26138879         -3.30096797
     atom               5.57026675       -5.63854100       11.54402251  C
       velocity          -2.13392993         -6.78763335         -4.89250808
     atom               5.80167972       -6.53119117       12.13875476  H
       velocity         -22.72844258        -13.99139914         11.68494717
     atom               5.79116946       -5.85133957       10.48897642  H
       velocity           7.80361602         -2.05131352          2.08832254
     atom               4.49817235       -5.42095219       11.63922489  H
       velocity         -13.03810694        -22.68538991        -21.45184880
     atom               8.54140451       -4.65315270       10.84664050  N
       velocity           5.74270929         -3.30081313          4.98098740
     atom               9.97792235       -4.88064906       10.73216447  C
       velocity          -2.10738429          5.29873651         -0.12031476
     atom              10.78389913       -3.87175255       11.57687714  C
       velocity          -0.78827736          2.57810320          4.92255661
     atom              11.76543073       -4.25291273       12.23812164  O
       velocity          -0.97428867         -5.39768434          0.71687078
     atom               8.00870090       -4.42663543        9.99825251  H
       velocity           0.27531601          4.83314384         10.50720427
     atom              10.22145210       -5.85861589       11.17539478  H
       velocity         -14.31041887        -21.88290475         23.98878404
     atom              10.41166002       -4.84682962        9.26470907  C
       velocity           6.55277675          6.65582470          2.53355126
     atom              11.49167627       -5.02867461        9.19678400  H
       velocity          15.42327570          6.78401812          3.25815598
     atom              10.18928117       -3.87099121        8.81153280  H
       velocity         -14.14875543         -2.71023038        -21.70891176
     atom               9.88729097       -5.62418193        8.69340356  H
       velocity           9.98268674          7.61658990        -12.21064246
     atom              10.36689071       -2.58737509       11.54327835  N
       velocity          -5.43919800         -4.47826114          0.79029028
     atom              11.02255415       -1.56341795       12.34899756  C
       velocity          -2.82026708          0.50689520          7.40617471
     atom              10.88035548       -1.84886010       13.85833695  C
       velocity           3.64072639          2.32021138          4.60029994
     atom              11.84921996       -1.68301386       14.62031631  O
       velocity          -4.80259913         -1.43138723          0.53889202
     atom               9.60469476       -2.30665897       10.91372417  H
       velocity           0.20522746          4.82194852         35.95504649
     atom              12.10771115       -1.60560166       12.16762676  H
       velocity          32.75092790         14.71239895        -11.60855269
     atom              10.48483713       -0.17470988       11.99482123  C
       velocity          -1.78617967        -11.86395396         -3.97868566
     atom              10.99520203        0.58259857       12.60323837  H
       velocity           7.93732487         -0.55794258         17.17179583
     atom               9.40472421       -0.11143875       12.18536737  H
       velocity           3.62212988         24.92173424         -3.03461566
     atom              10.66481161        0.04539035       10.93434523  H
       velocity           6.45804390        -20.90015305        -15.57042802
     atom               9.66917408       -2.26980606       14.28247403  N
       velocity           5.29656166          2.88104354         -4.43882660
     atom               9.44537920       -2.62441727       15.67956944  C
       velocity           1.37375308         -2.22302067          1.67506685
     atom              10.31319584       -3.82644487       16.10633998  C
       velocity          -0.73035996          0.75429754          6.69242346
     atom              10.88527799       -3.82560796       17.21146282  O
       velocity          -2.95011353          2.86575438        -12.86967576
     atom               8.87583713       -2.30903249       13.62979299  H
       velocity          14.92116733         20.15830354         -9.50305769
     atom               9.79445300       -1.79873147       16.31887932  H
       velocity           1.84263234          2.86248922         13.12131144
     atom               7.96025602       -2.89395006       15.93422234  C
       velocity          -2.96633296          5.01463340         -3.22823063
     atom               7.80928128       -3.15111014       16.99030527  H
       velocity          -1.99718699         -7.84830934          2.74639503
     atom               7.59982733       -3.72538584       15.31312721  H
       velocity         -21.56383087        -25.92690180         -4.09876120
     atom               7.36494568       -2.00165129       15.70000942  H
       velocity           9.49268649        -20.24784821         20.13247576
     atom              10.40032123       -4.84883423       15.22888039  N
       velocity           3.97544689          7.04572481         -1.50721812
     atom              11.24390323       -6.00603799       15.50653785  C
       velocity          -0.46840117          2.99861367         -2.59756921
     atom              12.73015247       -5.60929555       15.61949837  C
       velocity           3.00915318          0.11037839          2.33970103
     atom              13.43905053       -6.08869070       16.52358204  O
       velocity           0.57960775          4.60248719          1.15499747
     atom               9.84242612       -4.84059153       14.36485608  H
       velocity         -26.71986702        -12.54424900        -25.10025493
     atom              10.99308973       -6.40122360       16.50319301  H
       velocity         -22.34715937         18.47854613          3.22680150
     atom              11.03696196       -7.08931130       14.44507569  C
       velocity           2.00557244         -0.97069705          0.72388005
     atom              11.67195338       -7.95451055       14.67413685  H
       velocity          -3.20848658         18.17132729        -16.98710304
     atom              11.29702585       -6.71472036       13.44566081  H
       velocity           8.66875347        -10.64113730         -6.01789718
     atom               9.98860886       -7.41509927       14.43218854  H
       velocity          18.20568848          4.44935847         -8.72742202
     atom              13.19507363       -4.74083525       14.69701602  N
       velocity          -5.16650080          3.77234053          0.68980590
     atom              14.57071473       -4.25814991       14.74519488  C
       velocity          -0.81097888          0.55774946         -3.78349482
     atom              14.84795372       -3.46018730       16.03510594  C
       velocity          -3.99191539          0.61650084         -9.10596497
     atom              15.91511525       -3.62091278       16.65511091  O
       velocity           1.03759394          6.10837446          1.13630697
     atom              12.59276840       -4.43693461       13.91980569  H
       velocity          14.35142759          5.09578602         -5.08083719
     atom              15.25134987       -5.12128469       14.80883898  H
       velocity         -18.66835483         17.36506817        -27.88615593
     atom              14.89358238       -3.42734928       13.50061025  C
       velocity          -5.18836519         -9.53703560         -3.35418502
     atom              15.93382283       -3.08152259       13.54971127  H
       velocity         -18.14999407        -21.54233177          9.32301840
     atom              14.23279950       -2.55267691       13.43017915  H
       velocity          13.54162588         26.22635542         -7.44252029
     atom              14.76583819       -4.03325735       12.59412791  H
       velocity          12.25738594         -2.42509029         -9.34836438
     atom              13.88799277       -2.59744629       16.42993652  N
       velocity           3.38285307          0.93323089          2.96627667
     atom              14.02435371       -1.84137904       17.66902351  C
       velocity           1.25682225         -8.52230341         -6.20409236
     atom              14.07162979       -2.77209288       18.89649840  C
       velocity          -0.55614305          6.36864143          2.48149309
     atom              14.87767632       -2.55052554       19.82047989  O
       velocity          -0.63762986         -2.97062102          5.46709502
     atom              13.06350624       -2.42881595       15.83683900  H
       velocity          -6.65713067         32.07988153        -28.46806964
     atom              15.00246374       -1.33573448       17.67608327  H
       velocity          16.53045622          9.74587541         13.60855790
     atom              12.89951433       -0.81094764       17.79870355  C
       velocity           4.99322135         -9.26992753          7.71827954
     atom              13.02405927       -0.24576019       18.73103224  H
       velocity          10.75056592          0.69418164        -26.21680438
     atom              11.91684527       -1.30173344       17.80999541  H
       velocity          17.06228986          3.98479257         -5.31978207
     atom              12.92735438       -0.10961010       16.95470177  H
       velocity          -2.61157988        -23.29387078          2.32054321
     atom              13.20402004       -3.80483168       18.91060287  N
       velocity           6.11352509          7.07642148         10.71938667
     atom              13.21673681       -4.77723297       19.99732346  C
       velocity          -0.33669251          1.25893850         -1.16282361
     atom              14.55408566       -5.54329979       20.05088004  C
       velocity           3.01802749          5.55825111          8.75001159
     atom              15.10158580       -5.76521075       21.15342707  O
       velocity           0.70437419          3.20072946         -0.03712879
     atom              12.49077727       -3.89672347       18.17261791  H
       velocity          -6.96440748         -0.21225118        -13.33494849
     atom              13.16849573       -4.24155661       20.95818076  H
       velocity         -12.45783311        -28.74432810         21.20442069
     atom              12.03208509       -5.73918328       19.87313897  C
       velocity          -1.92034622          1.30177858         -0.89355823
     atom              12.05243661       -6.45881155       20.70131801  H
       velocity         -10.96814436          6.27254788        -17.40080697
     atom              12.07225958       -6.28991478       18.92368774  H
       velocity          13.17309145          4.68986003        -25.29893383
     atom              11.08641001       -5.18319482       19.91196253  H
       velocity          -3.47314384        -12.97963251        -33.70216356
     atom              15.05864363       -5.95053350       18.87345209  N
       velocity          -2.68875452         -6.59928262         -1.19357725
     atom              16.33653104       -6.65143821       18.78686359  C
       velocity           1.19315854          5.58863261         -4.02344714
     atom              17.49612918       -5.76863006       19.28837124  C
       velocity           3.59561410         -3.90193112          4.85308068
     atom              18.32510784       -6.24137037       20.08886553  O
       velocity          -3.20470085          1.84084618         -1.59970386
     atom              14.51865240       -5.81122540       18.00574737  H
       velocity          12.26855649        -15.60572608         16.73819125
     atom              16.32273821       -7.50231047       19.48507218  H
       velocity         -11.46128629         16.15030433        -25.73612647
     atom              16.58478525       -7.15092107       17.36179244  C
       velocity          -3.07239382          2.61856198         -1.32762059
     atom              17.54358351       -7.68306432       17.32286950  H
       velocity          26.41522333         13.80355479         21.25259478
     atom              16.61560579       -6.31456882       16.65084971  H
       velocity         -22.13705414        -20.23366385         10.59108401
     atom              15.78639676       -7.83867894       17.05474379  H
       velocity         -28.39871167        -14.38692438        -20.93237680
     atom              17.55047465       -4.50540581       18.82419243  N
       velocity          -4.74504915         -1.14815635          1.37446970
     atom              18.56040247       -3.56504745       19.31069853  C
       velocity          -1.67423035          5.61965734         -1.33196007
     atom              18.42275234       -3.36900723       20.83056098  C
       velocity           3.46349356         -1.37866845          7.31907649
     atom              19.39509646       -3.39960890       21.59344092  O
       velocity          -2.46266057          1.24891644         -5.33963902
     atom              16.86423218       -4.17687847       18.12793759  H
       velocity           3.35480607         18.57425409          5.97180556
     atom              19.55945221       -4.00878503       19.18365786  H
       velocity           3.04421180        -22.64575483        -13.60040366
     atom              18.46719079       -2.23843096       18.55424720  C
       velocity           0.37389195         -1.80236856          5.73018779
     atom              19.23581698       -1.54941488       18.92592011  H
       velocity         -29.25905031        -21.53415679         -2.25598225
     atom              17.48059466       -1.77366530       18.68632928  H
       velocity          10.50187845         17.18895111         13.48905705
     atom              18.63135444       -2.40049629       17.48116218  H
       velocity          11.43934921         13.41722455         14.87372929
     atom              17.15707031       -3.20532049       21.31249850  N
       velocity          -3.96933884          0.39607877         -1.10321076
     atom              17.00682753       -3.17703755       22.74820149  C
       velocity          -2.21452124          1.20007372          1.24418922
     atom              17.59198347       -4.45877395       23.33459486  C
       velocity          -2.65183138         -0.21484711          1.05247603
     atom              18.41894486       -4.41831463       24.36608317  O
       velocity           1.27238424          1.01391211         -0.08139820
     atom              16.32509405       -3.09772580       20.70989308  H
       velocity         -13.06389877        -11.67562905        -14.79990878
     atom              17.61443000       -2.35239419       23.16783564  H
       velocity         -18.54894125        -28.83569895         -3.56599252
     atom              15.54313418       -2.99542749       23.16823527  C
       velocity           9.50443210         -2.11094145          2.00367591
     atom              15.45907459       -2.97777887       24.26230419  H
       velocity          20.16073535         10.70680936        -15.02435870
     atom              14.91929082       -3.80578655       22.77052531  H
       velocity           6.05814553         -8.49910544        -39.35855016
     atom              15.17231869       -2.04203562       22.77224530  H
       velocity           4.97272406        -16.16639755         -0.41441147
     atom              17.23138989       -5.63461315       22.90502659  N
       velocity          -4.39277718         -1.61671093          0.12268513
     atom              17.75998671       -6.90461987       23.44844463  C
       velocity           2.46432664          5.98850371          1.50986625
     atom              19.30850470       -7.04805036       23.33205170  C
       velocity           7.51881530         12.73145178         -2.42115374
     atom              19.91038385       -6.64040034       22.21227994  O
       velocity          -2.45340911         -4.42040129         -6.42874655
     atom              16.52297417       -5.68134322       22.13305548  H
       velocity          -9.86234973         -9.59437753         -1.18248185
     atom              17.57004600       -6.90930690       24.53046427  H
       velocity         -26.11040661        -14.58261975          2.34215314
     atom              17.05396217       -8.08631868       22.78238380  C
       velocity          -5.04402903         -0.18899912         -0.66905814
     atom              17.41942041       -9.01485204       23.23690577  H
       velocity         -14.02134649         14.87704086         11.75549561
     atom              17.26518265       -8.11312768       21.70572061  H
       velocity           5.50292913          2.11504518         -4.89300572
     atom              15.96766374       -8.02582134       22.92926027  H
       velocity          11.76054433        -13.19672301         -3.18034028
     atom              19.91572645       -7.55910664       24.25027081  O
       velocity          -0.70683358         -4.37333786         -0.25277867
     atom              19.28674413       -6.36259725       21.48696586  H
       velocity         -31.46818810        -16.64852886        -24.07542362
     atom              18.82321150       -3.52873939       24.42115558  H
       velocity           2.21706499        -38.97442035        -21.53014372
  
  -----------------------------------------------------------------------
  Completed first pass over input file geometry.in .
  -----------------------------------------------------------------------
  

  Basic array size parameters:
  | Number of species                 :        4
  | Number of atoms                   :      220
  | Max. basis fn. angular momentum   :        2
  | Max. atomic/ionic basis occupied n:        2
  | Max. number of basis fn. types    :        2
  | Max. radial fns per species/type  :        3
  | Max. logarithmic grid size        :     1301
  | Max. radial integration grid size :       36
  | Max. angular integration grid size:      302
  | Max. angular grid division number :        8
  | Radial grid for Hartree potential :     1301
  | Number of spin channels           :        1

------------------------------------------------------------
          Reading file control.in.
------------------------------------------------------------
  XC: Using PBE gradient-corrected functionals.
  Spin treatment: No spin polarisation.
  Non-relativistic treatment of kinetic energy.
  Charged system requested: Charge =   0.100000E+01.
  Occupation type: Gaussian broadening, width =   0.500000E-01 eV.
  Using pulay charge density mixing.
  Pulay mixing - number of memorized iterations:   10
  Charge density mixing - mixing parameter:     0.4000
  Number of empty states per atom:        3
  Switch 'use_hartree_non_periodic_ewald' is enabled.
  | Use Ewald's decomposition of the Hartree potential in the non-periodic case.
  | Warning: This feature is experimental!
  Running Born-Oppenheimer  molecular dynamics in NVT ensemble with  Nose-Hoover thermostat
   | simulation time =       0.010000 ps
   | at temperature  =     300.000000 K
   | thermostat effective mass =    1700.000000
  Thermostat units for molecular dynamics: cm^-1
  Molecular dynamics time step =       0.001000 ps
  Cleaning initialized velocities from rotations.
  Continuing molecular dynamics run from previous calculation
  Requested output level: MD_light            
 
  Reading configuration options for species H                   .
  | Found nuclear charge :   1.0000
  | Found atomic mass :    1.00794000000000      amu
  | Found l_max for Hartree potential  :   4
  | Found cutoff potl. onset [A], width [A], scale factor :    3.50000    1.50000    1.00000
  | Threshold for basis-dependent cutoff potential is   0.100000E-03
  | Found data for basic radial integration grid :    24 points, outermost radius =    5.000 A
  | Found multiplier for basic radial grid :   1
  | Found angular grid specification: user-specified.
  | Specified grid contains     5 separate shells.
  | Check grid settings after all constraints further below.
  | Found free-atom valence shell :  1 s   1.000
  | No ionic wave fns used. Skipping ion_occ.
  | Found hydrogenic basis function :  2 s   2.100
  | Found hydrogenic basis function :  2 p   3.500
  Species H                   : Missing cutoff potential type.
  Defaulting to exp(1/x)/(1-x)^2 type cutoff potential.
  Species H : No 'logarithmic' tag. Using default grid for free atom:
  | Default logarithmic grid data [bohr] : 0.1000E-03 0.1000E+03 0.1012E+01
  Species H : On-site basis accuracy parameter (for Gram-Schmidt orthonormalisation) not specified.
  Using default value basis_acc =  0.1000000E-03.
  Species H                   : Using default innermost maximum threshold i_radial=  2 for radial functions.
  Species H                   : Default cutoff onset for free atom density etc. : 0.35000000E+01 AA.
  Species H                   : Basic radial grid will be enhanced according to radial_multiplier =   1, to contain    24 grid points.
 
  Reading configuration options for species C                   .
  | Found nuclear charge :   6.0000
  | Found atomic mass :    12.0107000000000      amu
  | Found l_max for Hartree potential  :   4
  | Found cutoff potl. onset [A], width [A], scale factor :    3.50000    1.50000    1.00000
  | Threshold for basis-dependent cutoff potential is   0.100000E-03
  | Found data for basic radial integration grid :    34 points, outermost radius =    5.000 A
  | Found multiplier for basic radial grid :   1
  | Found angular grid specification: user-specified.
  | Specified grid contains     5 separate shells.
  | Check grid settings after all constraints further below.
  | Found free-atom valence shell :  2 s   2.000
  | Found free-atom valence shell :  2 p   2.000
  | No ionic wave fns used. Skipping ion_occ.
  | No ionic wave fns used. Skipping ion_occ.
  | Found hydrogenic basis function :  2 p   1.700
  | Found hydrogenic basis function :  3 d   6.000
  | Found hydrogenic basis function :  2 s   4.900
  Species C                   : Missing cutoff potential type.
  Defaulting to exp(1/x)/(1-x)^2 type cutoff potential.
  Species C : No 'logarithmic' tag. Using default grid for free atom:
  | Default logarithmic grid data [bohr] : 0.1000E-03 0.1000E+03 0.1012E+01
  Species C : On-site basis accuracy parameter (for Gram-Schmidt orthonormalisation) not specified.
  Using default value basis_acc =  0.1000000E-03.
  Species C                   : Using default innermost maximum threshold i_radial=  2 for radial functions.
  Species C                   : Default cutoff onset for free atom density etc. : 0.35000000E+01 AA.
  Species C                   : Basic radial grid will be enhanced according to radial_multiplier =   1, to contain    34 grid points.
 
  Reading configuration options for species N                   .
  | Found nuclear charge :   7.0000
  | Found atomic mass :    14.0067000000000      amu
  | Found l_max for Hartree potential  :   4
  | Found cutoff potl. onset [A], width [A], scale factor :    3.50000    1.50000    1.00000
  | Threshold for basis-dependent cutoff potential is   0.100000E-03
  | Found data for basic radial integration grid :    35 points, outermost radius =    5.000 A
  | Found multiplier for basic radial grid :   1
  | Found angular grid specification: user-specified.
  | Specified grid contains     5 separate shells.
  | Check grid settings after all constraints further below.
  | Found free-atom valence shell :  2 s   2.000
  | Found free-atom valence shell :  2 p   3.000
  | No ionic wave fns used. Skipping ion_occ.
  | No ionic wave fns used. Skipping ion_occ.
  | Found hydrogenic basis function :  2 p   1.800
  | Found hydrogenic basis function :  3 d   6.800
  | Found hydrogenic basis function :  3 s   5.800
  Species N                   : Missing cutoff potential type.
  Defaulting to exp(1/x)/(1-x)^2 type cutoff potential.
  Species N : No 'logarithmic' tag. Using default grid for free atom:
  | Default logarithmic grid data [bohr] : 0.1000E-03 0.1000E+03 0.1012E+01
  Species N : On-site basis accuracy parameter (for Gram-Schmidt orthonormalisation) not specified.
  Using default value basis_acc =  0.1000000E-03.
  Species N                   : Using default innermost maximum threshold i_radial=  2 for radial functions.
  Species N                   : Default cutoff onset for free atom density etc. : 0.35000000E+01 AA.
  Species N                   : Basic radial grid will be enhanced according to radial_multiplier =   1, to contain    35 grid points.
 
  Reading configuration options for species O                   .
  | Found nuclear charge :   8.0000
  | Found atomic mass :    15.9994000000000      amu
  | Found l_max for Hartree potential  :   4
  | Found cutoff potl. onset [A], width [A], scale factor :    3.50000    1.50000    1.00000
  | Threshold for basis-dependent cutoff potential is   0.100000E-03
  | Found data for basic radial integration grid :    36 points, outermost radius =    5.000 A
  | Found multiplier for basic radial grid :   1
  | Found angular grid specification: user-specified.
  | Specified grid contains     5 separate shells.
  | Check grid settings after all constraints further below.
  | Found free-atom valence shell :  2 s   2.000
  | Found free-atom valence shell :  2 p   4.000
  | No ionic wave fns used. Skipping ion_occ.
  | No ionic wave fns used. Skipping ion_occ.
  | Found hydrogenic basis function :  2 p   1.800
  | Found hydrogenic basis function :  3 d   7.600
  | Found hydrogenic basis function :  3 s   6.400
  Species O                   : Missing cutoff potential type.
  Defaulting to exp(1/x)/(1-x)^2 type cutoff potential.
  Species O : No 'logarithmic' tag. Using default grid for free atom:
  | Default logarithmic grid data [bohr] : 0.1000E-03 0.1000E+03 0.1012E+01
  Species O : On-site basis accuracy parameter (for Gram-Schmidt orthonormalisation) not specified.
  Using default value basis_acc =  0.1000000E-03.
  Species O                   : Using default innermost maximum threshold i_radial=  2 for radial functions.
  Species O                   : Default cutoff onset for free atom density etc. : 0.35000000E+01 AA.
  Species O                   : Basic radial grid will be enhanced according to radial_multiplier =   1, to contain    36 grid points.
 
  Finished reading input file 'control.in'. Consistency checks are next.
 
  Target number of points in a grid batch is not set. Defaulting to  100
  Method for grid partitioning is not set. Defaulting to parallel hash+maxmin partitioning.
  Batch size limit is not set. Defaulting to    200
  By default, will store active basis functions for each batch.
  If in need of memory, prune_basis_once .false. can be used to disable this option.
  communication_type for Hartree potential was not specified.
  Defaulting to calc_hartree .
  Pulay mixer: Number of initial linear mixing iterations not set.
  Defaulting to    0 iterations.
  Work space size for distributed Hartree potential not set.
  Defaulting to   0.200000E+03 MB.
  Algorithm-dependent basis array size parameters:
  | n_max_pulay                         :       10
 * Notice: The s.c.f. convergence criterion sc_accuracy_rho was not provided.
 * We used to stop in this case, and ask the user to provide reasonable
 * scf convergence criteria. However, this led some users to employ criteria
 * that led to extremely long run times, e.g., for simple relaxation.
 * We now preset a default value for sc_accuracy_rho if it is not set.
 * You may still wish to check if this setting is too tight or too loose for your needs.
 * Based on n_atoms, FHI-aims chose sc_accuracy_rho =  0.366667E-04 .
  Maximum number of self-consistency iterations not provided.
  Presetting  1000 iterations.
  Presetting        40 iterations before the initial mixing cycle
  is restarted anyway using the sc_init_iter criterion / keyword.
  Presetting a factor      1.000 between actual scf density residual
  and density convergence criterion sc_accuracy_rho below which sc_init_iter
  takes no effect.
 * No s.c.f. convergence criteria (sc_accuracy_*) were provided in control.in.
 * The run will proceed with a reasonable default guess, but please check whether.
 * the s.c.f. cycles seem to take too much or too little time.
  Geometry relaxation not requested: no relaxation will be performed.
  Force calculation: scf convergence accuracy of forces not set.
  Defaulting to 'sc_accuracy_forces not_checked'.
  Handling of forces: Unphysical translation and rotation will be removed from forces.
  Changed MD thermostat mass units, Q =   0.5733E+0001 amu*bohr^2
  No accuracy limit for integral partition fn. given. Defaulting to  0.1000E-14.
  No threshold value for u(r) in integrations given. Defaulting to  0.1000E-05.
  No accuracy for occupation numbers given. Defaulting to  0.1000E-07.
  No threshold value for occupation numbers given. Defaulting to  0.0000E+00.
  No accuracy for fermi level given. Defaulting to  0.1000E-19.
  Maximum # of iterations to find E_F not set. Defaulting to  200.
  Preferred method for the eigenvalue solver ('KS_method') not specified in 'control.in'.
  Calling blacs routine to test compilation state
  Since scalapack support is enabled, defaulting to 'elpa'.
  Will not use alltoall communication since running on < 1024 CPUs.
  Threshold for basis singularities not set.
  Default threshold for basis singularities:  0.1000E-04
  partition_type (choice of integration weights) for integrals was not specified.
  | Using a version of the partition function of Stratmann and coworkers ('stratmann_smoother').
  | At each grid point, the set of atoms used to build the partition table is smoothly restricted to
  | only those atoms whose free-atom density would be non-zero at that grid point.
  Partitioning for Hartree potential was not defined. Using partition_type for integrals.
  | Adjusted default value of keyword multip_moments_threshold to:       0.10000000E-11
  | This value may affect high angular momentum components of the Hartree potential in periodic systems.
  No q(lm)/r^(l+1) cutoff set for long-range Hartree potential.
  | Using default value of  0.100000E-09 .
  | Verify using the multipole_threshold keyword.
  Defaulting to new monopole extrapolation.
  Density update method: automatic selection selected.
 * Warning: with the KS-based density update method, collect_eigenvectors .false. is not possible.
 * The density matrix based density update will be used.
  Scalapack and density-matrix based density update requested:
  Switching to packed matrix format "index" by default.
------------------------------------------------------------


------------------------------------------------------------
          Reading geometry description geometry.in.
------------------------------------------------------------
 * Warning: Initial charge and total charge of the system are inconsistent.
 * Selected charge in control.in:     1.0000* Sum of initial charges in geometry.in:     0.0000
  Input structure read successfully.
  The structure contains      220 atoms,  and a total of        824.000 electrons.

  Input geometry:
  | No unit cell requested.
  | Atomic structure:
  |       Atom                x [A]            y [A]            z [A]
  |    1: Species C             -0.231413         0.183407        -0.124482
  |    2: Species C             -0.191181        -0.094453         1.358616
  |    3: Species O              0.873763        -0.298556         1.963288
  |    4: Species H              0.367850        -0.572117        -0.647516
  |    5: Species H              0.243616         1.156897        -0.308005
  |    6: Species H             -1.244054         0.199043        -0.544458
  |    7: Species N             -1.393202        -0.135098         2.010669
  |    8: Species C             -1.473994        -0.175102         3.474225
  |    9: Species C             -0.744815        -1.391977         4.065251
  |   10: Species O             -0.107206        -1.287521         5.119159
  |   11: Species H             -2.228831         0.146456         1.502232
  |   12: Species H             -0.938626         0.692556         3.893412
  |   13: Species C             -2.951021        -0.126887         3.909119
  |   14: Species C             -3.159028        -0.113665         5.426428
  |   15: Species C             -4.632463         0.034611         5.822048
  |   16: Species C             -4.841722         0.025627         7.347196
  |   17: Species N             -6.215663         0.165394         7.828775
  |   18: Species H             -3.487644        -0.984493         3.466388
  |   19: Species H             -3.394857         0.785649         3.474264
  |   20: Species H             -2.571989         0.709760         5.868154
  |   21: Species H             -2.753291        -1.039618         5.865958
  |   22: Species H             -5.223632        -0.783255         5.372086
  |   23: Species H             -5.038120         0.974547         5.406894
  |   24: Species H             -4.244852         0.836246         7.798860
  |   25: Species H             -4.435233        -0.912871         7.761898
  |   26: Species H             -6.807425        -0.583090         7.460025
  |   27: Species H             -6.624372         1.046399         7.507606
  |   28: Species N             -0.872889        -2.571958         3.401638
  |   29: Species C             -0.229425        -3.790391         3.890672
  |   30: Species C              1.312791        -3.696719         3.891005
  |   31: Species O              1.963769        -4.299697         4.752577
  |   32: Species H             -1.401674        -2.594106         2.532139
  |   33: Species H             -0.497057        -3.919130         4.949896
  |   34: Species C             -0.694718        -5.004396         3.085693
  |   35: Species H             -0.201441        -5.906910         3.466125
  |   36: Species H             -0.438032        -4.902046         2.021064
  |   37: Species H             -1.780197        -5.142646         3.182045
  |   38: Species N              1.878155        -2.986557         2.879753
  |   39: Species C              3.323412        -2.765974         2.833789
  |   40: Species C              3.806257        -1.826774         3.959226
  |   41: Species O              4.854297        -2.071738         4.571525
  |   42: Species H              1.289980        -2.343576         2.346511
  |   43: Species H              3.809160        -3.726040         3.055645
  |   44: Species C              3.754326        -2.264035         1.454213
  |   45: Species H              4.838577        -2.096128         1.446071
  |   46: Species H              3.254849        -1.319239         1.198318
  |   47: Species H              3.516473        -3.011969         0.685983
  |   48: Species N              3.023901        -0.753205         4.232473
  |   49: Species C              3.325611         0.125342         5.359889
  |   50: Species C              3.283199        -0.636203         6.704365
  |   51: Species O              4.142600        -0.419945         7.570547
  |   52: Species H              2.187298        -0.575882         3.673915
  |   53: Species H              4.369309         0.463232         5.275113
  |   54: Species C              2.383815         1.330691         5.368618
  |   55: Species H              2.624287         1.979167         6.220230
  |   56: Species H              1.335309         1.013209         5.459130
  |   57: Species H              2.502309         1.916411         4.446687
  |   58: Species N              2.272563        -1.523724         6.864629
  |   59: Species C              2.156228        -2.320841         8.082430
  |   60: Species C              3.350611        -3.284033         8.253760
  |   61: Species O              3.878419        -3.431304         9.366468
  |   62: Species H              1.532910        -1.589474         6.159962
  |   63: Species H              2.224034        -1.651743         8.953804
  |   64: Species C              0.825460        -3.076091         8.104387
  |   65: Species H              0.747060        -3.654134         9.033605
  |   66: Species H              0.750461        -3.771381         7.256474
  |   67: Species H             -0.016138        -2.371613         8.060421
  |   68: Species N              3.766856        -3.937916         7.144192
  |   69: Species C              4.923404        -4.828178         7.187793
  |   70: Species C              6.215268        -4.067782         7.557159
  |   71: Species O              7.032863        -4.571379         8.343670
  |   72: Species H              3.243512        -3.855502         6.267831
  |   73: Species H              4.789225        -5.547693         8.010022
  |   74: Species C              5.078649        -5.572225         5.859737
  |   75: Species H              5.943768        -6.244671         5.915584
  |   76: Species H              5.235763        -4.869379         5.029754
  |   77: Species H              4.182670        -6.170541         5.647842
  |   78: Species N              6.392529        -2.859645         6.975365
  |   79: Species C              7.555172        -2.036242         7.292089
  |   80: Species C              7.568621        -1.611468         8.775794
  |   81: Species O              8.630047        -1.627653         9.420315
  |   82: Species H              5.725789        -2.522005         6.273887
  |   83: Species H              8.464604        -2.646053         7.178773
  |   84: Species C              7.620604        -0.819691         6.366027
  |   85: Species H              8.503726        -0.217490         6.613765
  |   86: Species H              6.725373        -0.192155         6.475971
  |   87: Species H              7.696953        -1.139635         5.318378
  |   88: Species N              6.385687        -1.226793         9.305552
  |   89: Species C              6.276122        -0.862070        10.714156
  |   90: Species C              6.603873        -2.052717        11.639899
  |   91: Species O              7.290972        -1.880467        12.660563
  |   92: Species H              5.553532        -1.151464         8.710651
  |   93: Species H              7.050023        -0.115794        10.950954
  |   94: Species C              4.887880        -0.291885        11.014401
  |   95: Species H              4.825692        -0.016942        12.074848
  |   96: Species H              4.103897        -1.029956        10.795633
  |   97: Species H              4.703226         0.604403        10.407508
  |   98: Species N              6.101420        -3.254434        11.278816
  |   99: Species C              6.400580        -4.456483        12.049921
  |  100: Species C              7.908940        -4.783579        12.033620
  |  101: Species O              8.481049        -5.151029        13.074033
  |  102: Species H              5.473570        -3.329876        10.470517
  |  103: Species H              6.177967        -4.264740        13.110897
  |  104: Species C              5.570267        -5.638541        11.544023
  |  105: Species H              5.801680        -6.531191        12.138755
  |  106: Species H              5.791169        -5.851340        10.488976
  |  107: Species H              4.498172        -5.420952        11.639225
  |  108: Species N              8.541405        -4.653153        10.846640
  |  109: Species C              9.977922        -4.880649        10.732164
  |  110: Species C             10.783899        -3.871753        11.576877
  |  111: Species O             11.765431        -4.252913        12.238122
  |  112: Species H              8.008701        -4.426635         9.998253
  |  113: Species H             10.221452        -5.858616        11.175395
  |  114: Species C             10.411660        -4.846830         9.264709
  |  115: Species H             11.491676        -5.028675         9.196784
  |  116: Species H             10.189281        -3.870991         8.811533
  |  117: Species H              9.887291        -5.624182         8.693404
  |  118: Species N             10.366891        -2.587375        11.543278
  |  119: Species C             11.022554        -1.563418        12.348998
  |  120: Species C             10.880355        -1.848860        13.858337
  |  121: Species O             11.849220        -1.683014        14.620316
  |  122: Species H              9.604695        -2.306659        10.913724
  |  123: Species H             12.107711        -1.605602        12.167627
  |  124: Species C             10.484837        -0.174710        11.994821
  |  125: Species H             10.995202         0.582599        12.603238
  |  126: Species H              9.404724        -0.111439        12.185367
  |  127: Species H             10.664812         0.045390        10.934345
  |  128: Species N              9.669174        -2.269806        14.282474
  |  129: Species C              9.445379        -2.624417        15.679569
  |  130: Species C             10.313196        -3.826445        16.106340
  |  131: Species O             10.885278        -3.825608        17.211463
  |  132: Species H              8.875837        -2.309032        13.629793
  |  133: Species H              9.794453        -1.798731        16.318879
  |  134: Species C              7.960256        -2.893950        15.934222
  |  135: Species H              7.809281        -3.151110        16.990305
  |  136: Species H              7.599827        -3.725386        15.313127
  |  137: Species H              7.364946        -2.001651        15.700009
  |  138: Species N             10.400321        -4.848834        15.228880
  |  139: Species C             11.243903        -6.006038        15.506538
  |  140: Species C             12.730152        -5.609296        15.619498
  |  141: Species O             13.439051        -6.088691        16.523582
  |  142: Species H              9.842426        -4.840592        14.364856
  |  143: Species H             10.993090        -6.401224        16.503193
  |  144: Species C             11.036962        -7.089311        14.445076
  |  145: Species H             11.671953        -7.954511        14.674137
  |  146: Species H             11.297026        -6.714720        13.445661
  |  147: Species H              9.988609        -7.415099        14.432189
  |  148: Species N             13.195074        -4.740835        14.697016
  |  149: Species C             14.570715        -4.258150        14.745195
  |  150: Species C             14.847954        -3.460187        16.035106
  |  151: Species O             15.915115        -3.620913        16.655111
  |  152: Species H             12.592768        -4.436935        13.919806
  |  153: Species H             15.251350        -5.121285        14.808839
  |  154: Species C             14.893582        -3.427349        13.500610
  |  155: Species H             15.933823        -3.081523        13.549711
  |  156: Species H             14.232800        -2.552677        13.430179
  |  157: Species H             14.765838        -4.033257        12.594128
  |  158: Species N             13.887993        -2.597446        16.429937
  |  159: Species C             14.024354        -1.841379        17.669024
  |  160: Species C             14.071630        -2.772093        18.896498
  |  161: Species O             14.877676        -2.550526        19.820480
  |  162: Species H             13.063506        -2.428816        15.836839
  |  163: Species H             15.002464        -1.335734        17.676083
  |  164: Species C             12.899514        -0.810948        17.798704
  |  165: Species H             13.024059        -0.245760        18.731032
  |  166: Species H             11.916845        -1.301733        17.809995
  |  167: Species H             12.927354        -0.109610        16.954702
  |  168: Species N             13.204020        -3.804832        18.910603
  |  169: Species C             13.216737        -4.777233        19.997323
  |  170: Species C             14.554086        -5.543300        20.050880
  |  171: Species O             15.101586        -5.765211        21.153427
  |  172: Species H             12.490777        -3.896723        18.172618
  |  173: Species H             13.168496        -4.241557        20.958181
  |  174: Species C             12.032085        -5.739183        19.873139
  |  175: Species H             12.052437        -6.458812        20.701318
  |  176: Species H             12.072260        -6.289915        18.923688
  |  177: Species H             11.086410        -5.183195        19.911963
  |  178: Species N             15.058644        -5.950533        18.873452
  |  179: Species C             16.336531        -6.651438        18.786864
  |  180: Species C             17.496129        -5.768630        19.288371
  |  181: Species O             18.325108        -6.241370        20.088866
  |  182: Species H             14.518652        -5.811225        18.005747
  |  183: Species H             16.322738        -7.502310        19.485072
  |  184: Species C             16.584785        -7.150921        17.361792
  |  185: Species H             17.543584        -7.683064        17.322869
  |  186: Species H             16.615606        -6.314569        16.650850
  |  187: Species H             15.786397        -7.838679        17.054744
  |  188: Species N             17.550475        -4.505406        18.824192
  |  189: Species C             18.560402        -3.565047        19.310699
  |  190: Species C             18.422752        -3.369007        20.830561
  |  191: Species O             19.395096        -3.399609        21.593441
  |  192: Species H             16.864232        -4.176878        18.127938
  |  193: Species H             19.559452        -4.008785        19.183658
  |  194: Species C             18.467191        -2.238431        18.554247
  |  195: Species H             19.235817        -1.549415        18.925920
  |  196: Species H             17.480595        -1.773665        18.686329
  |  197: Species H             18.631354        -2.400496        17.481162
  |  198: Species N             17.157070        -3.205320        21.312499
  |  199: Species C             17.006828        -3.177038        22.748201
  |  200: Species C             17.591983        -4.458774        23.334595
  |  201: Species O             18.418945        -4.418315        24.366083
  |  202: Species H             16.325094        -3.097726        20.709893
  |  203: Species H             17.614430        -2.352394        23.167836
  |  204: Species C             15.543134        -2.995427        23.168235
  |  205: Species H             15.459075        -2.977779        24.262304
  |  206: Species H             14.919291        -3.805787        22.770525
  |  207: Species H             15.172319        -2.042036        22.772245
  |  208: Species N             17.231390        -5.634613        22.905027
  |  209: Species C             17.759987        -6.904620        23.448445
  |  210: Species C             19.308505        -7.048050        23.332052
  |  211: Species O             19.910384        -6.640400        22.212280
  |  212: Species H             16.522974        -5.681343        22.133055
  |  213: Species H             17.570046        -6.909307        24.530464
  |  214: Species C             17.053962        -8.086319        22.782384
[...]
     velocity          -2.92811236        -10.55999802         -5.38619959
   atom              11.01331634        0.43810470       12.52332199  H
     velocity          22.79615761          2.84021966        -20.09946385
   atom               9.42374967        0.00163649       12.12729325  H
     velocity           3.32026862        -12.82461967        -13.99180499
   atom              10.72091149       -0.15279313       10.91984272  H
     velocity          10.30671832        -21.80481170         -9.46102190
   atom               9.71371962       -2.24285263       14.25628401  N
     velocity           2.72543309          3.33600440         -0.54433981
   atom               9.44229727       -2.63046255       15.68371649  C
     velocity          -5.08540107          0.97375220         -3.98758327
   atom              10.26247365       -3.81833129       16.07749465  C
     velocity         -12.29090230          1.80871784        -17.12110162
   atom              10.89169235       -3.79250605       17.14182912  O
     velocity           6.00591558          5.50952338         -2.04700532
   atom               8.94150454       -2.14568657       13.58442926  H
     velocity           1.92709945         13.99689965         11.42587943
   atom               9.76346453       -1.84316190       16.34219159  H
     velocity          -4.04097287          1.61066585          1.18724920
   atom               7.93383589       -2.89323692       15.90975846  C
     velocity          -4.61904094          3.23310221         -1.10241057
   atom               7.82873657       -3.18864614       16.94836616  H
     velocity           6.16242895         -1.30094974          3.71705480
   atom               7.52403615       -3.67637835       15.36827337  H
     velocity         -15.88137229         -1.94722876        -24.02404718
   atom               7.28071837       -1.92934915       15.78183914  H
     velocity           7.47325284        -14.92271861          5.30867739
   atom              10.42964866       -4.78182492       15.17182032  N
     velocity           7.15904807          8.96181087         -9.79625370
   atom              11.23410859       -5.96793701       15.48884679  C
     velocity          -1.99360090          7.13125399         -2.16790862
   atom              12.73553257       -5.59655997       15.62888748  C
     velocity          -3.47034133          4.45781746         -0.62316556
   atom              13.45478598       -6.03942876       16.54471186  O
     velocity           3.69742299          7.92919452          4.42952421
   atom               9.76328221       -4.87933027       14.44911000  H
     velocity         -44.87089212          2.33004762        -22.96392608
   atom              10.87991669       -6.28051155       16.46793335  H
     velocity           0.61781811          0.58919437         -3.80441128
   atom              11.06800496       -7.07785279       14.43641115  C
     velocity           5.50752931          0.07269497         -2.61983189
   atom              11.75881536       -7.97442946       14.64619139  H
     velocity          -4.65799577         11.59406170         10.59201802
   atom              11.36011129       -6.74329057       13.43735106  H
     velocity           7.43552535         12.42683042         -1.46975355
   atom               9.99239116       -7.44402027       14.36297164  H
     velocity          16.51891998         -2.51606914         -4.18932168
   atom              13.15163054       -4.69729166       14.70954811  N
     velocity          -5.91742456          7.51209003          1.76038711
   atom              14.52791012       -4.24678000       14.69634365  C
     velocity          -8.78789874         -2.31911271         -8.79797960
   atom              14.85259793       -3.44978386       15.97252809  C
     velocity           7.59708544          2.82213580         -4.28846669
   atom              15.90180833       -3.55307910       16.64610159  O
     velocity          -5.64780430         10.79263068         -4.96636295
   atom              12.58854834       -4.43351719       13.87101242  H
     velocity         -15.91406177        -13.30473733          9.98770881
   atom              15.24494399       -5.16358218       14.64748153  H
     velocity         -13.46513915          9.84576429          0.61265895
   atom              14.83638957       -3.49895407       13.45024595  C
     velocity          -2.63395128         -8.33731394        -10.21323547
   atom              15.94525325       -3.26955466       13.61294532  H
     velocity          -7.51603906        -33.96445154         -4.78575560
   atom              14.41249526       -2.53667713       13.33983319  H
     velocity           5.39173463          3.57361146        -19.72005578
   atom              14.80016952       -4.07649957       12.52150069  H
     velocity         -11.59181521        -10.83808255         -5.44791879
   atom              13.89314062       -2.59111216       16.41778996  N
     velocity           1.13096989         -1.83581691         -5.13777741
   atom              14.07153260       -1.90433528       17.64265778  C
     velocity           9.07524773         -7.21345377          3.27437644
   atom              14.08469140       -2.72019152       18.93579734  C
     velocity           5.62641471          4.28376687          8.63473058
   atom              14.87409724       -2.57275251       19.88188823  O
     velocity           0.36956800         -1.32820127         10.29070973
   atom              13.25388898       -2.18580571       15.77923695  H
     velocity           0.14777371         43.58463279        -27.09800749
   atom              14.97993303       -1.38387095       17.72026782  H
     velocity          18.39833437         -3.20702707         -9.95545047
   atom              12.96038011       -0.91093138       17.84735419  C
     velocity           7.58235805        -13.01662523          4.69725670
   atom              13.16124467       -0.18313352       18.71024773  H
     velocity          15.46869592        -19.00922544        -11.28555170
   atom              11.92363821       -1.38371993       17.88550698  H
     velocity          17.73103415        -12.95453386         34.84567163
   atom              12.93082933       -0.29168778       16.91744727  H
     velocity           2.91286275        -25.13875513         -0.58874763
   atom              13.23314464       -3.73417226       19.00835453  N
     velocity           1.79921359         10.66719786         16.96591714
   atom              13.20914326       -4.76658001       20.02168106  C
     velocity          -1.85497462          0.64579523          9.00635219
   atom              14.57251206       -5.49582991       20.08101834  C
     velocity           0.96078995          4.54898065         -4.18948756
   atom              15.12322033       -5.72915177       21.17857663  O
     velocity           5.35011235          6.45178819          7.37279268
   atom              12.60469000       -3.86902346       18.24580623  H
     velocity         -10.30404145         -0.50246155        -18.05316572
   atom              13.07236610       -4.41994146       21.03917463  H
     velocity          -8.21947311          4.03555203          4.00411782
   atom              12.01920237       -5.72996324       19.80229790  C
     velocity          -2.19390673          0.82183105        -15.57020631
   atom              11.93908813       -6.49443984       20.63115758  H
     velocity         -16.18112387          9.16249362        -24.63306767
   atom              12.20859904       -6.22617253       18.88532389  H
     velocity          24.52041904        -15.52186659        -14.87092093
   atom              11.04291168       -5.22390026       19.63683658  H
     velocity           8.42702946          2.70163455        -25.48133163
   atom              15.03033893       -6.00827898       18.89784450  N
     velocity          -7.54223947         -5.72799643          5.14058601
   atom              16.33263938       -6.59909561       18.74000580  C
     velocity          -3.97026205          1.99024053         -4.41372829
   atom              17.48674604       -5.77227022       19.29138677  C
     velocity          -7.62405111          4.46432221         -5.65734554
   atom              18.31765300       -6.23787619       20.09826560  O
     velocity           1.78831240         -1.32708829          4.33656255
   atom              14.46875247       -5.88654403       17.99853415  H
     velocity          -0.33091622         -5.30555226         29.36217393
   atom              16.29415341       -7.54447798       19.41365727  H
     velocity          15.83185016          6.95633004        -12.08351715
   atom              16.54748918       -7.15292773       17.34756586  C
     velocity          -5.12840931          6.60073556         -4.16510004
   atom              17.54021304       -7.49649755       17.38902639  H
     velocity           6.36554812         11.33937626        -18.85439416
   atom              16.47384705       -6.29227131       16.57258557  H
     velocity          -5.36506450        -11.21887500          3.16845860
   atom              15.85619419       -7.85149780       17.05503363  H
     velocity           3.56301499        -39.62514658          9.88552345
   atom              17.50738341       -4.50369195       18.84928322  N
     velocity          -6.03566365          3.03455692          5.15158485
   atom              18.54667228       -3.54988654       19.30887811  C
     velocity          -5.49465990         -3.86896508          2.72303537
   atom              18.40262090       -3.37989991       20.84863004  C
     velocity         -10.11471780         -1.17505993         -6.03609071
   atom              19.40496175       -3.38614726       21.56900888  O
     velocity           5.80994517          2.22703639          0.53038143
   atom              16.82030717       -4.13973317       18.17442939  H
     velocity         -15.49751904        -21.07188974          7.04202734
   atom              19.45794478       -4.05007556       19.11750118  H
     velocity           7.28755531          5.05450410         -2.32231864
   atom              18.45450965       -2.24796383       18.61213093  C
     velocity           1.70309671          6.09534563          9.31913251
   atom              19.29081079       -1.53617982       19.08319001  H
     velocity          -3.65262343        -21.85885505         15.72391126
   atom              17.52633698       -1.68586090       18.78414797  H
     velocity          -3.26322060         -2.23435938          8.11128905
   atom              18.69985379       -2.29485940       17.52134247  H
     velocity          -2.51908101         12.88566499         13.91264803
   atom              17.12104519       -3.20225438       21.30144795  N
     velocity          -1.52405799         -0.01561458          0.64886416
   atom              16.99327475       -3.19134790       22.74036671  C
     velocity           5.17522610         -1.25683100         -2.21209371
   atom              17.55604220       -4.47123974       23.33874622  C
     velocity          -5.96912376         -2.90730260         -0.31117591
   atom              18.42254391       -4.42833257       24.35768326  O
     velocity           2.18268215          0.90416254         -2.88172578
   atom              16.31933301       -3.21194385       20.68319126  H
     velocity         -13.57774187        -13.06967584         -6.77132957
   atom              17.66006706       -2.32114214       23.22636368  H
     velocity          -1.33232273         -6.70067037        -11.46271514
   atom              15.61815690       -3.03270320       23.15961068  C
     velocity           7.48339983         -1.98289812         -0.78263989
   atom              15.54403386       -2.98350491       24.28610840  H
     velocity          -5.42111494        -22.54937271        -14.72012388
   atom              15.06225315       -3.77081918       22.65879083  H
     velocity          -4.13375001        -20.52506358          8.01089526
   atom              15.22968323       -2.06820309       22.74221991  H
     velocity          18.58244248         -3.81544496          4.34223806
   atom              17.18226560       -5.64218894       22.91261756  N
     velocity          -7.40093688          0.56373133          3.23974359
   atom              17.76689818       -6.85547359       23.46420459  C
     velocity          -1.98098903          4.94244752          0.44745327
   atom              19.37366762       -6.94500766       23.33927842  C
     velocity           6.14967049          9.60313523          5.42114260
   atom              19.87176931       -6.68344668       22.11735105  O
     velocity          -4.34957625         -7.42459155        -14.64237004
   atom              16.45463455       -5.72569466       22.17513958  H
     velocity         -15.31653511          1.62285011          3.44090658
   atom              17.45723017       -6.96299596       24.49302465  H
     velocity           8.16115985          9.27937195          4.96316203
   atom              17.02866106       -8.07464698       22.77120789  C
     velocity          -2.32315940          2.25516292          0.95298927
   atom              17.36682342       -8.98042324       23.33843117  H
     velocity          -3.79473652          9.24383860         -2.47080203
   atom              17.28811033       -8.16381360       21.71920797  H
     velocity           0.93375071        -19.18695027         -3.75668510
   atom              15.89457694       -8.04062884       22.89890840  H
     velocity           7.93530017         17.29481437        -10.27708189
   atom              19.90566394       -7.59090726       24.22881172  O
     velocity          -1.43266559         -2.02694957         -6.59108967
   atom              19.19364807       -6.57163858       21.44818851  H
     velocity         -31.61007733        -18.28798644        -28.59421501
   atom              18.99731668       -3.62752275       24.22853165  H
     velocity          -4.83086708        -60.69342732        -25.39075874
------------------------------------------------------------

------------------------------------------------------------------------------
  Final output of selected total energy values:

  The following output summarizes some interesting total energy values
  at the end of a run (AFTER all relaxation, molecular dynamics, etc.).

  | Total energy of the DFT / Hartree-Fock s.c.f. calculation      :        -145452.992251576 eV
  | Final zero-broadening corrected energy (caution - metals only) :        -145452.992251576 eV
  | For reference only, the value of 1 Hartree used in FHI-aims is :             27.211384500 eV

  Before relying on these values, please be sure to understand exactly which
  total energy value is referred to by a given number. Different objects may
  all carry the same name 'total energy'. Definitions:

  Total energy of the DFT / Hartree-Fock s.c.f. calculation:
  | Note that this energy does not include ANY quantities calculated after the
  | s.c.f. cycle, in particular not ANY RPA, MP2, etc. many-body perturbation terms.

  Final zero-broadening corrected energy:
  | For metallic systems only, a broadening of the occupation numbers at the Fermi
  | level can be extrapolated back to zero broadening by an electron-gas inspired
  | formula. For all systems that are not real metals, this value can be
  | meaningless and should be avoided.

------------------------------------------------------------------------------
  Methods described in the following list of references were used in this FHI-aims run.
  If you publish the results, please make sure to cite these reference if they apply.
  FHI-aims is an academic code, and for our developers (often, Ph.D. students
  and postdocs), scientific credit in the community is essential.
  Thank you for helping us!

  For any use of FHI-aims, please cite:

    Volker Blum, Ralf Gehrke, Felix Hanke, Paula Havu, Ville Havu,
    Xinguo Ren, Karsten Reuter, and Matthias Scheffler
    'Ab initio molecular simulations with numeric atom-centered orbitals'
    Computer Physics Communications 180, 2175-2196 (2009)
    http://dx.doi.org/10.1016/j.cpc.2009.06.022


  The scalable eigensolver library ELPA was used in your run.
  ELPA is essential especially for large systems on hundreds or thousands of CPUs.
  For ELPA, please cite:

    Andreas Marek, Volker Blum, Rainer Johanni, Ville Havu, Bruno Lang,
    Thomas Auckenthaler, Alexander Heinecke, Hans-Joachim Bungartz, and Hermann Lederer,
    'The ELPA Library - Scalable Parallel Eigenvalue Solutions
    for Electronic Structure Theory and Computational Science'
    The Journal of Physics: Condensed Matter 26, 213201 (2014).
    http://dx.doi.org/10.1088/0953-8984/26/21/213201


  For ELPA's efficient two-stage tridiagonalization used in your run, please cite:

    T. Auckenthaler, V. Blum, H.-J. Bungartz, T. Huckle, R. Johanni, L. Kraemer,
    B. Lang, H. Lederer, and P. R. Willems,
    'Parallel solution of partial symmetric eigenvalue problems'
    'from  electronic structure calculations'
    Parallel Computing 37, 783-794 (2011).
    http://dx.doi.org/10.1016/j.parco.2011.05.002


  For the real-space grid partitioning and parallelization used in this calculation, please cite:

    Ville Havu, Volker Blum, Paula Havu, and Matthias Scheffler,
    'Efficient O(N) integration for all-electron electronic structure calculation'
    'using numerically tabulated basis functions'
    Journal of Computational Physics 228, 8367-8379 (2009).
    http://dx.doi.org/10.1016/j.jcp.2009.08.008

  Of course, there are many other important community references, e.g., those cited in the
  above references. Our list is limited to references that describe implementations in the
  FHI-aims code. The reason is purely practical (length of this list) - please credit others as well.

------------------------------------------------------------
          Leaving FHI-aims.
          Date     :  20170101, Time     :  123622.113

          Computational steps:
          | Number of self-consistency cycles          :          112
          | Number of molecular dynamics steps         :           10
          | Number of force evaluations                :           10

          Detailed time accounting                     :  max(cpu_time)    wall_clock(cpu1)
          | Total time                                 :     1305.486 s        1304.480 s
          | Preparation time                           :        0.269 s           0.270 s
          | Boundary condition initalization           :        0.240 s           0.150 s
          | Grid partitioning                          :       13.742 s          13.723 s
          | Preloading free-atom quantities on grid    :       22.489 s          22.464 s
          | Free-atom superposition energy             :        3.123 s           3.116 s
          | Total time for integrations                :      240.163 s         239.904 s
          | Total time for solution of K.-S. equations :       46.539 s          46.439 s
          | Total time for EV reorthonormalization     :        0.797 s           0.790 s
          | Total time for density & force components  :      637.808 s         637.193 s
          | Total time for mixing                      :        3.075 s           3.071 s
          | Total time for Hartree multipole update    :        1.943 s           1.871 s
          | Total time for Hartree multipole sum       :      311.335 s         311.019 s
          | Total time for total energy evaluation     :        0.072 s           0.033 s
          | Total time for vdW correction              :       20.567 s          20.552 s

          Have a nice day.
------------------------------------------------------------
