  MPI-parallelism will be employed.
------------------------------------------------------------
          Invoking FHI-aims ...
          Version 180101-
          Git rev. (modified): fa29f3a Merge branch master of fhiaims.rzberlin.mp[...]
          Compiled on 2018/01/19 at 14:47:46 on host theobook132.

          When using FHI-aims, please cite the following reference:

          Volker Blum, Ralf Gehrke, Felix Hanke, Paula Havu,
          Ville Havu, Xinguo Ren, Karsten Reuter, and Matthias Scheffler,
          'Ab Initio Molecular Simulations with Numeric Atom-Centered Orbitals',
          Computer Physics Communications 180, 2175-2196 (2009)

          For any questions about FHI-aims, please visit the aimsclub website
          with its forums and wiki. Contributions to both the forums and the
          wiki are warmly encouraged - they are for you, and everyone is welcome there.

------------------------------------------------------------



  Date     :  20180216, Time     :  134452.684
  Time zero on CPU 1             :   0.520000000000000E-01  s.
  Internal wall clock time zero  :           288020692.684  s.

  FHI-aims created a unique identifier for this run for later identification
  aims_uuid : A31EB600-24FD-4779-A01C-15340785D504

  Using        8 parallel tasks.
  Task        0 on host theobook132 reporting.
  Task        1 on host theobook132 reporting.
  Task        2 on host theobook132 reporting.
  Task        3 on host theobook132 reporting.
  Task        4 on host theobook132 reporting.
  Task        5 on host theobook132 reporting.
  Task        6 on host theobook132 reporting.
  Task        7 on host theobook132 reporting.

  Performing system and environment tests:
  *** Environment variable OMP_NUM_THREADS is not set
  *** For performance reasons you might want to set it to 1
  | Stacksize not measured: no C compiler
  | Checking for scalapack...
  | No scalapack compiled in.

  Obtaining array dimensions for all initial allocations:
  
  -----------------------------------------------------------------------
  Parsing control.in (first pass over file, find array dimensions only).
  The contents of control.in will be repeated verbatim below
  unless switched off by setting 'verbatim_writeout .false.' .
  in the first line of control.in .
  -----------------------------------------------------------------------
  
  #########################################################################################
  #
  #  Volker Blum, FHI 2008 : Test run input file control.in for simple H2O
  #
  #########################################################################################
  #
  #  Physical model
  #
    xc                 pbe
    vdw_correction_hirshfeld
    spin               none
    relativistic       none
    charge             0.0
  #
  #  SCF convergence
  #
    occupation_type    gaussian 0.01
    mixer              pulay
      n_max_pulay        10
      charge_mix_param   0.5
    sc_accuracy_rho    1E-5
    sc_accuracy_eev    1E-3
    sc_accuracy_etot   1E-6
    sc_iter_limit      60
  #
  #  Eigenvalue solution
  #
   # KS_method	     scalapack_fast
   #   empty_states       3
   #   basis_threshold    1.e-5
  #
  #  Efficiency
  #
  #   communication_type shmem
  #
  #  Relaxation
  #
  #
   # init_hess          Lindh
  # create a better hesse matrix by lindhh-script.
  #  relax_geometry     trm 5.e-3
  # relax_geometry     trm 1.e-2
  #
  #  relax_geometry   bfgs 1.e-2
  #
  # Check below which parameters used!
  compute_forces .true.
  final_forces_cleaned .true.
  ################################################################################
  #
  #  FHI-aims code project
  #  VB, Fritz-Haber Institut, 2009
  #
  #  Suggested "light" defaults for H atom (to be pasted into control.in file)
  #  Be sure to double-check any results obtained with these settings for post-processing,
  #  e.g., with the "tight" defaults and larger basis sets.
  #
  ################################################################################
    species        H
  #     global species definitions
      nucleus             1
      mass                1.00794
  #
      l_hartree           4
  #
      cut_pot             3.5  1.5  1.0
      basis_dep_cutoff    1e-4
  #
      radial_base         24 5.0
      radial_multiplier   1
      angular_grids       specified
        division   0.2421   50
        division   0.3822  110
        division   0.4799  194
        division   0.5341  302
  #      division   0.5626  434
  #      division   0.5922  590
  #      division   0.6542  770
  #      division   0.6868 1202
  #      outer_grid  770
        outer_grid  302
  ################################################################################
  #
  #  Definition of "minimal" basis
  #
  ################################################################################
  #     valence basis states
      valence      1  s   1.
  #     ion occupancy
      ion_occ      1  s   0.5
  ################################################################################
  #
  #  Suggested additional basis functions. For production calculations,
  #  uncomment them one after another (the most important basis functions are
  #  listed first).
  #
  #  Basis constructed for dimers: 0.5 A, 0.7 A, 1.0 A, 1.5 A, 2.5 A
  #
  ################################################################################
  #  "First tier" - improvements: -1014.90 meV to -62.69 meV
       hydro 2 s 2.1
       hydro 2 p 3.5
  #  "Second tier" - improvements: -12.89 meV to -1.83 meV
  #     hydro 1 s 0.85
  #     hydro 2 p 3.7
  #     hydro 2 s 1.2
  #     hydro 3 d 7
  #  "Third tier" - improvements: -0.25 meV to -0.12 meV
  #     hydro 4 f 11.2
  #     hydro 3 p 4.8
  #     hydro 4 d 9
  #     hydro 3 s 3.2
  ################################################################################
  #
  #  FHI-aims code project
  #  VB, Fritz-Haber Institut, 2009
  #
  #  Suggested "light" defaults for C atom (to be pasted into control.in file)
  #  Be sure to double-check any results obtained with these settings for post-processing,
  #  e.g., with the "tight" defaults and larger basis sets.
  #
  ################################################################################
    species        C
  #     global species definitions
      nucleus             6
      mass                12.0107
  #
      l_hartree           4
  #
      cut_pot             3.5  1.5  1.0
      basis_dep_cutoff    1e-4
  #
      radial_base         34 5.0
      radial_multiplier   1
      angular_grids specified
        division   0.3326   50
        division   0.5710  110
        division   0.7727  194
        division   0.8772  302
  #      division   0.9334  434
  #      division   0.9625  590
  #      division   0.9924  770
  #      division   1.0230  974
  #      division   1.4589 1202
  #     outer_grid  974
       outer_grid 302
  ################################################################################
  #
  #  Definition of "minimal" basis
  #
  ################################################################################
  #     valence basis states
      valence      2  s   2.
      valence      2  p   2.
  #     ion occupancy
      ion_occ      2  s   1.
      ion_occ      2  p   1.
  ################################################################################
  #
  #  Suggested additional basis functions. For production calculations,
  #  uncomment them one after another (the most important basis functions are
  #  listed first).
  #
  #  Constructed for dimers: 1.0 A, 1.25 A, 1.5 A, 2.0 A, 3.0 A
  #
  ################################################################################
  #  "First tier" - improvements: -1214.57 meV to -155.61 meV
       hydro 2 p 1.7
       hydro 3 d 6
       hydro 2 s 4.9
  #  "Second tier" - improvements: -67.75 meV to -5.23 meV
  #     hydro 4 f 9.8
  #     hydro 3 p 5.2
  #     hydro 3 s 4.3
  #     hydro 5 g 14.4
  #     hydro 3 d 6.2
  #  "Third tier" - improvements: -2.43 meV to -0.60 meV
  #     hydro 2 p 5.6
  #     hydro 2 s 1.4
  #     hydro 3 d 4.9
  #     hydro 4 f 11.2
  #  "Fourth tier" - improvements: -0.39 meV to -0.18 meV
  #     hydro 2 p 2.1
  #     hydro 5 g 16.4
  #     hydro 4 d 13.2
  #     hydro 3 s 13.6
  #     hydro 4 f 17.6
  #  Further basis functions - improvements: -0.08 meV and below
  #     hydro 3 s 2
  #     hydro 3 p 6
  #     hydro 4 d 20
  ################################################################################
  #
  #  FHI-aims code project
  #  VB, Fritz-Haber Institut, 2009
  #
  #  Suggested "light" defaults for N atom (to be pasted into control.in file)
  #  Be sure to double-check any results obtained with these settings for post-processing,
  #  e.g., with the "tight" defaults and larger basis sets.
  #
  ################################################################################
    species        N
  #     global species definitions
      nucleus             7
      mass                14.0067
  #
      l_hartree           4
  #
      cut_pot             3.5  1.5  1.0
      basis_dep_cutoff    1e-4
  #
      radial_base         35 5.0
      radial_multiplier   1
      angular_grids       specified
        division   0.2599   50
        division   0.4601  110
        division   0.5885  194
        division   0.6503  302
  #      division   0.6939  434
  #      division   0.7396  590
  #      division   0.7632  770
  #      division   0.8122  974
  #      division   1.1604 1202
  #      outer_grid  974
        outer_grid  302
  ################################################################################
  #
  #  Definition of "minimal" basis
  #
  ################################################################################
  #     valence basis states
      valence      2  s   2.
      valence      2  p   3.
  #     ion occupancy
      ion_occ      2  s   1.
      ion_occ      2  p   2.
  ################################################################################
  #
  #  Suggested additional basis functions. For production calculations,
  #  uncomment them one after another (the most important basis functions are
  #  listed first).
  #
  #  Constructed for dimers: 1.0 A, 1.1 A, 1.5 A, 2.0 A, 3.0 A
  #
  ################################################################################
  #  "First tier" - improvements: -1193.42 meV to -220.60 meV
       hydro 2 p 1.8
       hydro 3 d 6.8
       hydro 3 s 5.8
  #  "Second tier" - improvements: -80.21 meV to -6.86 meV
  #     hydro 4 f 10.8
  #     hydro 3 p 5.8
  #     hydro 1 s 0.8
  #     hydro 5 g 16
  #     hydro 3 d 4.9
  #  "Third tier" - improvements: -4.29 meV to -0.53 meV
  #     hydro 3 s 16
  #     ionic 2 p auto
  #     hydro 3 d 6.6
  #     hydro 4 f 11.6
  #  "Fourth tier" - improvements: -0.75 meV to -0.25 meV
  #     hydro 2 p 4.5
  #     hydro 2 s 2.4
  #     hydro 5 g 14.4
  #     hydro 4 d 14.4
  #     hydro 4 f 16.8
  # Further basis functions - -0.21 meV and below
  #     hydro 3 p 14.8
  #     hydro 3 s 4.4
  #     hydro 3 d 19.6
  #     hydro 5 g 12.8
  ################################################################################
  #
  #  FHI-aims code project
  #  VB, Fritz-Haber Institut, 2009
  #
  #  Suggested "light" defaults for O atom (to be pasted into control.in file)
  #  Be sure to double-check any results obtained with these settings for post-processing,
  #  e.g., with the "tight" defaults and larger basis sets.
  #
  ################################################################################
    species        O
  #     global species definitions
      nucleus             8
      mass                15.9994
  #
      l_hartree           4
  #
      cut_pot             3.5  1.5  1.0
      basis_dep_cutoff    1e-4
  #
      radial_base         36 5.0
      radial_multiplier   1
       angular_grids specified
        division   0.2659   50
        division   0.4451  110
        division   0.6052  194
        division   0.7543  302
  #      division   0.8014  434
  #      division   0.8507  590
  #      division   0.8762  770
  #      division   0.9023  974
  #      division   1.2339 1202
  #      outer_grid 974
        outer_grid 302
  ################################################################################
  #
  #  Definition of "minimal" basis
  #
  ################################################################################
  #     valence basis states
      valence      2  s   2.
      valence      2  p   4.
  #     ion occupancy
      ion_occ      2  s   1.
      ion_occ      2  p   3.
  ################################################################################
  #
  #  Suggested additional basis functions. For production calculations,
  #  uncomment them one after another (the most important basis functions are
  #  listed first).
  #
  #  Constructed for dimers: 1.0 A, 1.208 A, 1.5 A, 2.0 A, 3.0 A
  #
  ################################################################################
  #  "First tier" - improvements: -699.05 meV to -159.38 meV
       hydro 2 p 1.8
       hydro 3 d 7.6
       hydro 3 s 6.4
  #  "Second tier" - improvements: -49.91 meV to -5.39 meV
  #     hydro 4 f 11.6
  #     hydro 3 p 6.2
  #     hydro 3 d 5.6
  #     hydro 5 g 17.6
  #     hydro 1 s 0.75
  #  "Third tier" - improvements: -2.83 meV to -0.50 meV
  #     ionic 2 p auto
  #     hydro 4 f 10.8
  #     hydro 4 d 4.7
  #     hydro 2 s 6.8
  #  "Fourth tier" - improvements: -0.40 meV to -0.12 meV
  #     hydro 3 p 5
  #     hydro 3 s 3.3
  #     hydro 5 g 15.6
  #     hydro 4 f 17.6
  #     hydro 4 d 14
  # Further basis functions - -0.08 meV and below
  #     hydro 3 s 2.1
  #     hydro 4 d 11.6
  #     hydro 3 p 16
  #     hydro 2 s 17.2
  ################################################################################
  #
  #  FHI-aims code project
  #  VB, Fritz-Haber Institut, 2009
  #
  #  Suggested "light" defaults for Na atom (to be pasted into control.in file)
  #  Be sure to double-check any results obtained with these settings for post-processing,
  #  e.g., with the "tight" defaults and larger basis sets.
  #
  ################################################################################
    species        Na
  #     global species definitions
      nucleus             11
      mass                22.98976928
  #
      l_hartree           4
  #
      cut_pot             4.0          1.5  1.0
      basis_dep_cutoff    1e-4
  #
      radial_base         40 5.5
      radial_multiplier   1
      angular_grids       specified
        division   0.5925  110
        division   0.7843  194
        division   1.0201  302
  #      division   1.1879  434
  #      division   1.3799  590
  #      division   1.4503  770
  #      division   7.0005  974
  #      outer_grid  974
        outer_grid  302
  ################################################################################
  #
  #  Definition of "minimal" basis
  #
  ################################################################################
  #     valence basis states
      valence      3  s   1.
      valence      2  p   6.
  #     ion occupancy
      ion_occ      2  s   2.
      ion_occ      2  p   6.
  ################################################################################
  #
  #  Suggested additional basis functions. For production calculations,
  #  uncomment them one after another (the most important basis functions are
  #  listed first).
  #
  #  Constructed for dimers: 2.0 A, 2.5 A, 3.0 A, 3.75 A, 4.5 A
  #
  ################################################################################
  #  "First tier" - improvements: -60.09 meV to -10.02 meV
       hydro 2 p 1.2
       hydro 3 s 1.8
       hydro 3 d 3.8
  #  "Second tier" - improvements: -2.94 meV to -1.27 meV
  #     hydro 4 p 3.1
  #     hydro 3 s 10
  #     hydro 4 f 6.2
  #     hydro 4 d 1.3
  #  "Third tier" - improvements: -0.83 meV to -0.07 meV
  #     hydro 3 d 7.8
  #     hydro 3 p 2.3
  #     hydro 5 g 9.6
  #     hydro 4 p 0.85
  #     hydro 5 f 1.8
  #     hydro 2 s 0.6
  #  Further basis functions that fell out of the optimization - noise level...
  #     hydro 5 g 0.1
  #     hydro 4 d 3.4
  #     hydro 4 s 0.1
  
  
  -----------------------------------------------------------------------
  Completed first pass over input file control.in .
  -----------------------------------------------------------------------
  
  
  -----------------------------------------------------------------------
  Parsing geometry.in (first pass over file, find array dimensions only).
  The contents of geometry.in will be repeated verbatim below
  unless switched off by setting 'verbatim_writeout .false.' .
  in the first line of geometry.in .
  -----------------------------------------------------------------------
  
  #=======================================#
  # iterations/iteration0077/aims-chain-node-0.54545/geometry.in
  #=======================================#
  atom -2.2036017048459975 -3.2110773467380920 -0.8484514022049662 C
  atom -1.6054155793522167 -1.9091549693910717 -0.3159841807024762 C
  atom -2.0513336595400959 -1.4617178200291039 0.7423227276557715 O
  atom -2.2803075033418736 -3.8617703155834215 0.0313768848607947 H
  atom -3.2361324511775256 -3.0021440542938604 -1.1650646625211825 H
  atom -1.6951338119568189 -3.7526498431999826 -1.6579042161563580 H
  atom -0.6190766156704276 -1.2873514826557095 -1.0368079246267041 N
  atom 0.0760024757129789 -0.0178672197764488 -0.7128373653486564 C
  atom -0.2899481413778862 0.7029823031718572 0.5993516819803790 C
  atom 1.5599122184445360 -0.3325250031254602 -1.0385437496380534 C
  atom 1.8562856558462091 -0.5833288665531735 -2.2110834126153849 O
  atom -0.2357280557909144 -1.7174263918644830 -1.8799556150344503 H
  atom -0.1830627406970235 0.7040136245478105 -1.5067849714997053 H
  atom -1.3569484985263458 0.9595668729581948 0.5999268534457580 H
  atom -0.1232981257691012 0.1622100428348286 1.5411390804744913 H
  atom 0.2619475764018780 1.6559809333295474 0.6311164311544579 H
  atom 2.4572342386603441 -0.3696610722423697 -0.0212421481482280 N
  atom 3.8857331133748922 -0.5788130773769813 -0.2212222046148277 C
  atom 2.1355764999045381 -0.1573986681566597 0.9146772268734563 H
  atom 4.3182465882021388 -1.0181694025484223 0.6859446969296609 H
  atom 4.0593514141413589 -1.2578251369205271 -1.0636011587034924 H
  atom 4.4044769848242966 0.3662742043825293 -0.4457614124308006 H
  
  -----------------------------------------------------------------------
  Completed first pass over input file geometry.in .
  -----------------------------------------------------------------------
  

  Basic array size parameters:
  | Number of species                 :        5
  | Number of atoms                   :       22
  | Max. basis fn. angular momentum   :        2
  | Max. atomic/ionic basis occupied n:        3
  | Max. number of basis fn. types    :        2
  | Max. radial fns per species/type  :        4
  | Max. logarithmic grid size        :     1327
  | Max. radial integration grid size :       40
  | Max. angular integration grid size:      302
  | Max. angular grid division number :        8
  | Radial grid for Hartree potential :     1327
  | Number of spin channels           :        1

------------------------------------------------------------
          Reading file control.in.
------------------------------------------------------------
  XC: Using PBE gradient-corrected functionals.
  Spin treatment: No spin polarisation.
  Non-relativistic treatment of kinetic energy.
  Charge =   0.000000E+00: Neutral system requested explicitly.
  Occupation type: Gaussian broadening, width =   0.100000E-01 eV.
  Using pulay charge density mixing.
  Pulay mixing - number of memorized iterations:   10
  Charge density mixing - mixing parameter:     0.5000
  Convergence accuracy of self-consistent charge density:  0.1000E-04
  Convergence accuracy of sum of eigenvalues:  0.1000E-02
  Convergence accuracy of total energy:  0.1000E-05
  Maximum number of s.-c. iterations  :    60
  Forces will be computed.
  Cleaning forces before final output.
 
  Reading configuration options for species H                   .
  | Found nuclear charge :   1.0000
  | Found atomic mass :    1.00794000000000      amu
  | Found l_max for Hartree potential  :   4
  | Found cutoff potl. onset [A], width [A], scale factor :    3.50000    1.50000    1.00000
  | Threshold for basis-dependent cutoff potential is   0.100000E-03
  | Found data for basic radial integration grid :    24 points, outermost radius =    5.000 A
  | Found multiplier for basic radial grid :   1
  | Found angular grid specification: user-specified.
  | Specified grid contains     5 separate shells.
  | Check grid settings after all constraints further below.
  | Found free-atom valence shell :  1 s   1.000
  | No ionic wave fns used. Skipping ion_occ.
  | Found hydrogenic basis function :  2 s   2.100
  | Found hydrogenic basis function :  2 p   3.500
  Species H                   : Missing cutoff potential type.
  Defaulting to exp(1/x)/(1-x)^2 type cutoff potential.
  Species H : No 'logarithmic' tag. Using default grid for free atom:
  | Default logarithmic grid data [bohr] : 0.1000E-03 0.1000E+03 0.1012E+01
  Species H : On-site basis accuracy parameter (for Gram-Schmidt orthonormalisation) not specified.
  Using default value basis_acc =  0.1000000E-03.
  Species H                   : Using default innermost maximum threshold i_radial=  2 for radial functions.
  Species H                   : Default cutoff onset for free atom density etc. : 0.35000000E+01 AA.
  Species H                   : Basic radial grid will be enhanced according to radial_multiplier =   1, to contain    24 grid points.
 
  Reading configuration options for species C                   .
  | Found nuclear charge :   6.0000
  | Found atomic mass :    12.0107000000000      amu
  | Found l_max for Hartree potential  :   4
  | Found cutoff potl. onset [A], width [A], scale factor :    3.50000    1.50000    1.00000
  | Threshold for basis-dependent cutoff potential is   0.100000E-03
  | Found data for basic radial integration grid :    34 points, outermost radius =    5.000 A
  | Found multiplier for basic radial grid :   1
  | Found angular grid specification: user-specified.
  | Specified grid contains     5 separate shells.
  | Check grid settings after all constraints further below.
  | Found free-atom valence shell :  2 s   2.000
  | Found free-atom valence shell :  2 p   2.000
  | No ionic wave fns used. Skipping ion_occ.
  | No ionic wave fns used. Skipping ion_occ.
  | Found hydrogenic basis function :  2 p   1.700
  | Found hydrogenic basis function :  3 d   6.000
  | Found hydrogenic basis function :  2 s   4.900
  Species C                   : Missing cutoff potential type.
  Defaulting to exp(1/x)/(1-x)^2 type cutoff potential.
  Species C : No 'logarithmic' tag. Using default grid for free atom:
  | Default logarithmic grid data [bohr] : 0.1000E-03 0.1000E+03 0.1012E+01
  Species C : On-site basis accuracy parameter (for Gram-Schmidt orthonormalisation) not specified.
  Using default value basis_acc =  0.1000000E-03.
  Species C                   : Using default innermost maximum threshold i_radial=  2 for radial functions.
  Species C                   : Default cutoff onset for free atom density etc. : 0.35000000E+01 AA.
  Species C                   : Basic radial grid will be enhanced according to radial_multiplier =   1, to contain    34 grid points.
 
  Reading configuration options for species N                   .
  | Found nuclear charge :   7.0000
  | Found atomic mass :    14.0067000000000      amu
  | Found l_max for Hartree potential  :   4
  | Found cutoff potl. onset [A], width [A], scale factor :    3.50000    1.50000    1.00000
  | Threshold for basis-dependent cutoff potential is   0.100000E-03
  | Found data for basic radial integration grid :    35 points, outermost radius =    5.000 A
  | Found multiplier for basic radial grid :   1
  | Found angular grid specification: user-specified.
  | Specified grid contains     5 separate shells.
  | Check grid settings after all constraints further below.
  | Found free-atom valence shell :  2 s   2.000
  | Found free-atom valence shell :  2 p   3.000
  | No ionic wave fns used. Skipping ion_occ.
  | No ionic wave fns used. Skipping ion_occ.
  | Found hydrogenic basis function :  2 p   1.800
  | Found hydrogenic basis function :  3 d   6.800
  | Found hydrogenic basis function :  3 s   5.800
  Species N                   : Missing cutoff potential type.
  Defaulting to exp(1/x)/(1-x)^2 type cutoff potential.
  Species N : No 'logarithmic' tag. Using default grid for free atom:
  | Default logarithmic grid data [bohr] : 0.1000E-03 0.1000E+03 0.1012E+01
  Species N : On-site basis accuracy parameter (for Gram-Schmidt orthonormalisation) not specified.
  Using default value basis_acc =  0.1000000E-03.
  Species N                   : Using default innermost maximum threshold i_radial=  2 for radial functions.
  Species N                   : Default cutoff onset for free atom density etc. : 0.35000000E+01 AA.
  Species N                   : Basic radial grid will be enhanced according to radial_multiplier =   1, to contain    35 grid points.
 
  Reading configuration options for species O                   .
  | Found nuclear charge :   8.0000
  | Found atomic mass :    15.9994000000000      amu
  | Found l_max for Hartree potential  :   4
  | Found cutoff potl. onset [A], width [A], scale factor :    3.50000    1.50000    1.00000
  | Threshold for basis-dependent cutoff potential is   0.100000E-03
  | Found data for basic radial integration grid :    36 points, outermost radius =    5.000 A
  | Found multiplier for basic radial grid :   1
  | Found angular grid specification: user-specified.
  | Specified grid contains     5 separate shells.
  | Check grid settings after all constraints further below.
  | Found free-atom valence shell :  2 s   2.000
  | Found free-atom valence shell :  2 p   4.000
  | No ionic wave fns used. Skipping ion_occ.
  | No ionic wave fns used. Skipping ion_occ.
  | Found hydrogenic basis function :  2 p   1.800
  | Found hydrogenic basis function :  3 d   7.600
  | Found hydrogenic basis function :  3 s   6.400
  Species O                   : Missing cutoff potential type.
  Defaulting to exp(1/x)/(1-x)^2 type cutoff potential.
  Species O : No 'logarithmic' tag. Using default grid for free atom:
  | Default logarithmic grid data [bohr] : 0.1000E-03 0.1000E+03 0.1012E+01
  Species O : On-site basis accuracy parameter (for Gram-Schmidt orthonormalisation) not specified.
  Using default value basis_acc =  0.1000000E-03.
  Species O                   : Using default innermost maximum threshold i_radial=  2 for radial functions.
  Species O                   : Default cutoff onset for free atom density etc. : 0.35000000E+01 AA.
  Species O                   : Basic radial grid will be enhanced according to radial_multiplier =   1, to contain    36 grid points.
 
  Reading configuration options for species Na                  .
  | Found nuclear charge :  11.0000
  | Found atomic mass :    22.9897692800000      amu
  | Found l_max for Hartree potential  :   4
  | Found cutoff potl. onset [A], width [A], scale factor :    4.00000    1.50000    1.00000
  | Threshold for basis-dependent cutoff potential is   0.100000E-03
  | Found data for basic radial integration grid :    40 points, outermost radius =    5.500 A
  | Found multiplier for basic radial grid :   1
  | Found angular grid specification: user-specified.
  | Specified grid contains     4 separate shells.
  | Check grid settings after all constraints further below.
  | Found free-atom valence shell :  3 s   1.000
  | Found free-atom valence shell :  2 p   6.000
  | No ionic wave fns used. Skipping ion_occ.
  | No ionic wave fns used. Skipping ion_occ.
  | Found hydrogenic basis function :  2 p   1.200
  | Found hydrogenic basis function :  3 s   1.800
  | Found hydrogenic basis function :  3 d   3.800
  Species Na                  : Missing cutoff potential type.
  Defaulting to exp(1/x)/(1-x)^2 type cutoff potential.
  Species Na: No 'logarithmic' tag. Using default grid for free atom:
  | Default logarithmic grid data [bohr] : 0.1000E-03 0.1000E+03 0.1012E+01
  Species Na: On-site basis accuracy parameter (for Gram-Schmidt orthonormalisation) not specified.
  Using default value basis_acc =  0.1000000E-03.
  Species Na                  : Using default innermost maximum threshold i_radial=  2 for radial functions.
  Species Na                  : Default cutoff onset for free atom density etc. : 0.40000000E+01 AA.
  Species Na                  : Basic radial grid will be enhanced according to radial_multiplier =   1, to contain    40 grid points.
 
  Finished reading input file 'control.in'. Consistency checks are next.
 
  MPI_IN_PLACE appears to work with this MPI implementation.
  | Keeping use_mpi_in_place .true. (see manual).
  Target number of points in a grid batch is not set. Defaulting to  100
  Method for grid partitioning is not set. Defaulting to parallel hash+maxmin partitioning.
  Batch size limit is not set. Defaulting to    200
  By default, will store active basis functions for each batch.
  If in need of memory, prune_basis_once .false. can be used to disable this option.
  communication_type for Hartree potential was not specified.
  Defaulting to calc_hartree .
  Pulay mixer: Number of initial linear mixing iterations not set.
  Defaulting to    0 iterations.
  Work space size for distributed Hartree potential not set.
  Defaulting to   0.200000E+03 MB.
  Algorithm-dependent basis array size parameters:
  | n_max_pulay                         :       10
  Presetting        40 iterations before the initial mixing cycle
  is restarted anyway using the sc_init_iter criterion / keyword.
  Presetting a factor      1.000 between actual scf density residual
  and density convergence criterion sc_accuracy_rho below which sc_init_iter
  takes no effect.
  Geometry relaxation not requested: no relaxation will be performed.
  Force calculation: scf convergence accuracy of forces not set.
  Defaulting to 'sc_accuracy_forces not_checked'.
  Handling of forces: Unphysical translation and rotation will be removed from forces.
  No accuracy limit for integral partition fn. given. Defaulting to  0.1000E-14.
  No threshold value for u(r) in integrations given. Defaulting to  0.1000E-05.
  No accuracy for occupation numbers given. Defaulting to  0.1000E-12.
  No threshold value for occupation numbers given. Defaulting to  0.0000E+00.
  No accuracy for fermi level given. Defaulting to  0.1000E-19.
  Maximum # of iterations to find E_F not set. Defaulting to  200.
  Preferred method for the eigenvalue solver ('KS_method') not specified in 'control.in'.
  Calling BLACS routine to test compilation state
  The best choice would be 'elsi', but your version of FHI-aims is compiled without ScaLAPACK support.
  Defaulting to 'lapack_fast' instead (serial solution, time will not improve with more CPUs).
  Will not use alltoall communication since running on < 1024 CPUs.
  Threshold for basis singularities not set.
  Default threshold for basis singularities:  0.1000E-04
  partition_type (choice of integration weights) for integrals was not specified.
  | Using a version of the partition function of Stratmann and coworkers ('stratmann_smoother').
  | At each grid point, the set of atoms used to build the partition table is smoothly restricted to
  | only those atoms whose free-atom density would be non-zero at that grid point.
  Partitioning for Hartree potential was not defined. Using partition_type for integrals.
  | Adjusted default value of keyword multip_moments_threshold to:       0.10000000E-11
  | This value may affect high angular momentum components of the Hartree potential in periodic systems.
  No q(lm)/r^(l+1) cutoff set for long-range Hartree potential.
  | Using default value of  0.100000E-09 .
  | Verify using the multipole_threshold keyword.
  Defaulting to new monopole extrapolation.
  Density update method: automatic selection selected.
------------------------------------------------------------


------------------------------------------------------------
          Reading geometry description geometry.in.
------------------------------------------------------------
  Input structure read successfully.
  The structure contains       22 atoms,  and a total of         78.000 electrons.

  Input geometry:
  | No unit cell requested.
  | Atomic structure:
  |       Atom                x [A]            y [A]            z [A]
  |    1: Species C            -2.20360170       -3.21107735       -0.84845140
  |    2: Species C            -1.60541558       -1.90915497       -0.31598418
  |    3: Species O            -2.05133366       -1.46171782        0.74232273
  |    4: Species H            -2.28030750       -3.86177032        0.03137688
  |    5: Species H            -3.23613245       -3.00214405       -1.16506466
  |    6: Species H            -1.69513381       -3.75264984       -1.65790422
  |    7: Species N            -0.61907662       -1.28735148       -1.03680792
  |    8: Species C             0.07600248       -0.01786722       -0.71283737
  |    9: Species C            -0.28994814        0.70298230        0.59935168
  |   10: Species C             1.55991222       -0.33252500       -1.03854375
  |   11: Species O             1.85628566       -0.58332887       -2.21108341
  |   12: Species H            -0.23572806       -1.71742639       -1.87995562
  |   13: Species H            -0.18306274        0.70401362       -1.50678497
  |   14: Species H            -1.35694850        0.95956687        0.59992685
  |   15: Species H            -0.12329813        0.16221004        1.54113908
  |   16: Species H             0.26194758        1.65598093        0.63111643
  |   17: Species N             2.45723424       -0.36966107       -0.02124215
  |   18: Species C             3.88573311       -0.57881308       -0.22122220
  |   19: Species H             2.13557650       -0.15739867        0.91467723
  |   20: Species H             4.31824659       -1.01816940        0.68594470
  |   21: Species H             4.05935141       -1.25782514       -1.06360116
  |   22: Species H             4.40447698        0.36627420       -0.44576141
  |

  | The smallest distance between any two atoms is         1.01215814 AA.
  |
  | The first atom of this pair is atom number                     17 .
  | The second atom of this pair is atom number                    19 .

  Number of empty states per atom not set in control.in - providing a guess from actual geometry.
  | Total number of empty states used during s.c.f. cycle:       48
  If you use a very high smearing, use empty_states (per atom!) in control.in to increase this value.

  Structure-dependent array size parameters: 
  | Maximum number of distinct radial functions  :       28
  | Maximum number of basis functions            :      200
  | Number of Kohn-Sham states (occupied + empty):       87
------------------------------------------------------------

------------------------------------------------------------
          Preparing all fixed parts of the calculation.
------------------------------------------------------------
  Determining machine precision:
    2.225073858507201E-308
  Setting up grids for atomic and cluster calculations.

  Creating wave function, potential, and density for free atoms.

  Species: H

  List of occupied orbitals and eigenvalues:
    n    l              occ      energy [Ha]    energy [eV]
    1    0           1.0000        -0.237589        -6.4651


  Species: C

  List of occupied orbitals and eigenvalues:
    n    l              occ      energy [Ha]    energy [eV]
    1    0           2.0000       -10.038835      -273.1706
    2    0           2.0000        -0.502696       -13.6791
    2    1           2.0000        -0.191971        -5.2238


  Species: N

  List of occupied orbitals and eigenvalues:
    n    l              occ      energy [Ha]    energy [eV]
    1    0           2.0000       -14.128000      -384.4424
    2    0           2.0000        -0.681077       -18.5330
    2    1           3.0000        -0.259788        -7.0692


  Species: O

  List of occupied orbitals and eigenvalues:
    n    l              occ      energy [Ha]    energy [eV]
    1    0           2.0000       -18.898188      -514.2459
    2    0           2.0000        -0.878505       -23.9053
    2    1           4.0000        -0.331779        -9.0282


  Species: Na

  List of occupied orbitals and eigenvalues:
    n    l              occ      energy [Ha]    energy [eV]
    1    0           2.0000       -37.908205     -1031.5347
    2    0           2.0000        -2.061650       -56.1004
    3    0           1.0000        -0.086939        -2.3657
    2    1           6.0000        -1.037965       -28.2445

  Creating fixed part of basis set: Ionic, confined, hydrogenic.
 
  H                    hydrogenic:
 
  List of hydrogenic basis orbitals: 
    n    l      effective z      eigenvalue [eV]  inner max. [A]     outer max. [A]     outer radius [A]   
    2    0         2.100000       -14.9728           0.193243           1.317208           4.583499
    2    1         3.500000       -41.6669           0.602369           0.602369           3.723403
 
 
  C                    hydrogenic:
 
  List of hydrogenic basis orbitals: 
    n    l      effective z      eigenvalue [eV]  inner max. [A]     outer max. [A]     outer radius [A]   
    2    1         1.700000        -9.7616           1.230570           1.230570           4.607917
    3    2         6.000000       -54.4224           0.792453           0.792453           3.883070
    2    0         4.900000       -81.6679           0.082559           0.562749           3.078220
 
 
  N                    hydrogenic:
 
  List of hydrogenic basis orbitals: 
    n    l      effective z      eigenvalue [eV]  inner max. [A]     outer max. [A]     outer radius [A]   
    2    1         1.800000       -10.9749           1.177451           1.177451           4.573712
    3    2         6.800000       -69.9026           0.704619           0.704619           3.538137
    3    0         5.800000       -50.8545           0.067388           1.191934           4.250239
 
 
  O                    hydrogenic:
 
  List of hydrogenic basis orbitals: 
    n    l      effective z      eigenvalue [eV]  inner max. [A]     outer max. [A]     outer radius [A]   
    2    1         1.800000       -10.9749           1.164242           1.164242           4.578029
    3    2         7.600000       -87.3180           0.624125           0.624125           3.251020
    3    0         6.400000       -61.9207           0.061167           1.081902           4.001998
 
 
  Na                   hydrogenic:
 
  List of hydrogenic basis orbitals: 
    n    l      effective z      eigenvalue [eV]  inner max. [A]     outer max. [A]     outer radius [A]   
    2    1         1.200000        -4.7043           1.699681           1.699681           5.107393
    3    0         1.800000        -2.7647           0.215330           3.132057           5.107393
    3    2         3.800000       -21.8265           1.252092           1.252092           5.045336
 

  Adding cutoff potential to free-atom effective potential.
  Creating atomic-like basis functions for current effective potential.

  Species H                   :

  List of atomic basis orbitals and eigenvalues:
    n    l      energy [Ha]    energy [eV]    outer radius [A]
    1    0        -0.237589        -6.4651       4.527807


  Species C                   :

  List of atomic basis orbitals and eigenvalues:
    n    l      energy [Ha]    energy [eV]    outer radius [A]
    1    0       -10.038835      -273.1706       1.934409
    2    0        -0.502696       -13.6791       4.496620
    2    1        -0.191971        -5.2238       4.551928


  Species N                   :

  List of atomic basis orbitals and eigenvalues:
    n    l      energy [Ha]    energy [eV]    outer radius [A]
    1    0       -14.128000      -384.4424       1.637919
    2    0        -0.681077       -18.5330       4.463241
    2    1        -0.259788        -7.0692       4.518138


  Species O                   :

  List of atomic basis orbitals and eigenvalues:
    n    l      energy [Ha]    energy [eV]    outer radius [A]
    1    0       -18.898188      -514.2459       1.415765
    2    0        -0.878505       -23.9053       4.413171
    2    1        -0.331779        -9.0282       4.522403


  Species Na                  :

  List of atomic basis orbitals and eigenvalues:
    n    l      energy [Ha]    energy [eV]    outer radius [A]
    1    0       -37.908205     -1031.5347       1.017136
    2    0        -2.061650       -56.1004       4.251681
    3    0        -0.086939        -2.3657       5.107393
    2    1        -1.037965       -28.2445       4.746176

  Assembling full basis from fixed parts.
  | Species H :   atomic orbital   1 s accepted.
  | Species H :    hydro orbital   2 s accepted.
  | Species H :    hydro orbital   2 p accepted.
  | Species C :   atomic orbital   1 s accepted.
  | Species C :    hydro orbital   2 s accepted.
  | Species C :   atomic orbital   2 s accepted.
  | Species C :   atomic orbital   2 p accepted.
  | Species C :    hydro orbital   2 p accepted.
  | Species C :    hydro orbital   3 d accepted.
  | Species N :   atomic orbital   1 s accepted.
  | Species N :    hydro orbital   3 s accepted.
  | Species N :   atomic orbital   2 s accepted.
  | Species N :   atomic orbital   2 p accepted.
  | Species N :    hydro orbital   2 p accepted.
  | Species N :    hydro orbital   3 d accepted.
  | Species O :   atomic orbital   1 s accepted.
  | Species O :    hydro orbital   3 s accepted.
  | Species O :   atomic orbital   2 s accepted.
  | Species O :   atomic orbital   2 p accepted.
  | Species O :    hydro orbital   2 p accepted.
  | Species O :    hydro orbital   3 d accepted.
  | Species Na :   atomic orbital   1 s accepted.
  | Species Na :   atomic orbital   2 s accepted.
  | Species Na :   atomic orbital   3 s accepted.
  | Species Na :    hydro orbital   3 s accepted.
  | Species Na :   atomic orbital   2 p accepted.
  | Species Na :    hydro orbital   2 p accepted.
  | Species Na :    hydro orbital   3 d accepted.
 
  Basis size parameters after reduction:
  | Total number of radial functions:       28
  | Total number of basis functions :      200
 
  Per-task memory consumption for arrays in subroutine allocate_ext:
  |           7.142412MB.
  Testing on-site integration grid accuracy.
  |  Species  Function  <phi|h_atom|phi> (log., in eV)  <phi|h_atom|phi> (rad., in eV)
           1        1                 -6.4663192853                 -6.4651273558
           1        2                 13.7111246313                 13.7170609718
           1        3                 25.2673269279                 25.2674696378
           2        4               -273.1705927641               -273.1705631568
           2        5                -10.7109323383                -10.7107120029
           2        6                 17.4381822266                 17.4352413244
           2        7                 -5.2255326521                 -5.2270484734
           2        8                  8.6835629259                  8.6603288385
           2        9                 27.4952418996                 27.4953360207
           3       10               -384.4424306495               -384.4423701208
           3       11                 12.5842251816                 12.5842222903
           3       12                -15.7264628251                -15.7264433455
           3       13                 -7.0696854293                 -7.0701769954
           3       14                  8.8090390882                  8.7901077751
           3       15                 35.9586762123                 35.9588528632
           4       16               -514.2458688638               -514.2457643834
           4       17                 15.1795651126                 15.1795290741
           4       18                -21.5359799773                -21.5360846186
           4       19                 -9.0283069236                 -9.0284644067
           4       20                  8.3027758564                  8.2834874195
           4       21                 45.8339351984                 45.8338762259
           5       22              -1031.5347301569              -1031.5343700005
           5       23                -56.1003590737                -56.1003577733
           5       24                 -2.3872449526                 -2.3874266514
           5       25                  4.8089581560                  4.7916273983
           5       26                -28.2444627299                -28.2444626864
           5       27                  0.6487953582                  0.6484930494
           5       28                 10.4219557667                 10.4220291668

  Preparing densities etc. for the partition functions (integrals / Hartree potential).

  Preparations completed.
  max(cpu_time)          :      0.304 s.
  Wall clock time (cpu1) :      0.313 s.
------------------------------------------------------------

------------------------------------------------------------
          Begin self-consistency loop: Initialization.

          Date     :  20180216, Time     :  134453.011
------------------------------------------------------------

  Initializing index lists of integration centers etc. from given atomic structure:
  | Number of centers in hartree potential         :        22
  | Number of centers in hartree multipole         :        22
  | Number of centers in electron density summation:        22
  | Number of centers in basis integrals           :        22
  | Number of centers in integrals                 :        22
  | Number of centers in hamiltonian               :        22
  Partitioning the integration grid into batches with parallel hashing+maxmin method.
  | Number of batches:     1197
  | Maximal batch size:     195
  | Minimal batch size:      53
  | Average batch size:      97.681
  | Standard deviation of batch sizes:      31.427

  Integration load balanced across     8 MPI tasks.
  Work distribution over tasks is as follows:
  Task     0 has      14657 integration points.
  Task     1 has      14681 integration points.
  Task     2 has      14583 integration points.
  Task     3 has      14579 integration points.
  Task     4 has      14579 integration points.
  Task     5 has      14657 integration points.
  Task     6 has      14652 integration points.
  Task     7 has      14536 integration points.
  Initializing partition tables, free-atom densities, potentials, etc. across the integration grid (initialize_grid_storage).
  | initialize_grid_storage: Actual outermost partition radius vs. multipole_radius_free
  | (-- VB: in principle, multipole_radius_free should be larger, hence this output)
  | Species        1: Confinement radius =              4.999999999999999 AA, multipole_radius_free =              5.054417573612229 AA.
  | Species        1: outer_partition_radius set to              5.054417573612229 AA .
  | Species        2: Confinement radius =              4.999999999999999 AA, multipole_radius_free =              5.019602836301480 AA.
  | Species        2: outer_partition_radius set to              5.019602836301480 AA .
  | Species        3: Confinement radius =              4.999999999999999 AA, multipole_radius_free =              5.043624274424571 AA.
  | Species        3: outer_partition_radius set to              5.043624274424571 AA .
  | Species        4: Confinement radius =              4.999999999999999 AA, multipole_radius_free =              5.048384829883283 AA.
  | Species        4: outer_partition_radius set to              5.048384829883283 AA .
  | Species        5: Confinement radius =              5.500000000000000 AA, multipole_radius_free =              5.563704032673898 AA.
  | Species        5: outer_partition_radius set to              5.563704032673898 AA .
  | Original list of interatomic distances with          22 x         22 entries is created.
  | Net number of integration points:   116924
  | of which are non-zero points    :    99441
  Renormalizing the initial density to the exact electron count on the 3D integration grid.
  | Initial density: Formal number of electrons (from input files) :      78.0000000000
  | Integrated number of electrons on 3D grid     :      77.9998252925
  | Charge integration error                      :      -0.0001747075
  | Normalization factor for density and gradient :       1.0000022398
  Obtaining max. number of non-zero basis functions in each batch (get_n_compute_maxes).
  | Maximal number of non-zero basis functions:      190 in task     0
  | Maximal number of non-zero basis functions:      188 in task     1
  | Maximal number of non-zero basis functions:      187 in task     2
  | Maximal number of non-zero basis functions:      187 in task     3
  | Maximal number of non-zero basis functions:      192 in task     4
  | Maximal number of non-zero basis functions:      191 in task     5
  | Maximal number of non-zero basis functions:      191 in task     6
  | Maximal number of non-zero basis functions:      191 in task     7
  Selecting the method for density update.
  Loop over occupied states selected for charge density update.
  Allocating        0.139 MB for KS_eigenvector
  Integrating Hamiltonian matrix: batch-based integration.
  Time summed over all CPUs for integration: real work        4.537 s, elapsed        4.696 s
  Integrating overlap matrix.
  Time summed over all CPUs for integration: real work        1.896 s, elapsed        1.941 s

  Updating Kohn-Sham eigenvalues, eigenvectors, occupation numbers, and Fermi level.
  Solving generalized eigenproblem
  Updating Kohn-Sham eigenvalues and eigenfunctions.
  Transforming overlap matrix and checking for singularities.
  Overlap matrix is nonsingular:
  | Lowest eigenvalue:  0.266366E-02
  Solving real generalised eigenvalue problem by standard LAPACK (fast)

  Obtaining occupation numbers and chemical potential using ELSI.
  | Chemical potential (Fermi level):    -9.42119204eV
  Writing Kohn-Sham eigenvalues.

  State    Occupation    Eigenvalue [Ha]    Eigenvalue [eV]
      1       2.00000         -18.971205         -516.23276
      2       2.00000         -18.970435         -516.21180
      3       2.00000         -14.251996         -387.81655
      4       2.00000         -14.245299         -387.63430
      5       2.00000         -10.164221         -276.58253
      6       2.00000         -10.163976         -276.57586
      7       2.00000         -10.161473         -276.50776
      8       2.00000         -10.138770         -275.88997
      9       2.00000         -10.129510         -275.63799
     10       2.00000         -10.129181         -275.62903
     11       2.00000          -1.126730          -30.65989
     12       2.00000          -1.123098          -30.56105
     13       2.00000          -1.008234          -27.43543
     14       2.00000          -0.998338          -27.16616
     15       2.00000          -0.874976          -23.80930
     16       2.00000          -0.834961          -22.72044
     17       2.00000          -0.812928          -22.12089
     18       2.00000          -0.764550          -20.80448
     19       2.00000          -0.686387          -18.67753
     20       2.00000          -0.668004          -18.17731
     21       2.00000          -0.635055          -17.28072
     22       2.00000          -0.611708          -16.64542
     23       2.00000          -0.592138          -16.11288
     24       2.00000          -0.582324          -15.84585
     25       2.00000          -0.556185          -15.13455
     26       2.00000          -0.552621          -15.03759
     27       2.00000          -0.543029          -14.77658
     28       2.00000          -0.541966          -14.74765
     29       2.00000          -0.525454          -14.29834
     30       2.00000          -0.519702          -14.14182
     31       2.00000          -0.509923          -13.87571
     32       2.00000          -0.506080          -13.77113
     33       2.00000          -0.501545          -13.64774
     34       2.00000          -0.476737          -12.97268
     35       2.00000          -0.468561          -12.75020
     36       2.00000          -0.404502          -11.00706
     37       2.00000          -0.397134          -10.80657
     38       2.00000          -0.382635          -10.41203
     39       2.00000          -0.370430          -10.07992
     40       0.00000          -0.159597           -4.34285
     41       0.00000          -0.143225           -3.89734
     42       0.00000          -0.060320           -1.64139
     43       0.00000          -0.039201           -1.06671
     44       0.00000          -0.027139           -0.73850
     45       0.00000          -0.015978           -0.43477
     46       0.00000          -0.011531           -0.31378
     47       0.00000          -0.009543           -0.25969
     48       0.00000           0.001556            0.04235
     49       0.00000           0.005584            0.15195
     50       0.00000           0.009744            0.26515
     51       0.00000           0.016134            0.43904
     52       0.00000           0.030934            0.84175
     53       0.00000           0.033416            0.90931
     54       0.00000           0.035718            0.97194
     55       0.00000           0.045136            1.22820
     56       0.00000           0.051771            1.40875
     57       0.00000           0.070103            1.90760
     58       0.00000           0.099016            2.69436
     59       0.00000           0.120423            3.27687
     60       0.00000           0.128408            3.49415
     61       0.00000           0.175676            4.78038
     62       0.00000           0.181981            4.95197
     63       0.00000           0.195967            5.33254
     64       0.00000           0.208253            5.66685
     65       0.00000           0.214543            5.83802
     66       0.00000           0.230382            6.26901
     67       0.00000           0.237494            6.46254
     68       0.00000           0.250041            6.80398
     69       0.00000           0.260450            7.08720
     70       0.00000           0.271571            7.38982
     71       0.00000           0.280143            7.62308
     72       0.00000           0.288141            7.84072
     73       0.00000           0.307701            8.37296
     74       0.00000           0.309177            8.41315
     75       0.00000           0.334476            9.10157
     76       0.00000           0.359570            9.78439
     77       0.00000           0.382130           10.39830
     78       0.00000           0.398880           10.85407
     79       0.00000           0.433721           11.80216
     80       0.00000           0.445333           12.11812
     81       0.00000           0.456501           12.42204
     82       0.00000           0.476759           12.97327
     83       0.00000           0.505646           13.75932
     84       0.00000           0.512156           13.93646
     85       0.00000           0.520193           14.15518
     86       0.00000           0.542826           14.77104
     87       0.00000           0.569760           15.50397

  Highest occupied state (VBM) at    -10.07992432 eV
  | Occupation number:      2.00000000

  Lowest unoccupied state (CBM) at    -4.34285326 eV
  | Occupation number:      0.00000000

  Overall HOMO-LUMO gap:      5.73707106 eV.
  Calculating total energy contributions from superposition of free atom densities.

  Total energy components:
  | Sum of eigenvalues            :        -291.80400291 Ha       -7940.39092179 eV
  | XC energy correction          :         -66.04235256 Ha       -1797.10384873 eV
  | XC potential correction       :          84.88447928 Ha        2309.82420381 eV
  | Free-atom electrostatic energy:        -222.92360257 Ha       -6066.05986370 eV
  | Hartree energy correction     :           0.00000000 Ha           0.00000000 eV
  | vdW energy correction         :           0.00000000 Ha           0.00000000 eV
  | Entropy correction            :           0.00000000 Ha           0.00000000 eV
  | ---------------------------
  | Total energy                  :        -495.88547876 Ha      -13493.73043040 eV
  | Total energy, T -> 0          :        -495.88547876 Ha      -13493.73043040 eV  <-- do not rely on this value for anything but (periodic) metals
  | Electronic free energy        :        -495.88547876 Ha      -13493.73043040 eV

  Derived energy quantities:
  | Kinetic energy                :         490.31917141 Ha       13342.26350089 eV
  | Electrostatic energy          :        -920.16229761 Ha      -25038.89008257 eV
  | Energy correction for multipole
  | error in Hartree potential    :           0.00000000 Ha           0.00000000 eV
  | Sum of eigenvalues per atom                           :        -360.92686008 eV
  | Total energy (T->0) per atom                          :        -613.35138320 eV  <-- do not rely on this value for anything but (periodic) metals
  | Electronic free energy per atom                       :        -613.35138320 eV
  Initialize hartree_potential_storage
  Max. number of atoms included in rho_multipole:           22

  End scf initialization - timings             :  max(cpu_time)    wall_clock(cpu1)
  | Time for scf. initialization               :        1.424 s           1.421 s
  | Boundary condition initialization          :        0.000 s           0.000 s
  | Integration                                :        0.820 s           0.821 s
  | Solution of K.-S. eqns.                    :        0.044 s           0.044 s
  | Grid partitioning                          :        0.156 s           0.155 s
  | Preloading free-atom quantities on grid    :        0.008 s           0.009 s
  | Free-atom superposition energy             :        0.064 s           0.062 s
  | Total energy evaluation                    :        0.000 s           0.001 s

  Partial memory accounting:
  | Current value for overall tracked memory usage on task 0  :           0.782 MB
  | Peak value for overall tracked memory usage on task 0     :           1.644 MB after allocating wave
  | Largest tracked array allocation on task 0 so far         :           0.320 MB  when allocating ovlp
  Note:  These values currently only include a subset of arrays which are explicitly tracked.
  The "true" memory usage will be greater.
------------------------------------------------------------

------------------------------------------------------------
          Begin self-consistency iteration #    1

  Date     :  20180216, Time     :  134454.435
------------------------------------------------------------
  Evaluating new KS density.
  Integration grid: deviation in total charge (<rho> - N_e) =   2.842171E-14
  Pulay mixing of updated and previous charge densities.

  Evaluating partitioned Hartree potential by multipole expansion.
  | Analytical far-field extrapolation by fixed multipoles:
  | Hartree multipole sum: apparent total charge =  -0.601051E-03
  Summing up the Hartree potential.
  Time summed over all CPUs for potential: real work        4.658 s, elapsed        4.691 s
  | RMS charge density error from multipole expansion :   0.198839E-01

  Integrating Hamiltonian matrix: batch-based integration.
  Time summed over all CPUs for integration: real work        4.504 s, elapsed        4.629 s

  Updating Kohn-Sham eigenvalues, eigenvectors, occupation numbers, and Fermi level.
  Solving generalized eigenproblem
  Updating Kohn-Sham eigenvalues and eigenfunctions.
  Solving real generalised eigenvalue problem by standard LAPACK (fast)

  Obtaining occupation numbers and chemical potential using ELSI.
  | Chemical potential (Fermi level):    -2.38138348eV
  Writing Kohn-Sham eigenvalues.

  State    Occupation    Eigenvalue [Ha]    Eigenvalue [eV]
      1       2.00000         -18.612677         -506.47671
      2       2.00000         -18.587224         -505.78409
      3       2.00000         -13.986890         -380.60265
      4       2.00000         -13.984317         -380.53262
      5       2.00000         -10.058377         -273.70236
      6       2.00000         -10.046657         -273.38345
      7       2.00000          -9.967268         -271.22316
      8       2.00000          -9.885740         -269.00468
      9       2.00000          -9.840036         -267.76099
     10       2.00000          -9.835747         -267.64429
     11       2.00000          -0.964585          -26.24769
     12       2.00000          -0.942074          -25.63514
     13       2.00000          -0.863459          -23.49591
     14       2.00000          -0.854964          -23.26476
     15       2.00000          -0.735574          -20.01600
     16       2.00000          -0.683305          -18.59368
     17       2.00000          -0.670253          -18.23851
     18       2.00000          -0.627274          -17.06900
     19       2.00000          -0.564095          -15.34982
     20       2.00000          -0.539718          -14.68646
     21       2.00000          -0.509288          -13.85844
     22       2.00000          -0.485580          -13.21330
     23       2.00000          -0.443756          -12.07522
     24       2.00000          -0.431108          -11.73104
     25       2.00000          -0.426318          -11.60070
     26       2.00000          -0.416539          -11.33460
     27       2.00000          -0.399128          -10.86081
     28       2.00000          -0.388050          -10.55937
     29       2.00000          -0.386436          -10.51546
     30       2.00000          -0.373209          -10.15553
     31       2.00000          -0.365418           -9.94352
     32       2.00000          -0.355940           -9.68561
     33       2.00000          -0.342939           -9.33185
     34       2.00000          -0.341178           -9.28393
     35       2.00000          -0.326512           -8.88485
     36       2.00000          -0.234206           -6.37307
     37       2.00000          -0.229235           -6.23780
     38       2.00000          -0.209172           -5.69185
     39       2.00000          -0.191847           -5.22043
     40       0.00000          -0.048802           -1.32798
     41       0.00000          -0.026796           -0.72915
     42       0.00000           0.004711            0.12819
     43       0.00000           0.026743            0.72772
     44       0.00000           0.044826            1.21978
     45       0.00000           0.058287            1.58608
     46       0.00000           0.077179            2.10016
     47       0.00000           0.084609            2.30234
     48       0.00000           0.093739            2.55077
     49       0.00000           0.096644            2.62983
     50       0.00000           0.107444            2.92369
     51       0.00000           0.113783            3.09620
     52       0.00000           0.117824            3.20615
     53       0.00000           0.125740            3.42155
     54       0.00000           0.129483            3.52341
     55       0.00000           0.137935            3.75340
     56       0.00000           0.146111            3.97589
     57       0.00000           0.167401            4.55521
     58       0.00000           0.199543            5.42983
     59       0.00000           0.210156            5.71864
     60       0.00000           0.213099            5.79873
     61       0.00000           0.252936            6.88274
     62       0.00000           0.272225            7.40763
     63       0.00000           0.282080            7.67577
     64       0.00000           0.300671            8.18167
     65       0.00000           0.313283            8.52486
     66       0.00000           0.321317            8.74349
     67       0.00000           0.330551            8.99476
     68       0.00000           0.345845            9.41092
     69       0.00000           0.351532            9.56568
     70       0.00000           0.364417            9.91629
     71       0.00000           0.371717           10.11494
     72       0.00000           0.396423           10.78722
     73       0.00000           0.409694           11.14834
     74       0.00000           0.412952           11.23699
     75       0.00000           0.438598           11.93485
     76       0.00000           0.470139           12.79314
     77       0.00000           0.476873           12.97637
     78       0.00000           0.502594           13.67629
     79       0.00000           0.539636           14.68425
     80       0.00000           0.545768           14.85110
     81       0.00000           0.551800           15.01523
     82       0.00000           0.576878           15.69766
     83       0.00000           0.597449           16.25741
     84       0.00000           0.609443           16.58379
     85       0.00000           0.614141           16.71162
     86       0.00000           0.639255           17.39500
     87       0.00000           0.665541           18.11030

  Highest occupied state (VBM) at     -5.22043011 eV
  | Occupation number:      2.00000000

  Lowest unoccupied state (CBM) at    -1.32797710 eV
  | Occupation number:      0.00000000

  Overall HOMO-LUMO gap:      3.89245301 eV.

  Total energy components:
  | Sum of eigenvalues            :        -278.21218415 Ha       -7570.53871544 eV
  | XC energy correction          :         -67.35178452 Ha       -1832.73530539 eV
  | XC potential correction       :          86.58411714 Ha        2356.07370303 eV
  | Free-atom electrostatic energy:        -222.92360257 Ha       -6066.05986370 eV
  | Hartree energy correction     :         -13.60574161 Ha        -370.23106648 eV
  | vdW energy correction         :           0.00000000 Ha           0.00000000 eV
  | Entropy correction            :           0.00000000 Ha           0.00000000 eV
  | ---------------------------
  | Total energy                  :        -495.50919572 Ha      -13483.49124798 eV
  | Total energy, T -> 0          :        -495.50919572 Ha      -13483.49124798 eV  <-- do not rely on this value for anything but (periodic) metals
  | Electronic free energy        :        -495.50919572 Ha      -13483.49124798 eV

  Derived energy quantities:
  | Kinetic energy                :         496.43573054 Ha       13508.70354324 eV
  | Electrostatic energy          :        -924.59314174 Ha      -25159.45948583 eV
  | Energy correction for multipole
  | error in Hartree potential    :           0.06016084 Ha           1.63705975 eV
  | Sum of eigenvalues per atom                           :        -344.11539616 eV
  | Total energy (T->0) per atom                          :        -612.88596582 eV  <-- do not rely on this value for anything but (periodic) metals
  | Electronic free energy per atom                       :        -612.88596582 eV

  Self-consistency convergence accuracy:
  | Change of charge density      :  0.7264E+00
  | Change of sum of eigenvalues  :  0.3699E+03 eV
  | Change of total energy        :  0.1024E+02 eV

  End self-consistency iteration #     1       :  max(cpu_time)    wall_clock(cpu1)
  | Time for this iteration                    :        1.752 s           1.753 s
  | Charge density update                      :        0.568 s           0.566 s
  | Density mixing                             :        0.004 s           0.004 s
  | Hartree multipole update                   :        0.020 s           0.018 s
  | Hartree multipole summation                :        0.580 s           0.580 s
  | Integration                                :        0.572 s           0.572 s
  | Solution of K.-S. eqns.                    :        0.008 s           0.009 s
  | Total energy evaluation                    :        0.000 s           0.001 s

  Partial memory accounting:
  | Current value for overall tracked memory usage on task 0  :           0.782 MB
  | Peak value for overall tracked memory usage on task 0     :           1.967 MB after allocating gradient_basis_wave
  | Largest tracked array allocation on task 0 so far         :           0.889 MB  when allocating gradient_basis_wave
  Note:  These values currently only include a subset of arrays which are explicitly tracked.
  The "true" memory usage will be greater.
------------------------------------------------------------

------------------------------------------------------------
          Begin self-consistency iteration #    2

  Date     :  20180216, Time     :  134456.189
------------------------------------------------------------
  Evaluating new KS density.
  Integration grid: deviation in total charge (<rho> - N_e) =   1.421085E-14
  Pulay mixing of updated and previous charge densities.

  Evaluating partitioned Hartree potential by multipole expansion.
  | Analytical far-field extrapolation by fixed multipoles:
  | Hartree multipole sum: apparent total charge =  -0.658078E-03
  Summing up the Hartree potential.
  Time summed over all CPUs for potential: real work        4.664 s, elapsed        4.705 s
  | RMS charge density error from multipole expansion :   0.254268E-01

  Integrating Hamiltonian matrix: batch-based integration.
  Time summed over all CPUs for integration: real work        4.509 s, elapsed        4.643 s

  Updating Kohn-Sham eigenvalues, eigenvectors, occupation numbers, and Fermi level.
  Solving generalized eigenproblem
  Updating Kohn-Sham eigenvalues and eigenfunctions.
  Solving real generalised eigenvalue problem by standard LAPACK (fast)

  Obtaining occupation numbers and chemical potential using ELSI.
  | Chemical potential (Fermi level):    -2.38135248eV
  Highest occupied state (VBM) at     -6.16579559 eV
  | Occupation number:      2.00000000

  Lowest unoccupied state (CBM) at    -1.18560138 eV
  | Occupation number:      0.00000000

  Overall HOMO-LUMO gap:      4.98019421 eV.

  Checking to see if s.c.f. parameters should be adjusted.

  Total energy components:
  | Sum of eigenvalues            :        -278.82383343 Ha       -7587.18253917 eV
  | XC energy correction          :         -67.27113520 Ha       -1830.54072569 eV
  | XC potential correction       :          86.47271602 Ha        2353.04232441 eV
  | Free-atom electrostatic energy:        -222.92360257 Ha       -6066.05986370 eV
  | Hartree energy correction     :         -12.92059736 Ha        -351.58734274 eV
  | vdW energy correction         :           0.00000000 Ha           0.00000000 eV
  | Entropy correction            :           0.00000000 Ha           0.00000000 eV
  | ---------------------------
  | Total energy                  :        -495.46645254 Ha      -13482.32814690 eV
  | Total energy, T -> 0          :        -495.46645254 Ha      -13482.32814690 eV  <-- do not rely on this value for anything but (periodic) metals
  | Electronic free energy        :        -495.46645254 Ha      -13482.32814690 eV

  Derived energy quantities:
  | Kinetic energy                :         494.62471624 Ha       13459.42333690 eV
  | Electrostatic energy          :        -922.82003358 Ha      -25111.21075811 eV
  | Energy correction for multipole
  | error in Hartree potential    :           0.07120787 Ha           1.93766479 eV
  | Sum of eigenvalues per atom                           :        -344.87193360 eV
  | Total energy (T->0) per atom                          :        -612.83309759 eV  <-- do not rely on this value for anything but (periodic) metals
  | Electronic free energy per atom                       :        -612.83309759 eV

  Self-consistency convergence accuracy:
  | Change of charge density      :  0.4005E+00
  | Change of sum of eigenvalues  : -0.1664E+02 eV
  | Change of total energy        :  0.1163E+01 eV

  End self-consistency iteration #     2       :  max(cpu_time)    wall_clock(cpu1)
  | Time for this iteration                    :        1.756 s           1.756 s
  | Charge density update                      :        0.564 s           0.564 s
  | Density mixing                             :        0.008 s           0.008 s
  | Hartree multipole update                   :        0.020 s           0.019 s
  | Hartree multipole summation                :        0.584 s           0.581 s
  | Integration                                :        0.576 s           0.573 s
  | Solution of K.-S. eqns.                    :        0.008 s           0.009 s
  | Total energy evaluation                    :        0.000 s           0.000 s

  Partial memory accounting:
  | Current value for overall tracked memory usage on task 0  :           0.783 MB
  | Peak value for overall tracked memory usage on task 0     :           1.967 MB after allocating gradient_basis_wave
  | Largest tracked array allocation on task 0 so far         :           0.889 MB  when allocating gradient_basis_wave
  Note:  These values currently only include a subset of arrays which are explicitly tracked.
  The "true" memory usage will be greater.
------------------------------------------------------------

------------------------------------------------------------
          Begin self-consistency iteration #    3

  Date     :  20180216, Time     :  134457.946
------------------------------------------------------------
  Evaluating new KS density.
  Integration grid: deviation in total charge (<rho> - N_e) =   1.421085E-14
  Pulay mixing of updated and previous charge densities.

  Evaluating partitioned Hartree potential by multipole expansion.
  | Analytical far-field extrapolation by fixed multipoles:
  | Hartree multipole sum: apparent total charge =  -0.745780E-03
  Summing up the Hartree potential.
  Time summed over all CPUs for potential: real work        4.655 s, elapsed        4.696 s
  | RMS charge density error from multipole expansion :   0.318042E-01

  Integrating Hamiltonian matrix: batch-based integration.
  Time summed over all CPUs for integration: real work        4.490 s, elapsed        4.618 s

  Updating Kohn-Sham eigenvalues, eigenvectors, occupation numbers, and Fermi level.
  Solving generalized eigenproblem
  Updating Kohn-Sham eigenvalues and eigenfunctions.
  Solving real generalised eigenvalue problem by standard LAPACK (fast)

  Obtaining occupation numbers and chemical potential using ELSI.
  | Chemical potential (Fermi level):    -2.16386494eV
  Highest occupied state (VBM) at     -5.23261546 eV
  | Occupation number:      2.00000000

  Lowest unoccupied state (CBM) at    -1.08374358 eV
  | Occupation number:      0.00000000

  Overall HOMO-LUMO gap:      4.14887188 eV.

  Total energy components:
  | Sum of eigenvalues            :        -278.32482045 Ha       -7573.60370521 eV
  | XC energy correction          :         -67.40457924 Ha       -1834.17192265 eV
  | XC potential correction       :          86.64207011 Ha        2357.65068363 eV
  | Free-atom electrostatic energy:        -222.92360257 Ha       -6066.05986370 eV
  | Hartree energy correction     :         -13.44861296 Ha        -365.95537817 eV
  | vdW energy correction         :           0.00000000 Ha           0.00000000 eV
  | Entropy correction            :           0.00000000 Ha           0.00000000 eV
  | ---------------------------
  | Total energy                  :        -495.45954511 Ha      -13482.14018610 eV
  | Total energy, T -> 0          :        -495.45954511 Ha      -13482.14018610 eV  <-- do not rely on this value for anything but (periodic) metals
  | Electronic free energy        :        -495.45954511 Ha      -13482.14018610 eV

  Derived energy quantities:
  | Kinetic energy                :         494.08910561 Ha       13444.84863008 eV
  | Electrostatic energy          :        -922.14407148 Ha      -25092.81689353 eV
  | Energy correction for multipole
  | error in Hartree potential    :           0.08543421 Ha           2.32478318 eV
  | Sum of eigenvalues per atom                           :        -344.25471387 eV
  | Total energy (T->0) per atom                          :        -612.82455391 eV  <-- do not rely on this value for anything but (periodic) metals
  | Electronic free energy per atom                       :        -612.82455391 eV

  Self-consistency convergence accuracy:
  | Change of charge density      :  0.1759E+00
  | Change of sum of eigenvalues  :  0.1358E+02 eV
  | Change of total energy        :  0.1880E+00 eV

  End self-consistency iteration #     3       :  max(cpu_time)    wall_clock(cpu1)
  | Time for this iteration                    :        1.752 s           1.752 s
  | Charge density update                      :        0.564 s           0.564 s
  | Density mixing                             :        0.012 s           0.008 s
  | Hartree multipole update                   :        0.020 s           0.019 s
  | Hartree multipole summation                :        0.580 s           0.580 s
  | Integration                                :        0.572 s           0.571 s
  | Solution of K.-S. eqns.                    :        0.012 s           0.009 s
  | Total energy evaluation                    :        0.004 s           0.001 s

  Partial memory accounting:
  | Current value for overall tracked memory usage on task 0  :           0.783 MB
  | Peak value for overall tracked memory usage on task 0     :           1.968 MB after allocating gradient_basis_wave
  | Largest tracked array allocation on task 0 so far         :           0.889 MB  when allocating gradient_basis_wave
  Note:  These values currently only include a subset of arrays which are explicitly tracked.
  The "true" memory usage will be greater.
------------------------------------------------------------

------------------------------------------------------------
          Begin self-consistency iteration #    4

  Date     :  20180216, Time     :  134459.699
------------------------------------------------------------
  Evaluating new KS density.
  Integration grid: deviation in total charge (<rho> - N_e) =  -1.421085E-14
  Pulay mixing of updated and previous charge densities.

  Evaluating partitioned Hartree potential by multipole expansion.
  | Analytical far-field extrapolation by fixed multipoles:
  | Hartree multipole sum: apparent total charge =  -0.785323E-03
  Summing up the Hartree potential.
  Time summed over all CPUs for potential: real work        4.644 s, elapsed        4.678 s
  | RMS charge density error from multipole expansion :   0.344740E-01

  Integrating Hamiltonian matrix: batch-based integration.
  Time summed over all CPUs for integration: real work        4.497 s, elapsed        4.628 s

  Updating Kohn-Sham eigenvalues, eigenvectors, occupation numbers, and Fermi level.
  Solving generalized eigenproblem
  Updating Kohn-Sham eigenvalues and eigenfunctions.
  Solving real generalised eigenvalue problem by standard LAPACK (fast)

  Obtaining occupation numbers and chemical potential using ELSI.
  | Chemical potential (Fermi level):    -2.02928557eV
  Highest occupied state (VBM) at     -5.49017814 eV
  | Occupation number:      2.00000000

  Lowest unoccupied state (CBM) at    -0.94311047 eV
  | Occupation number:      0.00000000

  Overall HOMO-LUMO gap:      4.54706767 eV.

  Total energy components:
[...]
   Van der Waals                 : -0.255904E-02 -0.607680E-02  0.158961E-02
   ----------------------------------------------------------------
   Total forces(   3)            : -0.903695E-01  0.684822E-01  0.106564E+00
  atom #    4
   Hellmann-Feynman              :  0.416938E-01 -0.116172E+00 -0.665218E-01
   Ionic forces                  :  0.000000E+00  0.000000E+00  0.000000E+00
   Multipole                     : -0.386286E-01 -0.116448E+00  0.614208E-01
   Pulay + GGA                   : -0.848221E-03  0.113244E+00 -0.619743E-01
   Van der Waals                 :  0.355456E-02  0.147025E-02 -0.274659E-02
   ----------------------------------------------------------------
   Total forces(   4)            :  0.577149E-02 -0.117906E+00 -0.698219E-01
  atom #    5
   Hellmann-Feynman              :  0.509463E-01  0.884832E-01 -0.499019E-01
   Ionic forces                  :  0.000000E+00  0.000000E+00  0.000000E+00
   Multipole                     : -0.105669E+00 -0.323376E-01 -0.401598E-01
   Pulay + GGA                   :  0.105946E+00 -0.797747E-02  0.602397E-01
   Van der Waals                 :  0.192728E-02  0.143853E-04 -0.482509E-02
   ----------------------------------------------------------------
   Total forces(   5)            :  0.531513E-01  0.481825E-01 -0.346471E-01
  atom #    6
   Hellmann-Feynman              :  0.274308E+00  0.352667E+00 -0.107175E-01
   Ionic forces                  :  0.000000E+00  0.000000E+00  0.000000E+00
   Multipole                     : -0.188305E-01 -0.131712E+00 -0.704014E-01
   Pulay + GGA                   : -0.693066E-01  0.499628E-02  0.703155E-01
   Van der Waals                 : -0.414758E-02 -0.646616E-02  0.993343E-03
   ----------------------------------------------------------------
   Total forces(   6)            :  0.182024E+00  0.219485E+00 -0.981006E-02
  atom #    7
   Hellmann-Feynman              : -0.931389E+00 -0.647983E+00  0.447573E+00
   Ionic forces                  :  0.000000E+00  0.000000E+00  0.000000E+00
   Multipole                     : -0.524430E-01 -0.621114E-02 -0.332105E+00
   Pulay + GGA                   :  0.946018E+00  0.669649E+00 -0.464093E-01
   Van der Waals                 :  0.199048E-02 -0.241466E-02  0.262831E-02
   ----------------------------------------------------------------
   Total forces(   7)            : -0.358233E-01  0.130400E-01  0.716875E-01
  atom #    8
   Hellmann-Feynman              :  0.147006E+01  0.290146E+01 -0.185411E+00
   Ionic forces                  :  0.000000E+00  0.000000E+00  0.000000E+00
   Multipole                     : -0.168956E+00 -0.307270E-01  0.358418E-01
   Pulay + GGA                   : -0.136350E+01 -0.281914E+01  0.154272E+00
   Van der Waals                 :  0.585549E-02 -0.346746E-02 -0.844558E-02
   ----------------------------------------------------------------
   Total forces(   8)            : -0.565476E-01  0.481292E-01 -0.374307E-02
  atom #    9
   Hellmann-Feynman              :  0.317847E-03  0.493309E+00  0.387106E+00
   Ionic forces                  :  0.000000E+00  0.000000E+00  0.000000E+00
   Multipole                     : -0.192542E+00  0.348137E+00  0.557798E+00
   Pulay + GGA                   :  0.228153E+00 -0.855534E+00 -0.968417E+00
   Van der Waals                 : -0.188563E-02  0.138333E-01  0.113912E-06
   ----------------------------------------------------------------
   Total forces(   9)            :  0.340431E-01 -0.255406E-03 -0.235125E-01
  atom #   10
   Hellmann-Feynman              : -0.186235E+01  0.350527E+00  0.440668E+00
   Ionic forces                  :  0.000000E+00  0.000000E+00  0.000000E+00
   Multipole                     : -0.539280E-01  0.596539E-01 -0.574116E-01
   Pulay + GGA                   :  0.193027E+01 -0.381288E+00 -0.379782E+00
   Van der Waals                 : -0.973397E-02 -0.827246E-02 -0.315300E-02
   ----------------------------------------------------------------
   Total forces(  10)            :  0.425167E-02  0.206204E-01  0.320909E-03
  atom #   11
   Hellmann-Feynman              :  0.310591E+01 -0.291313E+01 -0.132638E+02
   Ionic forces                  :  0.000000E+00  0.000000E+00  0.000000E+00
   Multipole                     :  0.169227E+00 -0.121993E+00 -0.102145E+01
   Pulay + GGA                   : -0.318526E+01  0.300633E+01  0.142391E+02
   Van der Waals                 : -0.209133E-02  0.423167E-02  0.154096E-02
   ----------------------------------------------------------------
   Total forces(  11)            :  0.877780E-01 -0.245572E-01 -0.446005E-01
  atom #   12
   Hellmann-Feynman              : -0.199559E+00 -0.136055E+00  0.859194E-02
   Ionic forces                  :  0.000000E+00  0.000000E+00  0.000000E+00
   Multipole                     :  0.365384E-01 -0.708222E-01 -0.117455E+00
   Pulay + GGA                   : -0.411822E-01  0.135113E+00  0.165920E+00
   Van der Waals                 :  0.351865E-02  0.550031E-02  0.674692E-02
   ----------------------------------------------------------------
   Total forces(  12)            : -0.200684E+00 -0.662640E-01  0.638037E-01
  atom #   13
   Hellmann-Feynman              : -0.148158E-02 -0.744792E-01 -0.425762E-01
   Ionic forces                  :  0.000000E+00  0.000000E+00  0.000000E+00
   Multipole                     : -0.703256E-01  0.119968E+00 -0.117389E+00
   Pulay + GGA                   :  0.239140E-01 -0.100128E+00  0.584220E-01
   Van der Waals                 :  0.135959E-02 -0.105854E-02  0.176958E-02
   ----------------------------------------------------------------
   Total forces(  13)            : -0.465336E-01 -0.556985E-01 -0.997739E-01
  atom #   14
   Hellmann-Feynman              :  0.455588E-01 -0.202425E-01 -0.138697E+00
   Ionic forces                  :  0.000000E+00  0.000000E+00  0.000000E+00
   Multipole                     : -0.993447E-01  0.583490E-01  0.530305E-01
   Pulay + GGA                   :  0.100011E+00 -0.124976E+00  0.305086E-01
   Van der Waals                 :  0.325981E-02  0.971170E-02  0.529062E-02
   ----------------------------------------------------------------
   Total forces(  14)            :  0.494845E-01 -0.771581E-01 -0.498672E-01
  atom #   15
   Hellmann-Feynman              :  0.282199E+00 -0.201973E+00 -0.213971E+00
   Ionic forces                  :  0.000000E+00  0.000000E+00  0.000000E+00
   Multipole                     : -0.112035E-01 -0.232542E-02  0.125605E+00
   Pulay + GGA                   : -0.140531E+00  0.138132E-01 -0.943422E-01
   Van der Waals                 :  0.149435E-02  0.433169E-02  0.235715E-02
   ----------------------------------------------------------------
   Total forces(  15)            :  0.131959E+00 -0.186154E+00 -0.180350E+00
  atom #   16
   Hellmann-Feynman              :  0.157638E+00 -0.105189E+00 -0.123951E+00
   Ionic forces                  :  0.000000E+00  0.000000E+00  0.000000E+00
   Multipole                     :  0.111192E-01  0.105718E+00  0.614818E-01
   Pulay + GGA                   : -0.628098E-01 -0.689678E-01  0.846573E-02
   Van der Waals                 : -0.503731E-02  0.181593E-02  0.372906E-02
   ----------------------------------------------------------------
   Total forces(  16)            :  0.100910E+00 -0.666232E-01 -0.502744E-01
  atom #   17
   Hellmann-Feynman              : -0.177133E+01 -0.659612E+00 -0.104566E+01
   Ionic forces                  :  0.000000E+00  0.000000E+00  0.000000E+00
   Multipole                     :  0.620400E+00 -0.818199E-01  0.391464E+00
   Pulay + GGA                   :  0.119605E+01  0.811883E+00  0.741823E+00
   Van der Waals                 : -0.501274E-02 -0.515271E-02 -0.412251E-02
   ----------------------------------------------------------------
   Total forces(  17)            :  0.401017E-01  0.652991E-01  0.835027E-01
  atom #   18
   Hellmann-Feynman              :  0.274727E+01 -0.536642E+00 -0.686801E+00
   Ionic forces                  :  0.000000E+00  0.000000E+00  0.000000E+00
   Multipole                     :  0.534516E+00 -0.644969E-01  0.815192E-01
   Pulay + GGA                   : -0.323410E+01  0.598546E+00  0.590956E+00
   Van der Waals                 : -0.833006E-02  0.180935E-02  0.464422E-02
   ----------------------------------------------------------------
   Total forces(  18)            :  0.393573E-01 -0.783280E-03 -0.968173E-02
  atom #   19
   Hellmann-Feynman              : -0.112778E+00  0.127978E+00  0.204690E+00
   Ionic forces                  :  0.000000E+00  0.000000E+00  0.000000E+00
   Multipole                     : -0.560638E-01  0.161698E-01  0.127217E+00
   Pulay + GGA                   :  0.619742E-01 -0.517503E-01 -0.211533E+00
   Van der Waals                 :  0.337023E-02 -0.642094E-02 -0.375729E-02
   ----------------------------------------------------------------
   Total forces(  19)            : -0.103498E+00  0.859761E-01  0.116617E+00
  atom #   20
   Hellmann-Feynman              : -0.126387E+00  0.640347E-01  0.295387E-01
   Ionic forces                  :  0.000000E+00  0.000000E+00  0.000000E+00
   Multipole                     :  0.125173E+00 -0.688532E-01  0.694797E-01
   Pulay + GGA                   : -0.126942E-01  0.216939E-01 -0.985257E-01
   Van der Waals                 : -0.164126E-02 -0.630491E-03 -0.332157E-02
   ----------------------------------------------------------------
   Total forces(  20)            : -0.155494E-01  0.162450E-01 -0.282895E-02
  atom #   21
   Hellmann-Feynman              : -0.179115E+00 -0.229231E-01  0.182665E-01
   Ionic forces                  :  0.000000E+00  0.000000E+00  0.000000E+00
   Multipole                     :  0.962667E-01 -0.104513E+00 -0.891510E-01
   Pulay + GGA                   : -0.676212E-01  0.952535E-01  0.438097E-01
   Van der Waals                 :  0.397291E-02 -0.182384E-02  0.341383E-02
   ----------------------------------------------------------------
   Total forces(  21)            : -0.146496E+00 -0.340069E-01 -0.236609E-01
  atom #   22
   Hellmann-Feynman              : -0.269690E-01  0.166849E-01  0.595206E-01
   Ionic forces                  :  0.000000E+00  0.000000E+00  0.000000E+00
   Multipole                     :  0.938463E-01  0.860793E-01 -0.200598E-01
   Pulay + GGA                   : -0.695172E-01 -0.844579E-01 -0.379971E-02
   Van der Waals                 :  0.191581E-02  0.122613E-02 -0.196652E-02
   ----------------------------------------------------------------
   Total forces(  22)            : -0.723970E-03  0.195325E-01  0.336945E-01

  Timings for VdW correction (Tkatchenko-Scheffler 2009 or later):
  | CPU time:        0.144 s, Wall clock time:        0.146 s.
  Removing unitary transformations (pure translations, rotations) from forces on atoms.
  Atomic forces before filtering:
  | Net force on center of mass :   0.193799E-02 -0.218180E-02  0.227127E-02 eV/A
  | Net torque on center of mass:   0.312385E-02 -0.108953E-01  0.301027E-03 eV
  Atomic forces after filtering:
  | Net force on center of mass :   0.782269E-16  0.250884E-16 -0.223008E-16 eV/A
  | Net torque on center of mass:   0.101600E-15 -0.944085E-16  0.180151E-15 eV

  Energy and forces in a compact form:
  | Total energy uncorrected      :         -0.134821674884983E+05 eV
  | Total energy corrected        :         -0.134821674884983E+05 eV  <-- do not rely on this value for anything but (periodic) metals
  | Electronic free energy        :         -0.134821674884983E+05 eV
  Total atomic forces (unitary forces cleaned) [eV/Ang]:
  |   1          0.244484879540519E-01          0.405041635207865E-02          0.270055760296440E-01
  |   2         -0.553119157075438E-01          0.183594017646485E-01          0.101828548622920E+00
  |   3         -0.903675966320409E-01          0.685800137601711E-01          0.106657405257984E+00
  |   4          0.572695274872820E-02         -0.117813943062996E+00         -0.696930976167815E-01
  |   5          0.530098508523669E-01          0.482621513194781E-01         -0.344496771227376E-01
  |   6          0.181846468212365E+00          0.219567038691592E+00         -0.972785030659220E-02
  |   7         -0.359612787190039E-01          0.131304888015813E-01          0.716678914686636E-01
  |   8         -0.566650697667473E-01          0.482247378485430E-01         -0.382612922573889E-02
  |   9          0.340255856651017E-01         -0.151925454408952E-03         -0.235720274430293E-01
  |  10          0.410992255126066E-02          0.207192269065956E-01          0.123997418189606E-03
  |  11          0.875454927582635E-01         -0.244656261628700E-01         -0.448188327963250E-01
  |  12         -0.200886237769809E+00         -0.661780488982942E-01          0.637571410845158E-01
  |  13         -0.467159260974616E-01         -0.556096549421956E-01         -0.998418596669776E-01
  |  14          0.494660550219844E-01         -0.770587061745047E-01         -0.498451541333997E-01
  |  15          0.132016847790509E+00         -0.186042747146481E+00         -0.180418863398486E+00
  |  16          0.100891780220278E+00         -0.665173754867334E-01         -0.503839406619646E-01
  |  17          0.400397018300735E-01          0.654086965473560E-01          0.832358608670582E-01
  |  18          0.392804113786131E-01         -0.669696174657758E-03         -0.100588565632360E-01
  |  19         -0.103487341567493E+00          0.860911310742671E-01          0.116373379251588E+00
  |  20         -0.155535972845114E-01          0.163666715291275E-01         -0.323678293040557E-02
  |  21         -0.146636585720795E+00         -0.338986730765754E-01         -0.240468007299323E-01
  |  22         -0.822007718189159E-03          0.196464219842783E-01          0.332700725950428E-01

  ------------------------------------ 
  Start decomposition of the XC Energy 
  ------------------------------------ 
  X and C from original XC functional choice 
  Hartree-Fock Energy :          0.000000000 Ha              0.000000000 eV
  X Energy            :        -64.832317856 Ha          -1764.177129197 eV
  C Energy            :         -2.587258708 Ha            -70.402891508 eV
  Total XC Energy     :        -67.419576564 Ha          -1834.580020705 eV
  ------------------------------------ 
  LDA X and C from self-consistent density 
  X Energy LDA        :        -58.812131882 Ha          -1600.359533902 eV
  C Energy LDA        :         -5.049497020 Ha           -137.403804953 eV
  ------------------------------------ 
  End decomposition of the XC Energy 
  ------------------------------------ 

------------------------------------------------------------

------------------------------------------------------------------------------
  Final output of selected total energy values:

  The following output summarizes some interesting total energy values
  at the end of a run (AFTER all relaxation, molecular dynamics, etc.).

  | Total energy of the DFT / Hartree-Fock s.c.f. calculation      :         -13482.167488498 eV
  | Final zero-broadening corrected energy (caution - metals only) :         -13482.167488498 eV
  | For reference only, the value of 1 Hartree used in FHI-aims is :             27.211384500 eV

  Before relying on these values, please be sure to understand exactly which
  total energy value is referred to by a given number. Different objects may
  all carry the same name 'total energy'. Definitions:

  Total energy of the DFT / Hartree-Fock s.c.f. calculation:
  | Note that this energy does not include ANY quantities calculated after the
  | s.c.f. cycle, in particular not ANY RPA, MP2, etc. many-body perturbation terms.

  Final zero-broadening corrected energy:
  | For metallic systems only, a broadening of the occupation numbers at the Fermi
  | level can be extrapolated back to zero broadening by an electron-gas inspired
  | formula. For all systems that are not real metals, this value can be
  | meaningless and should be avoided.

------------------------------------------------------------------------------
  Methods described in the following list of references were used in this FHI-aims run.
  If you publish the results, please make sure to cite these reference if they apply.
  FHI-aims is an academic code, and for our developers (often, Ph.D. students
  and postdocs), scientific credit in the community is essential.
  Thank you for helping us!

  For any use of FHI-aims, please cite:

    Volker Blum, Ralf Gehrke, Felix Hanke, Paula Havu, Ville Havu,
    Xinguo Ren, Karsten Reuter, and Matthias Scheffler
    'Ab initio molecular simulations with numeric atom-centered orbitals'
    Computer Physics Communications 180, 2175-2196 (2009)
    http://dx.doi.org/10.1016/j.cpc.2009.06.022


  For the real-space grid partitioning and parallelization used in this calculation, please cite:

    Ville Havu, Volker Blum, Paula Havu, and Matthias Scheffler,
    'Efficient O(N) integration for all-electron electronic structure calculation'
    'using numerically tabulated basis functions'
    Journal of Computational Physics 228, 8367-8379 (2009).
    http://dx.doi.org/10.1016/j.jcp.2009.08.008

  Of course, there are many other important community references, e.g., those cited in the
  above references. Our list is limited to references that describe implementations in the
  FHI-aims code. The reason is purely practical (length of this list) - please credit others as well.

------------------------------------------------------------
          Leaving FHI-aims.
          Date     :  20180216, Time     :  134522.436

          Computational steps:
          | Number of self-consistency cycles          :           14
          | Number of SCF (re)initializations          :            1

          Detailed time accounting                     :  max(cpu_time)    wall_clock(cpu1)
          | Total time                                 :       29.736 s          29.752 s
          | Preparation time                           :        0.304 s           0.313 s
          | Boundary condition initalization           :        0.000 s           0.000 s
          | Grid partitioning                          :        0.156 s           0.155 s
          | Preloading free-atom quantities on grid    :        0.008 s           0.009 s
          | Free-atom superposition energy             :        0.064 s           0.062 s
          | Total time for integrations                :        8.844 s           8.828 s
          | Total time for solution of K.-S. equations :        0.172 s           0.166 s
          | Total time for density & force components  :        9.260 s           9.238 s
          | Total time for mixing                      :        0.324 s           0.306 s
          | Total time for Hartree multipole update    :        0.280 s           0.263 s
          | Total time for Hartree multipole sum       :        9.860 s           9.849 s
          | Total time for total energy evaluation     :        0.008 s           0.017 s
          | Total time for vdW correction              :        0.144 s           0.146 s

          Partial memory accounting:
          | Residual value for overall tracked memory usage across tasks :           0.000 MB (should be 0.000 MB)
          | Peak values for overall tracked memory usage (after allocating hessian_basis_wave):
          |   Minimum:        4.012 MB (on task 3)
          |   Maximum:        4.090 MB (on task 5)
          |   Average:        4.053 MB
          | Largest tracked array allocation (hessian_basis_wave):
          |   Minimum:        1.750 MB (on task 3)
          |   Maximum:        1.797 MB (on task 5)
          |   Average:        1.775 MB
          Note:  These values currently only include a subset of arrays which are explicitly tracked.
          The "true" memory usage will be greater.

          Have a nice day.
------------------------------------------------------------
