  MPI-parallelism will be employed.
------------------------------------------------------------
          Invoking FHI-aims ...

          When using FHI-aims, please cite the following reference:

          Volker Blum, Ralf Gehrke, Felix Hanke, Paula Havu,
          Ville Havu, Xinguo Ren, Karsten Reuter, and Matthias Scheffler,
          'Ab Initio Molecular Simulations with Numeric Atom-Centered Orbitals',
          Computer Physics Communications 180, 2175-2196 (2009)

          For any questions about FHI-aims, please visit the aimsclub website
          with its forums and wiki. Contributions to both the forums and the
          wiki are warmly encouraged - they are for you, and everyone is welcome there.

------------------------------------------------------------



  Date     :  20190817, Time     :  154507.620
  Time zero on CPU 1             :   0.244740000000000E-01  s.
  Internal wall clock time zero  :           335288707.620  s.

  FHI-aims created a unique identifier for this run for later identification
  aims_uuid : 581B1E11-ABE2-4E69-AD49-470E571298F7

  Build configuration of the current instance of FHI-aims
  -------------------------------------------------------
  FHI-aims version      : 190813
  Commit number         : 3da7baeb3
  CMake host system     : Linux-4.4.180-94.97-default
  CMake version         : 3.5.2
  Fortran compiler      : /mpcdf/soft/SLE_12_SP3/packages/x86_64/intel_parallel_studio/2018.4/compilers_and_libraries_2018.5.274/linux/mpi/bin64/mpiifort (Intel) version 18.0.5.20180823
  Fortran compiler flags: -O3 -ip -fp-model precise
  C compiler            : /mpcdf/soft/SLE_12_SP3/packages/skylake/intel/18.0.5/bin/icc (Intel) version 18.0.5.20180823
  C compiler flags      : -O3 -ip -fp-model precise
  Architecture          :
  Using MPI
  Using Scalapack
  Using C files
  Using SPGlib
  Using i-PI
  Linking against: /mpcdf/soft/SLE_12_SP3/packages/x86_64/anaconda/3.5.1.0/lib/libmkl_intel_lp64.so
                   /mpcdf/soft/SLE_12_SP3/packages/x86_64/anaconda/3.5.1.0/lib/libmkl_sequential.so
                   /mpcdf/soft/SLE_12_SP3/packages/x86_64/anaconda/3.5.1.0/lib/libmkl_core.so
                   /mpcdf/soft/SLE_12_SP3/packages/x86_64/anaconda/3.5.1.0/lib/libmkl_blacs_intelmpi_lp64.so
                   /mpcdf/soft/SLE_12_SP3/packages/x86_64/anaconda/3.5.1.0/lib/libmkl_scalapack_lp64.so

  Using        8 parallel tasks.
  Task        0 on host co1631 reporting.
  Task        1 on host co1631 reporting.
  Task        2 on host co1631 reporting.
  Task        3 on host co1631 reporting.
  Task        4 on host co1631 reporting.
  Task        5 on host co1631 reporting.
  Task        6 on host co1631 reporting.
  Task        7 on host co1631 reporting.

  Performing system and environment tests:
  | Environment variable OMP_NUM_THREADS correctly set to 1.
  | Maximum stacksize for task 0: unlimited
  | Maximum stacksize for task 1: unlimited
  | Maximum stacksize for task 2: unlimited
  | Maximum stacksize for task 3: unlimited
  | Maximum stacksize for task 4: unlimited
  | Maximum stacksize for task 5: unlimited
  | Maximum stacksize for task 6: unlimited
  | Maximum stacksize for task 7: unlimited
  | Current stacksize for task 0: unlimited
  | Current stacksize for task 1: unlimited
  | Current stacksize for task 2: unlimited
  | Current stacksize for task 3: unlimited
  | Current stacksize for task 4: unlimited
  | Current stacksize for task 5: unlimited
  | Current stacksize for task 6: unlimited
  | Current stacksize for task 7: unlimited
  | Checking for scalapack...
  | Testing pdtran()...
  | All pdtran() tests passed.

  Obtaining array dimensions for all initial allocations:
  
  -----------------------------------------------------------------------
  Parsing control.in (first pass over file, find array dimensions only).
  The contents of control.in will be repeated verbatim below
  unless switched off by setting 'verbatim_writeout .false.' .
  in the first line of control.in .
  -----------------------------------------------------------------------
  
  #########################################################################################
  #
  #  Volker Blum, FHI 2008 : Test run input file control.in for simple H2O
  #
  #########################################################################################
  #
  #  Physical model
  #
    xc                 pbe
    spin               none
    relativistic       none
    charge             1.
  #
  #  SCF convergence
  #
    occupation_type    gaussian 0.01
    mixer              pulay
      n_max_pulay        10
      charge_mix_param   0.5
    sc_accuracy_rho    1E-5
    sc_accuracy_eev    1E-4
    sc_accuracy_etot   1E-6
  #  sc_accuracy_forces 1E-4
    sc_iter_limit      100
  #
  #  Eigenvalue solution
  #
  #  KS_method          lapack
  #    empty_states       3
  #    basis_threshold    1.e-5
    packed_matrix_format index
    use_local_index if_scalapack
    load_balancing .false.
  #
  #  Relaxation
  #
  #  relax_geometry   bfgs 1.e-5
  #
  #  distributed_spline_storage .true.
  #  communication_type shmem
       use_hartree_non_periodic_ewald gridspacing 0.5
  #
  #  MD
  #
    MD_run       0.005 NVT_nose-hoover 300 900
    MD_time_step  0.001
  #  MD_MB_init    600
    MD_thermostat_units cm^-1
    MD_clean_rotations  .true.
    MD_restart     .false.
    output dipole
    output_level MD_light
  ################################################################################
  #
  #  FHI-aims code project
  #  VB, Fritz-Haber Institut, 2009
  #
  #  Suggested "light" defaults for H atom (to be pasted into control.in file)
  #  Be sure to double-check any results obtained with these settings for post-processing,
  #  e.g., with the "aims_standard" defaults and larger basis sets.
  #
  ################################################################################
    species        H
  #     global species definitions
      nucleus             1
      mass                1.00794
  #
      l_hartree           4
  #
      cut_pot             3.5  1.5  1.0
      basis_dep_cutoff    1e-4
  #
      radial_base         24 5.0
      radial_multiplier   1
      angular_grids       specified
        division   0.2421   50
        division   0.3822  110
        division   0.4799  194
  #      division   0.5341  302
  #      division   0.5626  434
  #      division   0.5922  590
  #      division   0.6542  770
  #      division   0.6868 1202
  #      outer_grid  770
        outer_grid  194
  ################################################################################
  #
  #  Definition of "minimal" basis
  #
  ################################################################################
  #     valence basis states
      valence      1  s   1.
  #     ion occupancy
      ion_occ      1  s   0.5
  ################################################################################
  #
  #  Suggested additional basis functions. For production calculations,
  #  uncomment them one after another (the most important basis functions are
  #  listed first).
  #
  #  Basis constructed for dimers: 0.5 A, 0.7 A, 1.0 A, 1.5 A, 2.5 A
  #
  ################################################################################
  #  "First tier" - improvements: -1014.90 meV to -62.69 meV
       hydro 2 s 2.1
       hydro 2 p 3.5
  #  "Second tier" - improvements: -12.89 meV to -1.83 meV
  #     hydro 1 s 0.85
  #     hydro 2 p 3.7
  #     hydro 2 s 1.2
  #     hydro 3 d 7
  #  "Third tier" - improvements: -0.25 meV to -0.12 meV
  #     hydro 4 f 11.2
  #     hydro 3 p 4.8
  #     hydro 4 d 9
  #     hydro 3 s 3.2
  ################################################################################
  #
  #  FHI-aims code project
  #  VB, Fritz-Haber Institut, 2009
  #
  #  Suggested "light" defaults for O atom (to be pasted into control.in file)
  #  Be sure to double-check any results obtained with these settings for post-processing,
  #  e.g., with the "aims_standard" defaults and larger basis sets.
  #
  ################################################################################
    species        O
  #     global species definitions
      nucleus             8
      mass                15.9994
  #
      l_hartree           4
  #
      cut_pot             3.5  1.5  1.0
      basis_dep_cutoff    1e-4
  #
      radial_base         36 5.0
      radial_multiplier   1
       angular_grids specified
        division   0.2659   50
        division   0.4451  110
        division   0.6052  194
  #      division   0.7543  302
  #      division   0.8014  434
  #      division   0.8507  590
  #      division   0.8762  770
  #      division   0.9023  974
  #      division   1.2339 1202
  #      outer_grid 974
        outer_grid 194
  ################################################################################
  #
  #  Definition of "minimal" basis
  #
  ################################################################################
  #     valence basis states
      valence      2  s   2.
      valence      2  p   4.
  #     ion occupancy
      ion_occ      2  s   1.
      ion_occ      2  p   3.
  ################################################################################
  #
  #  Suggested additional basis functions. For production calculations,
  #  uncomment them one after another (the most important basis functions are
  #  listed first).
  #
  #  Constructed for dimers: 1.0 A, 1.208 A, 1.5 A, 2.0 A, 3.0 A
  #
  ################################################################################
  #  "First tier" - improvements: -699.05 meV to -159.38 meV
       hydro 2 p 1.8
       hydro 3 d 7.6
       hydro 3 s 6.4
  #  "Second tier" - improvements: -49.91 meV to -5.39 meV
  #     hydro 4 f 11.6
  #     hydro 3 p 6.2
  #     hydro 3 d 5.6
  #     hydro 5 g 17.6
  #     hydro 1 s 0.75
  #  "Third tier" - improvements: -2.83 meV to -0.50 meV
  #     ionic 2 p auto
  #     hydro 4 f 10.8
  #     hydro 4 d 4.7
  #     hydro 2 s 6.8
  #  "Fourth tier" - improvements: -0.40 meV to -0.12 meV
  #     hydro 3 p 5
  #     hydro 3 s 3.3
  #     hydro 5 g 15.6
  #     hydro 4 f 17.6
  #     hydro 4 d 14
  # Further basis functions - -0.08 meV and below
  #     hydro 3 s 2.1
  #     hydro 4 d 11.6
  #     hydro 3 p 16
  #     hydro 2 s 17.2
  
  -----------------------------------------------------------------------
  Completed first pass over input file control.in .
  -----------------------------------------------------------------------
  
  
  -----------------------------------------------------------------------
  Parsing geometry.in (first pass over file, find array dimensions only).
  The contents of geometry.in will be repeated verbatim below
  unless switched off by setting 'verbatim_writeout .false.' .
  in the first line of geometry.in .
  -----------------------------------------------------------------------
  
     atom               0.13653169       -1.42167286       -0.89038905  H
       velocity           5.68918407          6.05835636         14.17088722
     atom               1.60777812       -0.97592555       -0.28273782  H
       velocity          14.32140451         11.03229116         -1.78362558
     atom               3.41185678       -1.68527470        0.53487569  H
       velocity         -10.29451145         11.24358745        -16.65598163
     atom               3.58513613       -0.37429751       -0.32374851  H
       velocity           8.35383347        -37.90609635          9.85270107
     atom               0.41131003       -0.93977977       -0.11788910  O
       velocity          -2.02517827         -2.52367011         -1.04832838
     atom               2.94337023       -0.95785919        0.08987083  O
       velocity           1.56017900          1.95293604          0.38778110
     atom               0.16618329       -0.02285293       -0.08985620  H
       velocity         -10.68880720         18.63133189          4.90112740
  
  -----------------------------------------------------------------------
  Completed first pass over input file geometry.in .
  -----------------------------------------------------------------------
  

  Basic array size parameters:
  | Number of species                 :        2
  | Number of atoms                   :        7
  | Max. basis fn. angular momentum   :        2
  | Max. atomic/ionic basis occupied n:        2
  | Max. number of basis fn. types    :        2
  | Max. radial fns per species/type  :        3
  | Max. logarithmic grid size        :     1301
  | Max. radial integration grid size :       36
  | Max. angular integration grid size:      194
  | Max. angular grid division number :        8
  | Radial grid for Hartree potential :     1301
  | Number of spin channels           :        1

------------------------------------------------------------
          Reading file control.in.
------------------------------------------------------------
  XC: Using PBE gradient-corrected functionals.
  Spin treatment: No spin polarisation.
  Non-relativistic treatment of kinetic energy.
  Charged system requested: Charge =   0.100000E+01.
  Occupation type: Gaussian broadening, width =   0.100000E-01 eV.
  Using pulay charge density mixing.
  Pulay mixing - number of memorized iterations:   10
  Charge density mixing - mixing parameter:     0.5000
  Convergence accuracy of self-consistent charge density:  0.1000E-04
  Convergence accuracy of sum of eigenvalues:  0.1000E-03
  Convergence accuracy of total energy:  0.1000E-05
  Maximum number of s.-c. iterations  :   100
 Using packed matrix format           2
  load_balancing requested false explicitly.
  Switch 'use_hartree_non_periodic_ewald' is enabled.
  | Use Ewald's decomposition of the Hartree potential in the non-periodic case.
  | Warning: This feature is experimental!
  Running Born-Oppenheimer  molecular dynamics in NVT ensemble with  Nose-Hoover thermostat
   | simulation time =       0.005000 ps
   | at temperature  =     300.000000 K
   | thermostat effective mass =     900.000000
  Molecular dynamics time step =       0.001000 ps
  Thermostat units for molecular dynamics: cm^-1
  Cleaning initialized velocities from rotations.
  Explicitly requesting no molecular dynamics restart.
  Dipole moment will be written out.
  Requested output level: MD_light            
 
  Reading configuration options for species H                   .
  | Found nuclear charge :   1.0000
  | Found atomic mass :    1.00794000000000      amu
  | Found l_max for Hartree potential  :   4
  | Found cutoff potl. onset [A], width [A], scale factor :    3.50000    1.50000    1.00000
  | Threshold for basis-dependent cutoff potential is   0.100000E-03
  | Found data for basic radial integration grid :    24 points, outermost radius =    5.000 A
  | Found multiplier for basic radial grid :   1
  | Found angular grid specification: user-specified.
  | Specified grid contains     4 separate shells.
  | Check grid settings after all constraints further below.
  | Found free-atom valence shell :  1 s   1.000
  | No ionic wave fns used. Skipping ion_occ.
  | Found hydrogenic basis function :  2 s   2.100
  | Found hydrogenic basis function :  2 p   3.500
  Species H                   : Missing cutoff potential type.
  Defaulting to exp(1/x)/(1-x)^2 type cutoff potential.
  Species H : No 'logarithmic' tag. Using default grid for free atom:
  | Default logarithmic grid data [bohr] : 0.1000E-03 0.1000E+03 0.1012E+01
  Species H : On-site basis accuracy parameter (for Gram-Schmidt orthonormalisation) not specified.
  Using default value basis_acc =  0.1000000E-03.
  Species H                   : Using default innermost maximum threshold i_radial=  2 for radial functions.
  Species H                   : Default cutoff onset for free atom density etc. : 0.35000000E+01 AA.
  Species H                   : Basic radial grid will be enhanced according to radial_multiplier =   1, to contain    24 grid points.
 
  Reading configuration options for species O                   .
  | Found nuclear charge :   8.0000
  | Found atomic mass :    15.9994000000000      amu
  | Found l_max for Hartree potential  :   4
  | Found cutoff potl. onset [A], width [A], scale factor :    3.50000    1.50000    1.00000
  | Threshold for basis-dependent cutoff potential is   0.100000E-03
  | Found data for basic radial integration grid :    36 points, outermost radius =    5.000 A
  | Found multiplier for basic radial grid :   1
  | Found angular grid specification: user-specified.
  | Specified grid contains     4 separate shells.
  | Check grid settings after all constraints further below.
  | Found free-atom valence shell :  2 s   2.000
  | Found free-atom valence shell :  2 p   4.000
  | No ionic wave fns used. Skipping ion_occ.
  | No ionic wave fns used. Skipping ion_occ.
  | Found hydrogenic basis function :  2 p   1.800
  | Found hydrogenic basis function :  3 d   7.600
  | Found hydrogenic basis function :  3 s   6.400
  Species O                   : Missing cutoff potential type.
  Defaulting to exp(1/x)/(1-x)^2 type cutoff potential.
  Species O : No 'logarithmic' tag. Using default grid for free atom:
  | Default logarithmic grid data [bohr] : 0.1000E-03 0.1000E+03 0.1012E+01
  Species O : On-site basis accuracy parameter (for Gram-Schmidt orthonormalisation) not specified.
  Using default value basis_acc =  0.1000000E-03.
  Species O                   : Using default innermost maximum threshold i_radial=  2 for radial functions.
  Species O                   : Default cutoff onset for free atom density etc. : 0.35000000E+01 AA.
  Species O                   : Basic radial grid will be enhanced according to radial_multiplier =   1, to contain    36 grid points.
 
  Finished reading input file 'control.in'. Consistency checks are next.
 
  MPI_IN_PLACE appears to work with this MPI implementation.
  | Keeping use_mpi_in_place .true. (see manual).
  Target number of points in a grid batch is not set. Defaulting to  100
  Method for grid partitioning is not set. Defaulting to parallel hash+maxmin partitioning.
  Batch size limit is not set. Defaulting to    200
  By default, will store active basis functions for each batch.
  If in need of memory, prune_basis_once .false. can be used to disable this option.
  communication_type for Hartree potential was not specified.
  Defaulting to calc_hartree .
  Pulay mixer: Number of initial linear mixing iterations not set.
  Defaulting to    0 iterations.
  Work space size for distributed Hartree potential not set.
  Defaulting to   0.200000E+03 MB.
  Algorithm-dependent basis array size parameters:
  | n_max_pulay                         :       10
  Presetting      1001 iterations before the initial mixing cycle
  is restarted anyway using the sc_init_iter criterion / keyword.
  Presetting a factor      1.000 between actual scf density residual
  and density convergence criterion sc_accuracy_rho below which sc_init_iter
  takes no effect.
  Geometry relaxation not requested: no relaxation will be performed.
  Force calculation: scf convergence accuracy of forces not set.
  Defaulting to 'sc_accuracy_forces not_checked'.
  Handling of forces: Unphysical translation and rotation will be removed from forces.
  Changed MD thermostat mass units, Q =   0.6509E+0000 amu*bohr^2
  No accuracy limit for integral partition fn. given. Defaulting to  0.1000E-14.
  No threshold value for u(r) in integrations given. Defaulting to  0.1000E-05.
  No accuracy for occupation numbers given. Defaulting to  0.1000E-12.
  No threshold value for occupation numbers given. Defaulting to  0.0000E+00.
  No accuracy for fermi level given. Defaulting to  0.1000E-19.
  Maximum # of iterations to find E_F not set. Defaulting to  200.
  Preferred method for the eigenvalue solver ('KS_method') not specified in 'control.in'.
  Calling BLACS routine to test compilation state
  Since ScaLAPACK support is enabled, defaulting to ELPA (via ELSI).
  Have scalapack: Storing only matrices local to each thread.
  Will not use alltoall communication since running on < 1024 CPUs.
  Threshold for basis singularities not set.
  Default threshold for basis singularities:  0.1000E-04
  partition_type (choice of integration weights) for integrals was not specified.
  | Using a version of the partition function of Stratmann and coworkers ('stratmann_sparse').
  | At each grid point, the set of atoms used to build the partition table is smoothly restricted to
  | only those atoms whose free-atom density would be non-zero at that grid point.
  Partitioning for Hartree potential was not defined. Using partition_type for integrals.
  | Adjusted default value of keyword multip_moments_threshold to:       0.10000000E-11
  | This value may affect high angular momentum components of the Hartree potential in periodic systems.
  No q(lm)/r^(l+1) cutoff set for long-range Hartree potential.
  | Using default value of  0.100000E-09 .
  | Verify using the multipole_threshold keyword.
  Defaulting to new monopole extrapolation.
  Density update method: automatic selection selected.
  Charge integration errors on the 3D integration grid will be compensated
  by explicit normalization and distribution of residual charges.
  Use the "compensate_multipole_errors" flag to change this behaviour.
------------------------------------------------------------


------------------------------------------------------------
          Reading geometry description geometry.in.
------------------------------------------------------------
 * Warning: Initial charge and total charge of the system are inconsistent.
 * Selected charge in control.in:     1.0000* Sum of initial charges in geometry.in:     0.0000
  Input structure read successfully.
  The structure contains        7 atoms,  and a total of         20.000 electrons.

  Input geometry:
  | No unit cell requested.
  | Atomic structure:
  |       Atom                x [A]            y [A]            z [A]
  |    1: Species H             0.13653169       -1.42167286       -0.89038905
  |    2: Species H             1.60777812       -0.97592555       -0.28273782
  |    3: Species H             3.41185678       -1.68527470        0.53487569
  |    4: Species H             3.58513613       -0.37429751       -0.32374851
  |    5: Species O             0.41131003       -0.93977977       -0.11788910
  |    6: Species O             2.94337023       -0.95785919        0.08987083
  |    7: Species H             0.16618329       -0.02285293       -0.08985620
  | The smallest distance between any two atoms is         0.94954083 AA.
  | The first atom of this pair is atom number                      5 .
  | The second atom of this pair is atom number                     7 .

  Number of empty states per atom not set in control.in - providing a guess from actual geometry.
  | Total number of empty states used during s.c.f. cycle:       14
  If you use a very high smearing, use empty_states (per atom!) in control.in to increase this value.

  Structure-dependent array size parameters: 
  | Maximum number of distinct radial functions  :        9
  | Maximum number of basis functions            :       53
  | Number of Kohn-Sham states (occupied + empty):       24
------------------------------------------------------------

------------------------------------------------------------
          Preparing all fixed parts of the calculation.
------------------------------------------------------------
  Determining machine precision:
    2.225073858507201E-308
  Setting up grids for atomic and cluster calculations.

  Creating wave function, potential, and density for free atoms.

  Species: H

  List of occupied orbitals and eigenvalues:
    n    l              occ      energy [Ha]    energy [eV]
    1    0           1.0000        -0.237589        -6.4651


  Species: O

  List of occupied orbitals and eigenvalues:
    n    l              occ      energy [Ha]    energy [eV]
    1    0           2.0000       -18.898188      -514.2459
    2    0           2.0000        -0.878505       -23.9053
    2    1           4.0000        -0.331779        -9.0282

  Creating fixed part of basis set: Ionic, confined, hydrogenic.
 
  H                    hydrogenic:
 
  List of hydrogenic basis orbitals: 
    n    l      effective z      eigenvalue [eV]  inner max. [A]     outer max. [A]     outer radius [A]   
    2    0         2.100000       -14.9728           0.193243           1.317208           4.583499
    2    1         3.500000       -41.6669           0.602369           0.602369           3.723403
 
 
  O                    hydrogenic:
 
  List of hydrogenic basis orbitals: 
    n    l      effective z      eigenvalue [eV]  inner max. [A]     outer max. [A]     outer radius [A]   
    2    1         1.800000       -10.9749           1.164242           1.164242           4.578029
    3    2         7.600000       -87.3180           0.624125           0.624125           3.251020
    3    0         6.400000       -61.9207           0.061167           1.081902           4.001998
 

  Adding cutoff potential to free-atom effective potential.
  Creating atomic-like basis functions for current effective potential.

  Species H                   :

  List of atomic basis orbitals and eigenvalues:
    n    l      energy [Ha]    energy [eV]    outer radius [A]
    1    0        -0.237589        -6.4651       4.527807


  Species O                   :

  List of atomic basis orbitals and eigenvalues:
    n    l      energy [Ha]    energy [eV]    outer radius [A]
    1    0       -18.898188      -514.2459       1.415765
    2    0        -0.878505       -23.9053       4.413171
    2    1        -0.331779        -9.0282       4.522403

  Assembling full basis from fixed parts.
  | Species H :   atomic orbital   1 s accepted.
  | Species H :    hydro orbital   2 s accepted.
  | Species H :    hydro orbital   2 p accepted.
  | Species O :   atomic orbital   1 s accepted.
  | Species O :    hydro orbital   3 s accepted.
  | Species O :   atomic orbital   2 s accepted.
  | Species O :   atomic orbital   2 p accepted.
  | Species O :    hydro orbital   2 p accepted.
  | Species O :    hydro orbital   3 d accepted.
 
  Basis size parameters after reduction:
  | Total number of radial functions:        9
  | Total number of basis functions :       53
 
  Per-task memory consumption for arrays in subroutine allocate_ext:
  |           2.250088MB.
  Testing on-site integration grid accuracy.
  |  Species  Function  <phi|h_atom|phi> (log., in eV)  <phi|h_atom|phi> (rad., in eV)
           1        1                 -6.4663192853                 -6.4651273558
           1        2                 13.7111246313                 13.7170609718
           1        3                 25.2673269279                 25.2674696378
           2        4               -514.2458688638               -514.2457643834
           2        5                 15.1795651126                 15.1795290741
           2        6                -21.5359799773                -21.5360846185
           2        7                 -9.0283069236                 -9.0284644067
           2        8                  8.3027758563                  8.2834874195
           2        9                 45.8339351984                 45.8338762260

  Preparing densities etc. for the partition functions (integrals / Hartree potential).

  Preparations completed.
  max(cpu_time)          :      0.091 s.
  Wall clock time (cpu1) :      0.091 s.
------------------------------------------------------------

------------------------------------------------------------
          Begin self-consistency loop: Initialization.

          Date     :  20190817, Time     :  154507.777
------------------------------------------------------------

  Initializing index lists of integration centers etc. from given atomic structure:
  | Number of centers in hartree potential         :         7
  | Number of centers in hartree multipole         :         7
  | Number of centers in electron density summation:         7
  | Number of centers in basis integrals           :         7
  | Number of centers in integrals                 :         7
  | Number of centers in hamiltonian               :         7
  
  ========== Bounding box determination for Ewald-like Hartree potential interpolation grid ============
  
  
  Grid origin:                            16.78274989          -13.86661335           -8.24437767
  
  Grid size in each direction:         22        23        27
  
  Number of cubes in grid    :      13662
  
  Total grid extension (pm)  :          1100.00000000         1150.00000000         1350.00000000
  
  Corner points in pm :
          888.10487642         -733.78957646         -436.27367757
         -441.74874505         -638.87833639         -648.36139992
          976.49613467          412.05853410         -477.73562402
         -353.35748680          506.96977417         -689.82334636
          718.70479765         -681.43948158          649.34277444
         -611.14882382         -586.52824151          437.25505210
          807.09605590          464.40862897          607.88082799
         -522.75756557          559.31986904          395.79310565
  
  ==========================================================
  
  * Using 8 tasks for Scalapack Eigenvalue solver.
  Detailed listing of tasks and assigned k-points:
  (for non-periodic systems, the "k-point" denotes an internal label only)
   Task     0 k-point     1 on co1631
   Task     1 k-point     1 on co1631
   Task     2 k-point     1 on co1631
   Task     3 k-point     1 on co1631
   Task     4 k-point     1 on co1631
   Task     5 k-point     1 on co1631
   Task     6 k-point     1 on co1631
   Task     7 k-point     1 on co1631
  Tasks:     8 split into      4 X      2 BLACS grid
  Calculating block size based on n_basis =           53  max_nprow =            4  max_npcol =            2
  ScaLAPACK block size set to:            8
  Allocating        0.004 MB for ovlp
  Allocating        0.004 MB for ham
  Allocating        0.004 MB for eigenvec
  Required Scalapack workspace - INTEGER:            1  REAL:             1
  Partitioning the integration grid into batches with parallel hashing+maxmin method.
  | Number of batches:      341
  | Maximal batch size:     158
  | Minimal batch size:      50
  | Average batch size:      76.575
  | Standard deviation of batch sizes:      15.956

  Integration load balanced across      8 MPI tasks.
  Work distribution over tasks is as follows:
  Task      0 has       3381 integration points.
  Task      1 has       3264 integration points.
  Task      2 has       3240 integration points.
  Task      3 has       3235 integration points.
  Task      4 has       3341 integration points.
  Task      5 has       3215 integration points.
  Task      6 has       3289 integration points.
  Task      7 has       3147 integration points.
  Initializing partition tables, free-atom densities, potentials, etc. across the integration grid (initialize_grid_storage).
  | initialize_grid_storage: Actual outermost partition radius vs. multipole_radius_free
  | (-- VB: in principle, multipole_radius_free should be larger, hence this output)
  | Species        1: Confinement radius =              4.999999999999999 AA, multipole_radius_free =              5.054417573612229 AA.
  | Species        1: outer_partition_radius set to              5.054417573612229 AA .
  | Species        2: Confinement radius =              4.999999999999999 AA, multipole_radius_free =              5.048384829883283 AA.
  | Species        2: outer_partition_radius set to              5.048384829883283 AA .
  | The sparse table of interatomic distances needs          0.54 kbyte instead of         0.39 kbyte of memory.
  | Using the partition_type stratmann_smoother will reduce your memory usage.
  | Net number of integration points:    26112
  | of which are non-zero points    :    23346
  Renormalizing the initial density to the exact electron count on the 3D integration grid.
  | Initial density: Formal number of electrons (from input files) :      21.0000000000
  | Integrated number of electrons on 3D grid     :      20.9998968297
  | Charge integration error                      :      -0.0001031703
  | Normalization factor for density and gradient :       1.0000049129
  Renormalizing the free-atom superposition density to the exact electron count on the 3D integration grid.
  | Formal number of electrons (from input files) :      20.0000000000
  | Integrated number of electrons on 3D grid     :      20.9998968297
  | Charge integration error                      :      -0.0001031703
  | Normalization factor for density and gradient :       1.0000049129
  Obtaining max. number of non-zero basis functions in each batch (get_n_compute_maxes).
  | Maximal number of non-zero basis functions:       53 in task     0
  | Maximal number of non-zero basis functions:       53 in task     1
  | Maximal number of non-zero basis functions:       53 in task     2
  | Maximal number of non-zero basis functions:       53 in task     3
  | Maximal number of non-zero basis functions:       53 in task     4
  | Maximal number of non-zero basis functions:       53 in task     5
  | Maximal number of non-zero basis functions:       53 in task     6
  | Maximal number of non-zero basis functions:       53 in task     7
  Selecting the method for density update.
  Loop over occupied states selected for charge density update.
  Hamiltonian matrix size:
  | Size of matrix non-packed:                  1431
  | Size of matrix packed:            1432
  Allocating        0.010 MB for KS_eigenvector
  use_local_index: Max. local matrix size =         1431
  Task:     0 matrix size:       1431
  Task:     1 matrix size:       1431
  Task:     2 matrix size:       1431
  Task:     3 matrix size:       1431
  Task:     4 matrix size:       1431
  Task:     5 matrix size:       1431
  Task:     6 matrix size:       1431
  Task:     7 matrix size:       1431
  Integrating Hamiltonian matrix: batch-based integration.
  Time summed over all CPUs for integration: real work        0.095 s, elapsed        0.102 s
  Integrating overlap matrix.
  Time summed over all CPUs for integration: real work        0.036 s, elapsed        0.038 s

  Updating Kohn-Sham eigenvalues and eigenvectors using ELSI and the ELPA eigensolver.

  Obtaining occupation numbers and chemical potential using ELSI.
  | Chemical potential (Fermi level):    -6.40615175 eV
  Writing Kohn-Sham eigenvalues.

  State    Occupation    Eigenvalue [Ha]    Eigenvalue [eV]
      1       2.00000         -19.033677         -517.93271
      2       2.00000         -19.016542         -517.46644
      3       2.00000          -1.139349          -31.00326
      4       2.00000          -1.107628          -30.14010
      5       2.00000          -0.678925          -18.47448
      6       2.00000          -0.646189          -17.58369
      7       2.00000          -0.623968          -16.97903
      8       2.00000          -0.520775          -14.17101
      9       2.00000          -0.488481          -13.29226
     10       2.00000          -0.452002          -12.29961
     11       0.00000          -0.079891           -2.17393
     12       0.00000          -0.035995           -0.97946
     13       0.00000           0.028625            0.77894
     14       0.00000           0.032034            0.87170
     15       0.00000           0.056589            1.53987
     16       0.00000           0.176517            4.80328
     17       0.00000           0.202965            5.52295
     18       0.00000           0.268670            7.31087
     19       0.00000           0.319726            8.70017
     20       0.00000           0.387705           10.54999
     21       0.00000           0.419540           11.41626
     22       0.00000           0.464197           12.63144
     23       0.00000           0.570893           15.53478
     24       0.00000           0.689083           18.75089

  Highest occupied state (VBM) at    -12.29960972 eV
  | Occupation number:      2.00000000

  Lowest unoccupied state (CBM) at    -2.17393128 eV
  | Occupation number:      0.00000000

  Overall HOMO-LUMO gap:     10.12567845 eV.
  Calculating total energy contributions from superposition of free atom densities.

  Total energy components:
  | Sum of eigenvalues            :         -87.41507242 Ha       -2378.68514659 eV
  | XC energy correction          :         -18.43104565 Ha        -501.53426984 eV
  | XC potential correction       :          23.71016135 Ha         645.18631694 eV
  | Free-atom electrostatic energy:         -71.10400795 Ha       -1934.83849988 eV
  | Hartree energy correction     :           0.00000000 Ha           0.00000000 eV
  | Entropy correction            :           0.00000000 Ha           0.00000000 eV
  | ---------------------------
  | Total energy                  :        -153.23996467 Ha       -4169.87159937 eV
  | Total energy, T -> 0          :        -153.23996467 Ha       -4169.87159937 eV  <-- do not rely on this value for anything but (periodic) metals
  | Electronic free energy        :        -153.23996467 Ha       -4169.87159937 eV

  Derived energy quantities:
  | Kinetic energy                :         151.95445439 Ha        4134.89108497 eV
  | Electrostatic energy          :        -286.76337341 Ha       -7803.22841450 eV
  | Energy correction for multipole
  | error in Hartree potential    :           0.00000000 Ha           0.00000000 eV
  | Sum of eigenvalues per atom                           :        -339.81216380 eV
  | Total energy (T->0) per atom                          :        -595.69594277 eV  <-- do not rely on this value for anything but (periodic) metals
  | Electronic free energy per atom                       :        -595.69594277 eV
  Initialize hartree_potential_storage
  Max. number of atoms included in rho_multipole:            7

  End scf initialization - timings             :  max(cpu_time)    wall_clock(cpu1)
  | Time for scf. initialization               :        0.051 s           0.121 s
  | Boundary condition initialization          :        0.000 s           0.000 s
  | Integration                                :        0.018 s           0.018 s
  | Solution of K.-S. eqns.                    :        0.003 s           0.003 s
  | Grid partitioning                          :        0.011 s           0.012 s
  | Preloading free-atom quantities on grid    :        0.001 s           0.001 s
  | Free-atom superposition energy             :        0.003 s           0.003 s
  | Total energy evaluation                    :        0.000 s           0.000 s

  Partial memory accounting:
  | Current value for overall tracked memory usage:
  |   Minimum:        0.020 MB (on task 7)
  |   Maximum:        0.026 MB (on task 0)
  |   Average:        0.024 MB
  | Peak value for overall tracked memory usage:
  |   Minimum:        0.245 MB (on task 7 after allocating wave)
  |   Maximum:        0.251 MB (on task 0 after allocating wave)
  |   Average:        0.249 MB
  | Largest tracked array allocation so far:
  |   Minimum:        0.064 MB (H_times_psi on task 1)
  |   Maximum:        0.115 MB (all_coords on task 5)
  |   Average:        0.078 MB
  Note:  These values currently only include a subset of arrays which are explicitly tracked.
  The "true" memory usage will be greater.
------------------------------------------------------------
Convergence:    q app. |  density  | eigen (eV) | Etot (eV) | forces (eV/A) |       CPU time |     Clock time
  SCF    1 :  0.50E+00 |  0.38E+00 |   0.25E+02 |  0.34E+01 |             . |        0.054 s |        0.054 s
  SCF    2 :  0.68E+00 |  0.20E+00 |  -0.42E+02 |  0.58E+00 |             . |        0.053 s |        0.052 s
  SCF    3 :  0.10E+01 |  0.77E-01 |  -0.32E+02 |  0.22E+00 |             . |        0.052 s |        0.052 s
  SCF    4 :  0.10E+01 |  0.92E-02 |  -0.36E+00 |  0.13E-02 |             . |        0.053 s |        0.053 s
  SCF    5 :  0.10E+01 |  0.25E-02 |  -0.41E+00 |  0.10E-03 |             . |        0.053 s |        0.052 s
  SCF    6 :  0.10E+01 |  0.11E-02 |   0.25E+00 |  0.17E-04 |             . |        0.053 s |        0.052 s
  SCF    7 :  0.10E+01 |  0.26E-03 |   0.22E-01 |  0.24E-05 |             . |        0.053 s |        0.052 s
  SCF    8 :  0.10E+01 |  0.84E-04 |  -0.19E-01 |  0.28E-05 |             . |        0.053 s |        0.054 s
  SCF    9 :  0.10E+01 |  0.19E-04 |   0.44E-02 | -0.14E-06 |             . |        0.053 s |        0.053 s
  SCF   10 :  0.10E+01 |  0.18E-05 |   0.21E-03 | -0.11E-08 |             . |        0.054 s |        0.053 s
  SCF   11 :  0.10E+01 |  0.47E-06 |  -0.12E-03 |  0.13E-07 |             . |        0.053 s |        0.052 s
  SCF   12 :  0.10E+01 |  0.89E-07 |   0.15E-04 | -0.28E-09 |             . |        0.053 s |        0.053 s
  SCF   13 :  0.10E+01 |  0.93E-08 |   0.11E-05 | -0.12E-09 |      0.75E+01 |        0.117 s |        0.117 s

  Total energy components:
  | Sum of eigenvalues            :         -89.21871947 Ha       -2427.76488004 eV
  | XC energy correction          :         -18.57526603 Ha        -505.45870622 eV
  | XC potential correction       :          23.89901977 Ha         650.32541607 eV
  | Free-atom electrostatic energy:         -71.10400795 Ha       -1934.83849988 eV
  | Hartree energy correction     :           1.91430629 Ha          52.09092448 eV
  | Entropy correction            :           0.00000000 Ha           0.00000000 eV
  | ---------------------------
  | Total energy                  :        -153.08466740 Ha       -4165.64574559 eV
  | Total energy, T -> 0          :        -153.08466740 Ha       -4165.64574559 eV  <-- do not rely on this value for anything but (periodic) metals
  | Electronic free energy        :        -153.08466740 Ha       -4165.64574559 eV

  Derived energy quantities:
  | Kinetic energy                :         152.66352816 Ha        4154.18596395 eV
  | Electrostatic energy          :        -287.17292953 Ha       -7814.37300332 eV
  | Energy correction for multipole
  | error in Hartree potential    :           0.00416657 Ha           0.11337820 eV
  | Sum of eigenvalues per atom                           :        -346.82355429 eV
  | Total energy (T->0) per atom                          :        -595.09224937 eV  <-- do not rely on this value for anything but (periodic) metals
  | Electronic free energy per atom                       :        -595.09224937 eV
  Highest occupied state (VBM) at    -14.41904450 eV
  | Occupation number:      2.00000000

  Lowest unoccupied state (CBM) at    -6.44607203 eV
  | Occupation number:      0.00000000

  Overall HOMO-LUMO gap:      7.97297247 eV.

  Self-consistency cycle converged.

  ------------------------------------------------------------
  Computing monopole / dipole moments
  | Total electronic charge [e]         :          0.200000000000000E+02
  | Total ionic charge [e]              :          0.210000000000000E+02
  | Total charge [e]                    :          0.100000000000001E+01
 * Warning: The system has a total charge of      1.00000000 .
 * The dipole moment depends on the choice of the origin.
  | Total dipole moment [eAng]          :          0.171203380615138E+01        -0.834367445318603E+00        -0.412073680428549E+00
  | Absolute dipole moment              :          0.194859783057320E+01 eAng              /                   0.935805559297612E+01 Debye  .
  Removing unitary transformations (pure translations, rotations) from forces on atoms.
  Atomic forces before filtering:
  | Net force on center of mass :   0.338217E-02  0.152162E-02 -0.381109E-02 eV/A
  | Net torque on center of mass:   0.873548E-03 -0.496409E-02 -0.239666E-02 eV
  Atomic forces after filtering:
  | Net force on center of mass :   0.535218E-15  0.178406E-15 -0.133805E-15 eV/A
  | Net torque on center of mass:   0.472042E-16  0.283225E-15 -0.566451E-15 eV

  Energy and forces in a compact form:
  | Total energy uncorrected      :         -0.416564574559093E+04 eV
  | Total energy corrected        :         -0.416564574559093E+04 eV  <-- do not rely on this value for anything but (periodic) metals
  | Electronic free energy        :         -0.416564574559093E+04 eV
  Total atomic forces (unitary forces cleaned) [eV/Ang]:
  |    1         -0.137016320635880E+01         -0.348737322596690E+00         -0.133331775886112E+01
  |    2         -0.330370672227638E+00          0.139403757691824E+00          0.147765922350097E+01
  |    3         -0.298438277112269E-01         -0.212919794317098E+00          0.363148972248953E-01
  |    4          0.533001142270204E+00          0.399800953087447E+00         -0.382540477662131E+00
  |    5          0.345325938401435E+01         -0.138489917172798E+01          0.708345027983718E+00
  |    6         -0.137186779587959E+01         -0.121551319709460E+00         -0.172630232782006E+00
  |    7         -0.884015024107310E+00          0.152890289757196E+01         -0.333830679404332E+00

  Relaxation / MD: End force evaluation.       :  max(cpu_time)    wall_clock(cpu1)
  | Time for this force evaluation             :        0.810 s           0.882 s

------------------------------------------------------------
  Molecular dynamics: Attempting to update all nuclear coordinates.

  Removing unitary transformations (pure translations, rotations) from forces on atoms.
  Atomic forces before filtering:
  | Net force on center of mass :   0.535218E-15  0.178406E-15 -0.133805E-15 eV/A
  | Net torque on center of mass:   0.472042E-16  0.283225E-15 -0.566451E-15 eV
  Atomic forces after filtering:
  | Net force on center of mass :  -0.178406E-15  0.178406E-15 -0.892031E-16 eV/A
  | Net torque on center of mass:   0.283225E-15  0.472042E-15 -0.566451E-15 eV
  | Initial seed for random number generator from system time:                   154508

------------------------------------------------------------
  Advancing structure using Born-Oppenheimer Molecular Dynamics:
  Complete information for previous time-step:
  | Time step number          :        0
  | Simulation time           :           0.000000000000000E+00 ps
  | Electronic free energy    :          -0.416564574559093E+04 eV
  | Temperature (nuclei)      :           0.201123812752537E+03 K
  | Nuclear kinetic energy    :           0.181981052668586E+00 eV
  | Total energy (el.+nuc.)   :          -0.416546376453826E+04 eV
  | Thermostat value ln(s)    :           0.000000000000000E+00
  | Thermostat momentum pi    :           0.000000000000000E+00 eV ps
  | Nose-Hoover Hamiltonian   :          -0.416546376453826E+04 eV
------------------------------------------------------------
  Atomic structure (and velocities) as used in the preceding time step:
                      x [A]             y [A]             z [A]       Atom
   atom               0.13653169       -1.42167286       -0.89038905  H
     velocity           5.68918404          6.05835632         14.17088727
   atom               1.60777812       -0.97592555       -0.28273782  H
     velocity          14.32140450         11.03229114         -1.78362558
   atom               3.41185678       -1.68527470        0.53487569  H
     velocity         -10.29451146         11.24358747        -16.65598160
   atom               3.58513613       -0.37429751       -0.32374851  H
     velocity           8.35383347        -37.90609639          9.85270098
   atom               0.41131003       -0.93977977       -0.11788910  O
     velocity          -2.02517827         -2.52367011         -1.04832838
   atom               2.94337023       -0.95785919        0.08987083  O
     velocity           1.56017900          1.95293604          0.38778110
   atom               0.16618329       -0.02285293       -0.08985620  H
     velocity         -10.68880718         18.63133192          4.90112734
------------------------------------------------------------

------------------------------------------------------------
          Begin self-consistency loop: Re-initialization.

  Date     :  20190817, Time     :  154508.660
------------------------------------------------------------

  Initializing index lists of integration centers etc. from given atomic structure:
  | Number of centers in hartree potential         :         7
  | Number of centers in hartree multipole         :         7
  | Number of centers in electron density summation:         7
  | Number of centers in basis integrals           :         7
  | Number of centers in integrals                 :         7
  | Number of centers in hamiltonian               :         7
  Hamiltonian matrix size:
  | Size of matrix non-packed:                  1431
  | Size of matrix packed:            1432
  Partitioning the integration grid into batches with parallel hashing+maxmin method.
  Initializing partition tables, free-atom densities, potentials, etc. across the integration grid (initialize_grid_storage).
  | Species        1: outer_partition_radius set to              5.054417573612229 AA .
  | Species        2: outer_partition_radius set to              5.048384829883283 AA .
  | The sparse table of interatomic distances needs          0.54 kbyte instead of         0.39 kbyte of memory.
  | Using the partition_type stratmann_smoother will reduce your memory usage.
  | Net number of integration points:    26112
  | of which are non-zero points    :    23337
  Renormalizing the initial density to the exact electron count on the 3D integration grid.
  | Initial density: Formal number of electrons (from input files) :      21.0000000000
  | Integrated number of electrons on 3D grid     :      20.9999069333
  | Charge integration error                      :      -0.0000930667
  | Normalization factor for density and gradient :       1.0000044318
  Renormalizing the free-atom superposition density to the exact electron count on the 3D integration grid.
  | Formal number of electrons (from input files) :      20.0000000000
  | Integrated number of electrons on 3D grid     :      20.9999069333
  | Charge integration error                      :      -0.0000930667
  | Normalization factor for density and gradient :       1.0000044318
  Calculating total energy contributions from superposition of free atom densities.
  use_local_index: Max. local matrix size =         1431
  Initialize hartree_potential_storage
  Max. number of atoms included in rho_multipole:            7
  Integrating overlap matrix.
  Time summed over all CPUs for integration: real work        0.036 s, elapsed        0.038 s
  Normalizing  ScaLAPACK eigenvectors

  End scf reinitialization - timings           :  max(cpu_time)    wall_clock(cpu1)
  | Time for scf. reinitialization             :        0.024 s           0.024 s
  | Boundary condition initialization          :        0.001 s           0.000 s
  | Integration                                :        0.005 s           0.005 s
  | Grid partitioning                          :        0.007 s           0.006 s
  | Preloading free-atom quantities on grid    :        0.007 s           0.007 s
  | Free-atom superposition energy             :        0.003 s           0.004 s
  | K.-S. eigenvector reorthonormalization     :        0.001 s           0.001 s
------------------------------------------------------------
Convergence:    q app. |  density  | eigen (eV) | Etot (eV) | forces (eV/A) |       CPU time |     Clock time
  SCF    1 :  0.10E+01 |  0.25E+00 |  -0.24E+04 | -0.42E+04 |             . |        0.053 s |        0.053 s
  SCF    2 :  0.10E+01 |  0.17E-01 |   0.96E+00 |  0.36E-02 |             . |        0.052 s |        0.051 s
  SCF    3 :  0.10E+01 |  0.88E-02 |  -0.23E+00 |  0.94E-03 |             . |        0.052 s |        0.052 s
  SCF    4 :  0.10E+01 |  0.23E-02 |   0.35E-02 |  0.62E-04 |             . |        0.052 s |        0.052 s
  SCF    5 :  0.10E+01 |  0.39E-03 |   0.41E-01 |  0.26E-05 |             . |        0.052 s |        0.052 s
  SCF    6 :  0.10E+01 |  0.10E-03 |  -0.13E-01 |  0.56E-06 |             . |        0.052 s |        0.052 s
  SCF    7 :  0.10E+01 |  0.21E-04 |   0.30E-03 |  0.20E-07 |             . |        0.053 s |        0.054 s
  SCF    8 :  0.10E+01 |  0.35E-05 |  -0.13E-03 | -0.48E-07 |             . |        0.052 s |        0.052 s
  SCF    9 :  0.10E+01 |  0.41E-06 |   0.46E-04 | -0.26E-08 |             . |        0.053 s |        0.053 s
  SCF   10 :  0.10E+01 |  0.13E-06 |  -0.11E-04 | -0.56E-09 |      0.77E+01 |        0.117 s |        0.117 s

  Total energy components:
  | Sum of eigenvalues            :         -89.23824109 Ha       -2428.29609045 eV
  | XC energy correction          :         -18.58296228 Ha        -505.66813188 eV
  | XC potential correction       :          23.90911407 Ha         650.60009604 eV
  | Free-atom electrostatic energy:         -71.06430330 Ha       -1933.75808123 eV
  | Hartree energy correction     :           1.89269371 Ha          51.50281633 eV
  | Entropy correction            :           0.00000000 Ha           0.00000000 eV
  | ---------------------------
  | Total energy                  :        -153.08369889 Ha       -4165.61939119 eV
  | Total energy, T -> 0          :        -153.08369889 Ha       -4165.61939119 eV  <-- do not rely on this value for anything but (periodic) metals
  | Electronic free energy        :        -153.08369889 Ha       -4165.61939119 eV

  Derived energy quantities:
  | Kinetic energy                :         152.69672772 Ha        4155.08936983 eV
  | Electrostatic energy          :        -287.19746432 Ha       -7815.04062914 eV
  | Energy correction for multipole
  | error in Hartree potential    :           0.00393808 Ha           0.10716053 eV
  | Sum of eigenvalues per atom                           :        -346.89944149 eV
  | Total energy (T->0) per atom                          :        -595.08848446 eV  <-- do not rely on this value for anything but (periodic) metals
  | Electronic free energy per atom                       :        -595.08848446 eV
  Highest occupied state (VBM) at    -14.55531053 eV
  | Occupation number:      2.00000000

  Lowest unoccupied state (CBM) at    -6.46296745 eV
  | Occupation number:      0.00000000

  Overall HOMO-LUMO gap:      8.09234308 eV.

  Self-consistency cycle converged.

  ------------------------------------------------------------
  Computing monopole / dipole moments
  | Total electronic charge [e]         :          0.200000000000000E+02
  | Total ionic charge [e]              :          0.210000000000000E+02
  | Total charge [e]                    :          0.100000000000000E+01
 * Warning: The system has a total charge of      1.00000000 .
 * The dipole moment depends on the choice of the origin.
  | Total dipole moment [eAng]          :          0.172198341637807E+01        -0.825541424647465E+00        -0.407424591419883E+00
  | Absolute dipole moment              :          0.195262395964602E+01 eAng              /                   0.937739090121509E+01 Debye  .
  Removing unitary transformations (pure translations, rotations) from forces on atoms.
  Atomic forces before filtering:
  | Net force on center of mass :   0.257796E-02  0.336064E-02 -0.327684E-02 eV/A
  | Net torque on center of mass:   0.535328E-03 -0.340258E-02 -0.235319E-02 eV
  Atomic forces after filtering:
  | Net force on center of mass :  -0.446015E-15 -0.446015E-16 -0.892031E-16 eV/A
  | Net torque on center of mass:  -0.181441E-15 -0.472042E-15 -0.330430E-15 eV

  Energy and forces in a compact form:
  | Total energy uncorrected      :         -0.416561939119221E+04 eV
  | Total energy corrected        :         -0.416561939119221E+04 eV  <-- do not rely on this value for anything but (periodic) metals
  | Electronic free energy        :         -0.416561939119221E+04 eV
  Total atomic forces (unitary forces cleaned) [eV/Ang]:
  |    1         -0.152432570275950E+01         -0.663868289309721E+00         -0.187226437710636E+01
  |    2         -0.427668578803913E+00          0.688254612339440E-01          0.140115143497789E+01
  |    3          0.318590183233952E+00         -0.110030862388229E+01          0.579152730319499E+00
  |    4          0.119027450121780E+01          0.116974483097485E+01         -0.957805471559560E+00
  |    5          0.327964392399489E+01          0.621435778314900E+00          0.135348613175910E+01
  |    6         -0.239444022157110E+01          0.738590837813320E-02         -0.119985300680626E+00
  |    7         -0.442074105312140E+00         -0.103215065709824E+00         -0.383735147709935E+00

  Relaxation / MD: End force evaluation.       :  max(cpu_time)    wall_clock(cpu1)
  | Time for this force evaluation             :        0.619 s           0.620 s

------------------------------------------------------------
  Molecular dynamics: Attempting to update all nuclear coordinates.

  Removing unitary transformations (pure translations, rotations) from forces on atoms.
  Atomic forces before filtering:
  | Net force on center of mass :  -0.446015E-15 -0.446015E-16 -0.892031E-16 eV/A
  | Net torque on center of mass:  -0.181441E-15 -0.472042E-15 -0.330430E-15 eV
  Atomic forces after filtering:
  | Net force on center of mass :   0.356812E-15 -0.892031E-16  0.000000E+00 eV/A
  | Net torque on center of mass:   0.103259E-16 -0.188817E-15 -0.944085E-16 eV
  Cleaning translations and rotations from velocities
  | Net linear  momentum before cleaning:    0.7105E-014   0.0000E+000  -0.2220E-014
  | Net angular momentum before cleaning:   -0.6217E-014   0.5196E-013   0.4263E-013
  | Net linear  momentum after cleaning:     0.1421E-013   0.0000E+000  -0.8882E-015
  | Net angular momentum after cleaning:    -0.7994E-014  -0.1243E-013   0.4263E-013
  | Velocity rescaling factor to preserve kinetic energy before and after cleaning:   1.00000000
------------------------------------------------------------
  Advancing structure using Born-Oppenheimer Molecular Dynamics:
  Complete information for previous time-step:
  | Time step number          :        1
  | Simulation time           :           0.100000000000000E-02 ps
  | Electronic free energy    :          -0.416561939119221E+04 eV
  | Temperature (nuclei)      :           0.180815867155409E+03 K
  | Nuclear kinetic energy    :           0.163605996693246E+00 eV
  | Total energy (el.+nuc.)   :          -0.416545578519552E+04 eV
  | Thermostat value ln(s)    :          -0.499006075213488E-02
  | Thermostat momentum pi    :          -0.197710155788366E-03 eV ps
  | Nose-Hoover Hamiltonian   :          -0.416545745959632E+04 eV
------------------------------------------------------------
  Atomic structure (and velocities) as used in the preceding time step:
                      x [A]             y [A]             z [A]       Atom
   atom               0.13566965       -1.41727648       -0.88258299  H
     velocity          -8.18897415          1.22358350         -1.15949334
   atom               1.62053525       -0.96421297       -0.27745109  H
     velocity          10.75103600         12.08792116         12.03874388
   atom               3.40140723       -1.67503688        0.51837379  H
     velocity          -8.95872357          4.99040682        -13.78227956
   atom               3.59605095       -0.41033496       -0.31571508  H
     velocity          16.67512933        -30.55481488          3.46227576
   atom               0.41032371       -0.94272402       -0.11872508  O
     velocity           0.00259139         -2.76737830         -0.42950206
   atom               2.94451860       -0.95594059        0.09020702  O
     velocity           0.42800584          1.92815032          0.30115275
   atom               0.15125069        0.00311821       -0.08654707  H
     velocity         -17.11349483         25.57427586          1.47808882
------------------------------------------------------------
          Begin self-consistency loop: Re-initialization.

  Date     :  20190817, Time     :  154509.284
------------------------------------------------------------
  Hamiltonian matrix size:
  | Size of matrix non-packed:                  1431
  | Size of matrix packed:            1432
  Partitioning the integration grid into batches with parallel hashing+maxmin method.
  Initializing partition tables, free-atom densities, potentials, etc. across the integration grid (initialize_grid_storage).
  | Species        1: outer_partition_radius set to              5.054417573612229 AA .
  | Species        2: outer_partition_radius set to              5.048384829883283 AA .
  | The sparse table of interatomic distances needs          0.54 kbyte instead of         0.39 kbyte of memory.
  | Using the partition_type stratmann_smoother will reduce your memory usage.
  | Net number of integration points:    26112
  | of which are non-zero points    :    23351
  Renormalizing the initial density to the exact electron count on the 3D integration grid.
  | Initial density: Formal number of electrons (from input files) :      21.0000000000
  | Integrated number of electrons on 3D grid     :      20.9999073486
  | Charge integration error                      :      -0.0000926514
  | Normalization factor for density and gradient :       1.0000044120
  Renormalizing the free-atom superposition density to the exact electron count on the 3D integration grid.
  | Formal number of electrons (from input files) :      20.0000000000
  | Integrated number of electrons on 3D grid     :      20.9999073486
  | Charge integration error                      :      -0.0000926514
  | Normalization factor for density and gradient :       1.0000044120
  Calculating total energy contributions from superposition of free atom densities.
  use_local_index: Max. local matrix size =         1431
  Initialize hartree_potential_storage
  Max. number of atoms included in rho_multipole:            7
  Integrating overlap matrix.
  Time summed over all CPUs for integration: real work        0.036 s, elapsed        0.038 s
  Normalizing  ScaLAPACK eigenvectors

  End scf reinitialization - timings           :  max(cpu_time)    wall_clock(cpu1)
  | Time for scf. reinitialization             :        0.027 s           0.023 s
  | Boundary condition initialization          :        0.004 s           0.000 s
  | Integration                                :        0.005 s           0.005 s
  | Grid partitioning                          :        0.007 s           0.007 s
  | Preloading free-atom quantities on grid    :        0.007 s           0.007 s
  | Free-atom superposition energy             :        0.003 s           0.003 s
  | K.-S. eigenvector reorthonormalization     :        0.000 s           0.000 s
------------------------------------------------------------
Convergence:    q app. |  density  | eigen (eV) | Etot (eV) | forces (eV/A) |       CPU time |     Clock time
  SCF    1 :  0.10E+01 |  0.25E+00 |  -0.24E+04 | -0.42E+04 |             . |        0.053 s |        0.053 s
  SCF    2 :  0.10E+01 |  0.14E-01 |  -0.16E+01 |  0.23E-02 |             . |        0.053 s |        0.053 s
  SCF    3 :  0.10E+01 |  0.75E-02 |   0.32E+00 |  0.69E-03 |             . |        0.053 s |        0.053 s
  SCF    4 :  0.10E+01 |  0.19E-02 |  -0.34E-01 |  0.82E-04 |             . |        0.053 s |        0.052 s
  SCF    5 :  0.10E+01 |  0.34E-03 |  -0.47E-01 |  0.62E-05 |             . |        0.052 s |        0.052 s
  SCF    6 :  0.10E+01 |  0.85E-04 |   0.81E-02 |  0.44E-06 |             . |        0.053 s |        0.054 s
  SCF    7 :  0.10E+01 |  0.18E-04 |   0.73E-03 | -0.54E-06 |             . |        0.053 s |        0.053 s
  SCF    8 :  0.10E+01 |  0.22E-05 |  -0.79E-04 | -0.47E-07 |             . |        0.053 s |        0.053 s
  SCF    9 :  0.10E+01 |  0.41E-06 |   0.19E-04 |  0.49E-08 |      0.75E+01 |        0.118 s |        0.118 s

  Total energy components:
  | Sum of eigenvalues            :         -89.18870626 Ha       -2426.94817902 eV
  | XC energy correction          :         -18.56765542 Ha        -505.25161089 eV
  | XC potential correction       :          23.88901571 Ha         650.05319189 eV
  | Free-atom electrostatic energy:         -71.14490219 Ha       -1935.95128881 eV
  | Hartree energy correction     :           1.92742123 Ha          52.44780017 eV
  | Entropy correction            :           0.00000000 Ha           0.00000000 eV
  | ---------------------------
  | Total energy                  :        -153.08482693 Ha       -4165.65008666 eV
  | Total energy, T -> 0          :        -153.08482693 Ha       -4165.65008666 eV  <-- do not rely on this value for anything but (periodic) metals
  | Electronic free energy        :        -153.08482693 Ha       -4165.65008666 eV

  Derived energy quantities:
  | Kinetic energy                :         152.64119394 Ha        4153.57821882 eV
  | Electrostatic energy          :        -287.15836545 Ha       -7813.97669458 eV
  | Energy correction for multipole
  | error in Hartree potential    :           0.00349308 Ha           0.09505148 eV
  | Sum of eigenvalues per atom                           :        -346.70688272 eV
  | Total energy (T->0) per atom                          :        -595.09286952 eV  <-- do not rely on this value for anything but (periodic) metals
  | Electronic free energy per atom                       :        -595.09286952 eV
  Highest occupied state (VBM) at    -14.59991052 eV
  | Occupation number:      2.00000000

  Lowest unoccupied state (CBM) at    -6.55040312 eV
  | Occupation number:      0.00000000

  Overall HOMO-LUMO gap:      8.04950740 eV.

  Self-consistency cycle converged.

  ------------------------------------------------------------
  Computing monopole / dipole moments
  | Total electronic charge [e]         :          0.200000000000000E+02
  | Total ionic charge [e]              :          0.210000000000000E+02
  | Total charge [e]                    :          0.100000000000001E+01
 * Warning: The system has a total charge of      1.00000000 .
 * The dipole moment depends on the choice of the origin.
  | Total dipole moment [eAng]          :          0.172575097134043E+01        -0.820933016533542E+00        -0.409558826430273E+00
  | Absolute dipole moment              :          0.195445283008423E+01 eAng              /                   0.938617397125889E+01 Debye  .
  Removing unitary transformations (pure translations, rotations) from forces on atoms.
  Atomic forces before filtering:
  | Net force on center of mass :   0.199130E-02  0.180573E-02 -0.419599E-02 eV/A
  | Net torque on center of mass:   0.512832E-03 -0.391373E-02  0.299297E-03 eV
  Atomic forces after filtering:
  | Net force on center of mass :   0.490617E-15  0.000000E+00 -0.133805E-15 eV/A
  | Net torque on center of mass:  -0.944085E-16  0.377634E-15 -0.436639E-15 eV

  Energy and forces in a compact form:
  | Total energy uncorrected      :         -0.416565008666013E+04 eV
  | Total energy corrected        :         -0.416565008666013E+04 eV  <-- do not rely on this value for anything but (periodic) metals
  | Electronic free energy        :         -0.416565008666013E+04 eV
  Total atomic forces (unitary forces cleaned) [eV/Ang]:
  |    1         -0.117759688919616E+01         -0.300186450721484E+00         -0.126125333537138E+01
  |    2         -0.512926974685109E+00         -0.769145711584384E-02          0.120327890923671E+01
  |    3          0.390727263650632E+00         -0.149092342141981E+01          0.817180146590423E+00
  |    4          0.107431096318081E+01          0.120567539149246E+01         -0.101220680576760E+01
  |    5          0.260143049573790E+01          0.163456240037187E+01          0.891671254708161E+00
  |    6         -0.234644532475253E+01          0.364967175921467E+00         -0.241486185219885E+00
  |    7         -0.294995339355468E-01         -0.140640363852867E+01         -0.397183984176423E+00

  Relaxation / MD: End force evaluation.       :  max(cpu_time)    wall_clock(cpu1)
  | Time for this force evaluation             :        0.571 s           0.571 s

------------------------------------------------------------
  Molecular dynamics: Attempting to update all nuclear coordinates.

  Removing unitary transformations (pure translations, rotations) from forces on atoms.
  Atomic forces before filtering:
  | Net force on center of mass :   0.490617E-15  0.000000E+00 -0.133805E-15 eV/A
  | Net torque on center of mass:  -0.944085E-16  0.377634E-15 -0.436639E-15 eV
  Atomic forces after filtering:
  | Net force on center of mass :   0.345662E-15  0.000000E+00 -0.446015E-16 eV/A
  | Net torque on center of mass:  -0.472042E-16  0.377634E-15  0.767069E-16 eV
  Cleaning translations and rotations from velocities
  | Net linear  momentum before cleaning:    0.2132E-013  -0.2132E-013  -0.3553E-014
  | Net angular momentum before cleaning:   -0.1021E-013   0.7105E-014   0.8527E-013
  | Net linear  momentum after cleaning:     0.7105E-014  -0.3553E-014   0.0000E+000
  | Net angular momentum after cleaning:    -0.7105E-014  -0.3553E-014   0.1421E-013
  | Velocity rescaling factor to preserve kinetic energy before and after cleaning:   1.00000000
------------------------------------------------------------
  Advancing structure using Born-Oppenheimer Molecular Dynamics:
  Complete information for previous time-step:
  | Time step number          :        2
  | Simulation time           :           0.200000000000000E-02 ps
  | Electronic free energy    :          -0.416565008666013E+04 eV
  | Temperature (nuclei)      :           0.221340636811440E+03 K
  | Nuclear kinetic energy    :           0.200273659961098E+00 eV
  | Total energy (el.+nuc.)   :          -0.416544981300017E+04 eV
  | Thermostat value ln(s)    :          -0.206986843264404E-01
  | Thermostat momentum pi    :          -0.377421932625487E-03 eV ps
  | Nose-Hoover Hamiltonian   :          -0.416545727968314E+04 eV
------------------------------------------------------------
  Atomic structure (and velocities) as used in the preceding time step:
                      x [A]             y [A]             z [A]       Atom
   atom               0.12013013       -1.41922216       -0.89271138  H
     velocity         -21.36828687         -3.41320476        -16.31201507
   atom               1.62931120       -0.95171485       -0.25862561  H
     velocity           6.37839503         12.57456808         24.80814372
   atom               3.39391350       -1.67527949        0.50727138  H
     velocity          -5.67472515         -7.44563167         -7.25652562
   atom               3.61853448       -0.43549526       -0.31681397  H
     velocity          27.87656349        -19.56584984         -5.99760968
   atom               0.41131522       -0.94532251       -0.11874934  O
     velocity           1.79205922         -2.12476364          0.24682888
   atom               2.94422748       -0.95399733        0.09047400  O
     velocity          -1.00772072          2.07197344          0.19593634
   atom               0.13190695        0.02836938       -0.08689576  H
     velocity         -19.66203817         18.68807623         -2.27016742
------------------------------------------------------------
          Begin self-consistency loop: Re-initialization.

  Date     :  20190817, Time     :  154509.857
------------------------------------------------------------
  Hamiltonian matrix size:
  | Size of matrix non-packed:                  1431
  | Size of matrix packed:            1432
  Partitioning the integration grid into batches with parallel hashing+maxmin method.
  Initializing partition tables, free-atom densities, potentials, etc. across the integration grid (initialize_grid_storage).
  | Species        1: outer_partition_radius set to              5.054417573612229 AA .
  | Species        2: outer_partition_radius set to              5.048384829883283 AA .
  | The sparse table of interatomic distances needs          0.54 kbyte instead of         0.39 kbyte of memory.
  | Using the partition_type stratmann_smoother will reduce your memory usage.
  | Net number of integration points:    26112
  | of which are non-zero points    :    23379
  Renormalizing the initial density to the exact electron count on the 3D integration grid.
  | Initial density: Formal number of electrons (from input files) :      21.0000000000
  | Integrated number of electrons on 3D grid     :      20.9999072457
  | Charge integration error                      :      -0.0000927543
  | Normalization factor for density and gradient :       1.0000044169
  Renormalizing the free-atom superposition density to the exact electron count on the 3D integration grid.
  | Formal number of electrons (from input files) :      20.0000000000
  | Integrated number of electrons on 3D grid     :      20.9999072457
  | Charge integration error                      :      -0.0000927543
  | Normalization factor for density and gradient :       1.0000044169
  Calculating total energy contributions from superposition of free atom densities.
  use_local_index: Max. local matrix size =         1431
  Initialize hartree_potential_storage
  Max. number of atoms included in rho_multipole:            7
  Integrating overlap matrix.
  Time summed over all CPUs for integration: real work        0.036 s, elapsed        0.038 s
  Normalizing  ScaLAPACK eigenvectors

  End scf reinitialization - timings           :  max(cpu_time)    wall_clock(cpu1)
  | Time for scf. reinitialization             :        0.025 s           0.023 s
  | Boundary condition initialization          :        0.002 s           0.000 s
  | Integration                                :        0.005 s           0.005 s
  | Grid partitioning                          :        0.007 s           0.007 s
  | Preloading free-atom quantities on grid    :        0.007 s           0.007 s
  | Free-atom superposition energy             :        0.003 s           0.004 s
  | K.-S. eigenvector reorthonormalization     :        0.000 s           0.000 s
------------------------------------------------------------
Convergence:    q app. |  density  | eigen (eV) | Etot (eV) | forces (eV/A) |       CPU time |     Clock time
  SCF    1 :  0.10E+01 |  0.24E+00 |  -0.24E+04 | -0.42E+04 |             . |        0.052 s |        0.051 s
  SCF    2 :  0.10E+01 |  0.15E-01 |  -0.34E+01 |  0.32E-02 |             . |        0.052 s |        0.052 s
  SCF    3 :  0.10E+01 |  0.73E-02 |   0.80E+00 |  0.61E-03 |             . |        0.052 s |        0.053 s
  SCF    4 :  0.10E+01 |  0.23E-02 |  -0.19E+00 |  0.11E-03 |             . |        0.051 s |        0.051 s
  SCF    5 :  0.10E+01 |  0.51E-03 |  -0.26E-01 |  0.99E-05 |             . |        0.052 s |        0.052 s
  SCF    6 :  0.10E+01 |  0.13E-03 |   0.68E-02 |  0.14E-05 |             . |        0.052 s |        0.052 s
  SCF    7 :  0.10E+01 |  0.25E-04 |   0.13E-02 | -0.78E-06 |             . |        0.052 s |        0.052 s
  SCF    8 :  0.10E+01 |  0.30E-05 |  -0.11E-03 | -0.19E-07 |             . |        0.052 s |        0.052 s
  SCF    9 :  0.10E+01 |  0.52E-06 |   0.23E-04 |  0.28E-08 |             . |        0.052 s |        0.051 s
  SCF   10 :  0.10E+01 |  0.10E-06 |  -0.18E-04 |  0.13E-08 |      0.69E+01 |        0.114 s |        0.114 s

  Total energy components:
  | Sum of eigenvalues            :         -89.09060750 Ha       -2424.27877614 eV
  | XC energy correction          :         -18.53534467 Ha        -504.37239065 eV
  | XC potential correction       :          23.84660620 Ha         648.89917022 eV
  | Free-atom electrostatic energy:         -71.31448822 Ha       -1940.56595935 eV
  | Hartree energy correction     :           2.00596103 Ha          54.58497691 eV
  | Entropy correction            :           0.00000000 Ha           0.00000000 eV
  | ---------------------------
  | Total energy                  :        -153.08787317 Ha       -4165.73297901 eV
  | Total energy, T -> 0          :        -153.08787317 Ha       -4165.73297901 eV  <-- do not rely on this value for anything but (periodic) metals
  | Electronic free energy        :        -153.08787317 Ha       -4165.73297901 eV

  Derived energy quantities:
  | Kinetic energy                :         152.51885301 Ha        4150.24915288 eV
  | Electrostatic energy          :        -287.07138151 Ha       -7811.60974124 eV
  | Energy correction for multipole
  | error in Hartree potential    :           0.00290017 Ha           0.07891774 eV
  | Sum of eigenvalues per atom                           :        -346.32553945 eV
  | Total energy (T->0) per atom                          :        -595.10471129 eV  <-- do not rely on this value for anything but (periodic) metals
  | Electronic free energy per atom                       :        -595.10471129 eV
  Highest occupied state (VBM) at    -14.54997850 eV
  | Occupation number:      2.00000000

  Lowest unoccupied state (CBM) at    -6.64979875 eV
  | Occupation number:      0.00000000

  Overall HOMO-LUMO gap:      7.90017975 eV.

  Self-consistency cycle converged.

  ------------------------------------------------------------
  Computing monopole / dipole moments
  | Total electronic charge [e]         :          0.200000000000000E+02
  | Total ionic charge [e]              :          0.210000000000000E+02
  | Total charge [e]                    :          0.100000000000001E+01
 * Warning: The system has a total charge of      1.00000000 .
 * The dipole moment depends on the choice of the origin.
  | Total dipole moment [eAng]          :          0.172710278520827E+01        -0.826721003796094E+00        -0.416466334758935E+00
  | Absolute dipole moment              :          0.195953970533371E+01 eAng              /                   0.941060346647450E+01 Debye  .
  Removing unitary transformations (pure translations, rotations) from forces on atoms.
  Atomic forces before filtering:
  | Net force on center of mass :   0.361131E-02  0.141705E-02 -0.300826E-02 eV/A
  | Net torque on center of mass:   0.500393E-03 -0.273202E-02 -0.271594E-04 eV
  Atomic forces after filtering:
  | Net force on center of mass :   0.579820E-15 -0.356812E-15 -0.446015E-16 eV/A
  | Net torque on center of mass:  -0.708063E-16  0.283225E-15 -0.944085E-15 eV

  Energy and forces in a compact form:
  | Total energy uncorrected      :         -0.416573297900699E+04 eV
  | Total energy corrected        :         -0.416573297900699E+04 eV  <-- do not rely on this value for anything but (periodic) metals
  | Electronic free energy        :         -0.416573297900699E+04 eV
  Total atomic forces (unitary forces cleaned) [eV/Ang]:
  |    1         -0.493747457624383E+00          0.384291235391638E+00         -0.160059583498549E-01
  |    2         -0.550685360015416E+00         -0.826462983162455E-01          0.905020212356403E+00
  |    3          0.541886986420714E-01         -0.107297672663875E+01          0.590275686395735E+00
  |    4          0.157089738878667E+00          0.602171076107662E+00         -0.542083701196519E+00
  |    5          0.166261608721232E+01          0.165504209751522E+01         -0.205165428126973E+00
  |    6         -0.107830129813345E+01          0.543669698803861E+00         -0.386872278271364E+00
  |    7          0.248839591040195E+00         -0.202955108286339E+01         -0.345168532807427E+00

  Relaxation / MD: End force evaluation.       :  max(cpu_time)    wall_clock(cpu1)
  | Time for this force evaluation             :        0.610 s           0.610 s

------------------------------------------------------------
  Molecular dynamics: Attempting to update all nuclear coordinates.

[...]
  Cleaning translations and rotations from velocities
  | Net linear  momentum before cleaning:    0.1421E-013  -0.2487E-013   0.1954E-013
  | Net angular momentum before cleaning:   -0.3553E-014   0.0000E+000  -0.5684E-013
  | Net linear  momentum after cleaning:     0.0000E+000   0.8882E-014  -0.5329E-014
  | Net angular momentum after cleaning:    -0.1132E-013   0.0000E+000  -0.1421E-013
  | Velocity rescaling factor to preserve kinetic energy before and after cleaning:   1.00000000
------------------------------------------------------------
  Advancing structure using Born-Oppenheimer Molecular Dynamics:
  Complete information for previous time-step:
  | Time step number          :        3
  | Simulation time           :           0.300000000000000E-02 ps
  | Electronic free energy    :          -0.416573297900699E+04 eV
  | Temperature (nuclei)      :           0.318295718515187E+03 K
  | Nuclear kinetic energy    :           0.288000655529374E+00 eV
  | Total energy (el.+nuc.)   :          -0.416544497835146E+04 eV
  | Thermostat value ln(s)    :          -0.433150605848662E-01
  | Thermostat momentum pi    :          -0.433152800977355E-03 eV ps
  | Nose-Hoover Hamiltonian   :          -0.416546352757320E+04 eV
------------------------------------------------------------
  Atomic structure (and velocities) as used in the preceding time step:
                      x [A]             y [A]             z [A]       Atom
   atom               0.09289067       -1.42410966       -0.91523939  H
     velocity         -29.95058003         -3.08399977        -22.87028714
   atom               1.63330470       -0.93903887       -0.22778557  H
     velocity           1.37373394         12.42473745         35.58508135
   atom               3.39004652       -1.68994292        0.50384633  H
     velocity          -3.65001603        -20.03167383         -0.60688294
   atom               3.65185940       -0.44950549       -0.32772220  H
     velocity          34.47729278        -11.25887295        -13.66147774
   atom               0.41391138       -0.94697776       -0.11823094  O
     velocity           3.13389151         -1.16979986          0.46190847
   atom               2.94250116       -0.95179253        0.09059928  O
     velocity          -2.07556520          2.39656744          0.00872371
   atom               0.11188759        0.04053145       -0.09109191  H
     velocity         -19.04963094          2.47687905         -5.91695013
------------------------------------------------------------
          Begin self-consistency loop: Re-initialization.

  Date     :  20190817, Time     :  154510.469
------------------------------------------------------------
  Hamiltonian matrix size:
  | Size of matrix non-packed:                  1431
  | Size of matrix packed:            1432
  Partitioning the integration grid into batches with parallel hashing+maxmin method.
  Initializing partition tables, free-atom densities, potentials, etc. across the integration grid (initialize_grid_storage).
  | Species        1: outer_partition_radius set to              5.054417573612229 AA .
  | Species        2: outer_partition_radius set to              5.048384829883283 AA .
  | The sparse table of interatomic distances needs          0.54 kbyte instead of         0.39 kbyte of memory.
  | Using the partition_type stratmann_smoother will reduce your memory usage.
  | Net number of integration points:    26112
  | of which are non-zero points    :    23419
  Renormalizing the initial density to the exact electron count on the 3D integration grid.
  | Initial density: Formal number of electrons (from input files) :      21.0000000000
  | Integrated number of electrons on 3D grid     :      20.9999288832
  | Charge integration error                      :      -0.0000711168
  | Normalization factor for density and gradient :       1.0000033865
  Renormalizing the free-atom superposition density to the exact electron count on the 3D integration grid.
  | Formal number of electrons (from input files) :      20.0000000000
  | Integrated number of electrons on 3D grid     :      20.9999288832
  | Charge integration error                      :      -0.0000711168
  | Normalization factor for density and gradient :       1.0000033865
  Calculating total energy contributions from superposition of free atom densities.
  use_local_index: Max. local matrix size =         1431
  Initialize hartree_potential_storage
  Max. number of atoms included in rho_multipole:            7
  Integrating overlap matrix.
  Time summed over all CPUs for integration: real work        0.036 s, elapsed        0.038 s
  Normalizing  ScaLAPACK eigenvectors

  End scf reinitialization - timings           :  max(cpu_time)    wall_clock(cpu1)
  | Time for scf. reinitialization             :        0.025 s           0.023 s
  | Boundary condition initialization          :        0.002 s           0.000 s
  | Integration                                :        0.005 s           0.005 s
  | Grid partitioning                          :        0.007 s           0.007 s
  | Preloading free-atom quantities on grid    :        0.007 s           0.007 s
  | Free-atom superposition energy             :        0.003 s           0.003 s
  | K.-S. eigenvector reorthonormalization     :        0.000 s           0.000 s
------------------------------------------------------------
Convergence:    q app. |  density  | eigen (eV) | Etot (eV) | forces (eV/A) |       CPU time |     Clock time
  SCF    1 :  0.10E+01 |  0.24E+00 |  -0.24E+04 | -0.42E+04 |             . |        0.052 s |        0.052 s
  SCF    2 :  0.10E+01 |  0.17E-01 |  -0.36E+01 |  0.39E-02 |             . |        0.053 s |        0.054 s
  SCF    3 :  0.10E+01 |  0.79E-02 |   0.87E+00 |  0.70E-03 |             . |        0.052 s |        0.052 s
  SCF    4 :  0.10E+01 |  0.25E-02 |  -0.22E+00 |  0.10E-03 |             . |        0.053 s |        0.053 s
  SCF    5 :  0.10E+01 |  0.46E-03 |  -0.26E-01 |  0.61E-05 |             . |        0.053 s |        0.053 s
  SCF    6 :  0.10E+01 |  0.18E-03 |   0.96E-02 |  0.11E-05 |             . |        0.053 s |        0.053 s
  SCF    7 :  0.10E+01 |  0.30E-04 |   0.13E-02 | -0.92E-06 |             . |        0.053 s |        0.053 s
  SCF    8 :  0.10E+01 |  0.42E-05 |  -0.62E-04 | -0.48E-07 |             . |        0.053 s |        0.053 s
  SCF    9 :  0.10E+01 |  0.66E-06 |   0.33E-04 |  0.70E-09 |      0.62E+01 |        0.118 s |        0.118 s

  Total energy components:
  | Sum of eigenvalues            :         -88.99303406 Ha       -2421.62366763 eV
  | XC energy correction          :         -18.50324106 Ha        -503.49880685 eV
  | XC potential correction       :          23.80447125 Ha         647.75261994 eV
  | Free-atom electrostatic energy:         -71.48008811 Ha       -1945.07216163 eV
  | Hartree energy correction     :           2.08254298 Ha          56.66887768 eV
  | Entropy correction            :           0.00000000 Ha           0.00000000 eV
  | ---------------------------
  | Total energy                  :        -153.08934900 Ha       -4165.77313850 eV
  | Total energy, T -> 0          :        -153.08934900 Ha       -4165.77313850 eV  <-- do not rely on this value for anything but (periodic) metals
  | Electronic free energy        :        -153.08934900 Ha       -4165.77313850 eV

  Derived energy quantities:
  | Kinetic energy                :         152.39813283 Ha        4146.96418956 eV
  | Electrostatic energy          :        -286.98424078 Ha       -7809.23852121 eV
  | Energy correction for multipole
  | error in Hartree potential    :           0.00219579 Ha           0.05975046 eV
  | Sum of eigenvalues per atom                           :        -345.94623823 eV
  | Total energy (T->0) per atom                          :        -595.11044836 eV  <-- do not rely on this value for anything but (periodic) metals
  | Electronic free energy per atom                       :        -595.11044836 eV
  Highest occupied state (VBM) at    -14.44480226 eV
  | Occupation number:      2.00000000

  Lowest unoccupied state (CBM) at    -6.70995536 eV
  | Occupation number:      0.00000000

  Overall HOMO-LUMO gap:      7.73484690 eV.

  Self-consistency cycle converged.

  ------------------------------------------------------------
  Computing monopole / dipole moments
  | Total electronic charge [e]         :          0.200000000000000E+02
  | Total ionic charge [e]              :          0.210000000000000E+02
  | Total charge [e]                    :          0.100000000000000E+01
 * Warning: The system has a total charge of      1.00000000 .
 * The dipole moment depends on the choice of the origin.
  | Total dipole moment [eAng]          :          0.172397815893230E+01        -0.842762607781047E+00        -0.423348687164201E+00
  | Absolute dipole moment              :          0.196508870447956E+01 eAng              /                   0.943725229142831E+01 Debye  .
  Removing unitary transformations (pure translations, rotations) from forces on atoms.
  Atomic forces before filtering:
  | Net force on center of mass :   0.360315E-02  0.238620E-03 -0.949261E-03 eV/A
  | Net torque on center of mass:   0.780387E-03 -0.218388E-02 -0.396083E-02 eV
  Atomic forces after filtering:
  | Net force on center of mass :   0.892031E-16  0.000000E+00 -0.446015E-15 eV/A
  | Net torque on center of mass:   0.141613E-15  0.330430E-15  0.708063E-15 eV

  Energy and forces in a compact form:
  | Total energy uncorrected      :         -0.416577313850427E+04 eV
  | Total energy corrected        :         -0.416577313850427E+04 eV  <-- do not rely on this value for anything but (periodic) metals
  | Electronic free energy        :         -0.416577313850427E+04 eV
  Total atomic forces (unitary forces cleaned) [eV/Ang]:
  |    1          0.217086936629341E+00          0.883784096579970E+00          0.106177381191461E+01
  |    2         -0.519816632431529E+00         -0.146782831434247E+00          0.541761254000450E+00
  |    3         -0.462794395765918E+00         -0.167147597634632E+00          0.110136682055040E+00
  |    4         -0.916824222074509E+00         -0.798067254925751E-01          0.526319849765363E-01
  |    5          0.786752052721438E+00          0.119256182856034E+01         -0.116038841354434E+01
  |    6          0.527367247756087E+00          0.301720731719166E+00         -0.379484866100784E+00
  |    7          0.368229013165090E+00         -0.198432950229802E+01         -0.226430453301509E+00

  Relaxation / MD: End force evaluation.       :  max(cpu_time)    wall_clock(cpu1)
  | Time for this force evaluation             :        0.569 s           0.569 s

------------------------------------------------------------
  Molecular dynamics: Attempting to update all nuclear coordinates.

  Removing unitary transformations (pure translations, rotations) from forces on atoms.
  Atomic forces before filtering:
  | Net force on center of mass :   0.892031E-16  0.000000E+00 -0.446015E-15 eV/A
  | Net torque on center of mass:   0.141613E-15  0.330430E-15  0.708063E-15 eV
  Atomic forces after filtering:
  | Net force on center of mass :   0.892031E-16  0.000000E+00 -0.892031E-16 eV/A
  | Net torque on center of mass:   0.188817E-15  0.141613E-15  0.330430E-15 eV
  Cleaning translations and rotations from velocities
  | Net linear  momentum before cleaning:    0.3553E-014   0.3553E-013  -0.1421E-013
  | Net angular momentum before cleaning:   -0.3375E-013  -0.7105E-014  -0.1421E-013
  | Net linear  momentum after cleaning:     0.3553E-014   0.7105E-014   0.0000E+000
  | Net angular momentum after cleaning:     0.9770E-014   0.0000E+000   0.4263E-013
  | Velocity rescaling factor to preserve kinetic energy before and after cleaning:   1.00000000
------------------------------------------------------------
  Advancing structure using Born-Oppenheimer Molecular Dynamics:
  Complete information for previous time-step:
  | Time step number          :        4
  | Simulation time           :           0.400000000000000E-02 ps
  | Electronic free energy    :          -0.416577313850427E+04 eV
  | Temperature (nuclei)      :           0.378510538037095E+03 K
  | Nuclear kinetic energy    :           0.342484289729012E+00 eV
  | Total energy (el.+nuc.)   :          -0.416543065421454E+04 eV
  | Thermostat value ln(s)    :          -0.646519784039294E-01
  | Thermostat momentum pi    :          -0.345706152278448E-03 eV ps
  | Nose-Hoover Hamiltonian   :          -0.416546258987794E+04 eV
------------------------------------------------------------
  Final atomic structure (and velocities) as used in the preceding time step:
                      x [A]             y [A]             z [A]       Atom
   atom               0.06023815       -1.42538922       -0.93844494  H
     velocity         -31.93409958          2.98038875        -18.30742680
   atom               1.63205824       -0.92686918       -0.18746637  H
     velocity          -3.77230965         11.58344614         43.34742369
   atom               3.38661458       -1.71533670        0.50605780  H
     velocity          -5.70426233        -26.45944136          2.76638705
   atom               3.68747849       -0.45800955       -0.34413274  H
     velocity          31.54766712         -8.97615335        -16.32250784
   atom               0.41758204       -0.94766175       -0.11782567  O
     velocity           3.94752103         -0.32768743          0.05594136
   atom               2.94007698       -0.94920493        0.09049145  O
     velocity          -2.28813405          2.70574640         -0.22450987
   atom               0.09381353        0.03332237       -0.09872785  H
     velocity         -16.47705149        -16.87603929         -8.80812651
------------------------------------------------------------

------------------------------------------------------------------------------
  Final output of selected total energy values:

  The following output summarizes some interesting total energy values
  at the end of a run (AFTER all relaxation, molecular dynamics, etc.).

  | Total energy of the DFT / Hartree-Fock s.c.f. calculation      :          -4165.773138504 eV
  | Final zero-broadening corrected energy (caution - metals only) :          -4165.773138504 eV
  | For reference only, the value of 1 Hartree used in FHI-aims is :             27.211384500 eV

  Before relying on these values, please be sure to understand exactly which
  total energy value is referred to by a given number. Different objects may
  all carry the same name 'total energy'. Definitions:

  Total energy of the DFT / Hartree-Fock s.c.f. calculation:
  | Note that this energy does not include ANY quantities calculated after the
  | s.c.f. cycle, in particular not ANY RPA, MP2, etc. many-body perturbation terms.

  Final zero-broadening corrected energy:
  | For metallic systems only, a broadening of the occupation numbers at the Fermi
  | level can be extrapolated back to zero broadening by an electron-gas inspired
  | formula. For all systems that are not real metals, this value can be
  | meaningless and should be avoided.

------------------------------------------------------------------------------
  Methods described in the following list of references were used in this FHI-aims run.
  If you publish the results, please make sure to cite these reference if they apply.
  FHI-aims is an academic code, and for our developers (often, Ph.D. students
  and postdocs), scientific credit in the community is essential.
  Thank you for helping us!

  For any use of FHI-aims, please cite:

    Volker Blum, Ralf Gehrke, Felix Hanke, Paula Havu, Ville Havu,
    Xinguo Ren, Karsten Reuter, and Matthias Scheffler
    'Ab initio molecular simulations with numeric atom-centered orbitals'
    Computer Physics Communications 180, 2175-2196 (2009)
    http://dx.doi.org/10.1016/j.cpc.2009.06.022


  The ELSI infrastructure was used in your run to solve the Kohn-Sham electronic structure.
  Please check out http://elsi-interchange.org to learn more.
  If scalability is important for your project, please acknowledge ELSI by citing:

    V. W-z. Yu, F. Corsetti, A. Garcia, W. P. Huhn, M. Jacquelin, W. Jia,
    B. Lange, L. Lin, J. Lu, W. Mi, A. Seifitokaldani, A. Vazquez-Mayagoitia,
    C. Yang, H. Yang, and V. Blum
    'ELSI: A unified software interface for Kohn-Sham electronic structure solvers'
    Computer Physics Communications 222, 267-285 (2018).
    http://dx.doi.org/10.1016/j.cpc.2017.09.007


  For the real-space grid partitioning and parallelization used in this calculation, please cite:

    Ville Havu, Volker Blum, Paula Havu, and Matthias Scheffler,
    'Efficient O(N) integration for all-electron electronic structure calculation'
    'using numerically tabulated basis functions'
    Journal of Computational Physics 228, 8367-8379 (2009).
    http://dx.doi.org/10.1016/j.jcp.2009.08.008

  Of course, there are many other important community references, e.g., those cited in the
  above references. Our list is limited to references that describe implementations in the
  FHI-aims code. The reason is purely practical (length of this list) - please credit others as well.

------------------------------------------------------------
          Leaving FHI-aims.
          Date     :  20190817, Time     :  154511.041

          Computational steps:
          | Number of self-consistency cycles          :           51
          | Number of SCF (re)initializations          :            5
          | Number of molecular dynamics steps         :            5
          | Number of force evaluations                :            5

          Detailed time accounting                     :  max(cpu_time)    wall_clock(cpu1)
          | Total time                                 :        3.334 s           3.421 s
          | Preparation time                           :        0.091 s           0.091 s
          | Boundary condition initalization           :        0.009 s           0.000 s
          | Grid partitioning                          :        0.039 s           0.039 s
          | Preloading free-atom quantities on grid    :        0.029 s           0.029 s
          | Free-atom superposition energy             :        0.016 s           0.017 s
          | Total time for integrations                :        0.672 s           0.674 s
          | Total time for solution of K.-S. equations :        0.045 s           0.046 s
          | Total time for EV reorthonormalization     :        0.002 s           0.001 s
          | Total time for density & force components  :        0.570 s           0.562 s
          | Total time for mixing                      :        0.030 s           0.031 s
          | Total time for Hartree multipole update    :        0.050 s           0.050 s
          | Total time for Hartree multipole sum       :        1.668 s           1.667 s
          | Total time for total energy evaluation     :        0.003 s           0.002 s

          Partial memory accounting:
          | Residual value for overall tracked memory usage across tasks:     0.000000 MB (should be 0.000000 MB)
          | Peak values for overall tracked memory usage:
          |   Minimum:        0.738 MB (on task 7 after allocating hessian_basis_wave)
          |   Maximum:        0.744 MB (on task 0 after allocating hessian_basis_wave)
          |   Average:        0.742 MB
          | Largest tracked array allocation:
          |   Minimum:        0.391 MB (hessian_basis_wave on task 0)
          |   Maximum:        0.391 MB (hessian_basis_wave on task 0)
          |   Average:        0.391 MB
          Note:  These values currently only include a subset of arrays which are explicitly tracked.
          The "true" memory usage will be greater.

          Have a nice day.
------------------------------------------------------------
