  MPI-parallelism will be employed.
------------------------------------------------------------
          Invoking FHI-aims ...

          When using FHI-aims, please cite the following reference:

          Volker Blum, Ralf Gehrke, Felix Hanke, Paula Havu,
          Ville Havu, Xinguo Ren, Karsten Reuter, and Matthias Scheffler,
          'Ab Initio Molecular Simulations with Numeric Atom-Centered Orbitals',
          Computer Physics Communications 180, 2175-2196 (2009)

          For any questions about FHI-aims, please visit the aimsclub website
          with its forums and wiki. Contributions to both the forums and the
          wiki are warmly encouraged - they are for you, and everyone is welcome there.

------------------------------------------------------------



  Date     :  20190817, Time     :  153601.218
  Time zero on CPU 1             :   0.229450000000000E-01  s.
  Internal wall clock time zero  :           335288161.218  s.

  FHI-aims created a unique identifier for this run for later identification
  aims_uuid : 316D6A5F-6C81-4CE4-A973-37DE62369A4F

  Build configuration of the current instance of FHI-aims
  -------------------------------------------------------
  FHI-aims version      : 190813
  Commit number         : 3da7baeb3
  CMake host system     : Linux-4.4.180-94.97-default
  CMake version         : 3.5.2
  Fortran compiler      : /mpcdf/soft/SLE_12_SP3/packages/x86_64/intel_parallel_studio/2018.4/compilers_and_libraries_2018.5.274/linux/mpi/bin64/mpiifort (Intel) version 18.0.5.20180823
  Fortran compiler flags: -O3 -ip -fp-model precise
  C compiler            : /mpcdf/soft/SLE_12_SP3/packages/skylake/intel/18.0.5/bin/icc (Intel) version 18.0.5.20180823
  C compiler flags      : -O3 -ip -fp-model precise
  Architecture          :
  Using MPI
  Using Scalapack
  Using C files
  Using SPGlib
  Using i-PI
  Linking against: /mpcdf/soft/SLE_12_SP3/packages/x86_64/anaconda/3.5.1.0/lib/libmkl_intel_lp64.so
                   /mpcdf/soft/SLE_12_SP3/packages/x86_64/anaconda/3.5.1.0/lib/libmkl_sequential.so
                   /mpcdf/soft/SLE_12_SP3/packages/x86_64/anaconda/3.5.1.0/lib/libmkl_core.so
                   /mpcdf/soft/SLE_12_SP3/packages/x86_64/anaconda/3.5.1.0/lib/libmkl_blacs_intelmpi_lp64.so
                   /mpcdf/soft/SLE_12_SP3/packages/x86_64/anaconda/3.5.1.0/lib/libmkl_scalapack_lp64.so

  Using        8 parallel tasks.
  Task        0 on host co1631 reporting.
  Task        1 on host co1631 reporting.
  Task        2 on host co1631 reporting.
  Task        3 on host co1631 reporting.
  Task        4 on host co1631 reporting.
  Task        5 on host co1631 reporting.
  Task        6 on host co1631 reporting.
  Task        7 on host co1631 reporting.

  Performing system and environment tests:
  | Environment variable OMP_NUM_THREADS correctly set to 1.
  | Maximum stacksize for task 0: unlimited
  | Maximum stacksize for task 1: unlimited
  | Maximum stacksize for task 2: unlimited
  | Maximum stacksize for task 3: unlimited
  | Maximum stacksize for task 4: unlimited
  | Maximum stacksize for task 5: unlimited
  | Maximum stacksize for task 6: unlimited
  | Maximum stacksize for task 7: unlimited
  | Current stacksize for task 0: unlimited
  | Current stacksize for task 1: unlimited
  | Current stacksize for task 2: unlimited
  | Current stacksize for task 3: unlimited
  | Current stacksize for task 4: unlimited
  | Current stacksize for task 5: unlimited
  | Current stacksize for task 6: unlimited
  | Current stacksize for task 7: unlimited
  | Checking for scalapack...
  | Testing pdtran()...
  | All pdtran() tests passed.

  Obtaining array dimensions for all initial allocations:
  
  -----------------------------------------------------------------------
  Parsing control.in (first pass over file, find array dimensions only).
  The contents of control.in will be repeated verbatim below
  unless switched off by setting 'verbatim_writeout .false.' .
  in the first line of control.in .
  -----------------------------------------------------------------------
  
  #=====================================================
  #FHI-aims file: ./control.in
  #Created using the Atomic Simulation Environment (ASE)
  #
  #List of parameters used to initialize the calculator:
  #=====================================================
  fo_dft                             fragment
  sc_accuracy_rho                    1E-4
  #KS_method                          lapack
  relativistic                       none
  xc                                 blyp
  charge                             0
  mixer                              pulay
  sc_accuracy_etot                   1E-6
  sc_accuracy_eev                    1E-2
  n_max_pulay                        10
  packed_matrix_format               none
  occupation_type                    gaussian 0.01
  default_initial_moment             0
  spin                               collinear
  charge_mix_param                   0.5
  #=======================================================
  ################################################################################
  #
  #  FHI-aims code project
  #  VB, Fritz-Haber Institut, 2009
  #
  #  Suggested "light" defaults for C atom (to be pasted into control.in file)
  #  Be sure to double-check any results obtained with these settings for post-processing,
  #  e.g., with the "tight" defaults and larger basis sets.
  #
  ################################################################################
    species        C
  #     global species definitions
      nucleus             6
      mass                12.0107
  #
      l_hartree           4
  #
      cut_pot             3.5  1.5  1.0
      basis_dep_cutoff    1e-4
  #
      radial_base         34 5.0
      radial_multiplier   1
      angular_grids specified
        division   0.3326   50
        division   0.5710  110
        division   0.7727  194
        division   0.8772  302
  #      division   0.9334  434
  #      division   0.9625  590
  #      division   0.9924  770
  #      division   1.0230  974
  #      division   1.4589 1202
  #     outer_grid  974
       outer_grid 302
  ################################################################################
  #
  #  Definition of "minimal" basis
  #
  ################################################################################
  #     valence basis states
      valence      2  s   2.
      valence      2  p   2.
  #     ion occupancy
      ion_occ      2  s   1.
      ion_occ      2  p   1.
  ################################################################################
  #
  #  Suggested additional basis functions. For production calculations,
  #  uncomment them one after another (the most important basis functions are
  #  listed first).
  #
  #  Constructed for dimers: 1.0 A, 1.25 A, 1.5 A, 2.0 A, 3.0 A
  #
  ################################################################################
  #  "First tier" - improvements: -1214.57 meV to -155.61 meV
       hydro 2 p 1.7
       hydro 3 d 6
       hydro 2 s 4.9
  #  "Second tier" - improvements: -67.75 meV to -5.23 meV
  #     hydro 4 f 9.8
  #     hydro 3 p 5.2
  #     hydro 3 s 4.3
  #     hydro 5 g 14.4
  #     hydro 3 d 6.2
  #  "Third tier" - improvements: -2.43 meV to -0.60 meV
  #     hydro 2 p 5.6
  #     hydro 2 s 1.4
  #     hydro 3 d 4.9
  #     hydro 4 f 11.2
  #  "Fourth tier" - improvements: -0.39 meV to -0.18 meV
  #     hydro 2 p 2.1
  #     hydro 5 g 16.4
  #     hydro 4 d 13.2
  #     hydro 3 s 13.6
  #     hydro 4 f 17.6
  #  Further basis functions - improvements: -0.08 meV and below
  #     hydro 3 s 2
  #     hydro 3 p 6
  #     hydro 4 d 20
  ################################################################################
  #
  #  FHI-aims code project
  #  VB, Fritz-Haber Institut, 2009
  #
  #  Suggested "light" defaults for H atom (to be pasted into control.in file)
  #  Be sure to double-check any results obtained with these settings for post-processing,
  #  e.g., with the "tight" defaults and larger basis sets.
  #
  ################################################################################
    species        H
  #     global species definitions
      nucleus             1
      mass                1.00794
  #
      l_hartree           4
  #
      cut_pot             3.5  1.5  1.0
      basis_dep_cutoff    1e-4
  #
      radial_base         24 5.0
      radial_multiplier   1
      angular_grids       specified
        division   0.2421   50
        division   0.3822  110
        division   0.4799  194
        division   0.5341  302
  #      division   0.5626  434
  #      division   0.5922  590
  #      division   0.6542  770
  #      division   0.6868 1202
  #      outer_grid  770
        outer_grid  302
  ################################################################################
  #
  #  Definition of "minimal" basis
  #
  ################################################################################
  #     valence basis states
      valence      1  s   1.
  #     ion occupancy
      ion_occ      1  s   0.5
  ################################################################################
  #
  #  Suggested additional basis functions. For production calculations,
  #  uncomment them one after another (the most important basis functions are
  #  listed first).
  #
  #  Basis constructed for dimers: 0.5 A, 0.7 A, 1.0 A, 1.5 A, 2.5 A
  #
  ################################################################################
  #  "First tier" - improvements: -1014.90 meV to -62.69 meV
       hydro 2 s 2.1
       hydro 2 p 3.5
  #  "Second tier" - improvements: -12.89 meV to -1.83 meV
  #     hydro 1 s 0.85
  #     hydro 2 p 3.7
  #     hydro 2 s 1.2
  #     hydro 3 d 7
  #  "Third tier" - improvements: -0.25 meV to -0.12 meV
  #     hydro 4 f 11.2
  #     hydro 3 p 4.8
  #     hydro 4 d 9
  #     hydro 3 s 3.2
  
  -----------------------------------------------------------------------
  Completed first pass over input file control.in .
  -----------------------------------------------------------------------
  
  
  -----------------------------------------------------------------------
  Parsing geometry.in (first pass over file, find array dimensions only).
  The contents of geometry.in will be repeated verbatim below
  unless switched off by setting 'verbatim_writeout .false.' .
  in the first line of geometry.in .
  -----------------------------------------------------------------------
  
  #=======================================================
  #FHI-aims file: ./geometry.in
  #Created using the Atomic Simulation Environment (ASE)
  #=======================================================
  atom -0.0000000000000000 5.0000000000000000 0.0000000000000000 C
  atom 1.3320000000000001 5.0000000000000000 -0.0000000000000000 C
  atom -0.5743010000000000 5.0000000000000000 0.9287850000000000 H
  atom -0.5743010000000000 5.0000000000000000 -0.9287850000000000 H
  atom 1.9063010000000000 5.0000000000000000 -0.9287850000000000 H
  atom 1.9063010000000000 5.0000000000000000 0.9287850000000000 H
  
  -----------------------------------------------------------------------
  Completed first pass over input file geometry.in .
  -----------------------------------------------------------------------
  

  Basic array size parameters:
  | Number of species                 :        2
  | Number of atoms                   :        6
  | Max. basis fn. angular momentum   :        2
  | Max. atomic/ionic basis occupied n:        2
  | Max. number of basis fn. types    :        2
  | Max. radial fns per species/type  :        3
  | Max. logarithmic grid size        :     1277
  | Max. radial integration grid size :       34
  | Max. angular integration grid size:      302
  | Max. angular grid division number :        8
  | Radial grid for Hartree potential :     1277
  | Number of spin channels           :        2

------------------------------------------------------------
          Reading file control.in.
------------------------------------------------------------
  Convergence accuracy of self-consistent charge density:  0.1000E-03
  Non-relativistic treatment of kinetic energy.
  XC: Using BLYP functional.
  Charge =   0.000000E+00: Neutral system requested explicitly.
  Using pulay charge density mixing.
  Convergence accuracy of total energy:  0.1000E-05
  Convergence accuracy of sum of eigenvalues:  0.1000E-01
  Pulay mixing - number of memorized iterations:   10
 Using packed matrix format           0
  Occupation type: Gaussian broadening, width =   0.100000E-01 eV.
  Initial spin moment per atom:   0.0000
  Spin treatment: Spin density functional theory - collinear spins.
  Charge density mixing - mixing parameter:     0.5000
 
  Reading configuration options for species C                   .
  | Found nuclear charge :   6.0000
  | Found atomic mass :    12.0107000000000      amu
  | Found l_max for Hartree potential  :   4
  | Found cutoff potl. onset [A], width [A], scale factor :    3.50000    1.50000    1.00000
  | Threshold for basis-dependent cutoff potential is   0.100000E-03
  | Found data for basic radial integration grid :    34 points, outermost radius =    5.000 A
  | Found multiplier for basic radial grid :   1
  | Found angular grid specification: user-specified.
  | Specified grid contains     5 separate shells.
  | Check grid settings after all constraints further below.
  | Found free-atom valence shell :  2 s   2.000
  | Found free-atom valence shell :  2 p   2.000
  | No ionic wave fns used. Skipping ion_occ.
  | No ionic wave fns used. Skipping ion_occ.
  | Found hydrogenic basis function :  2 p   1.700
  | Found hydrogenic basis function :  3 d   6.000
  | Found hydrogenic basis function :  2 s   4.900
  Species C                   : Missing cutoff potential type.
  Defaulting to exp(1/x)/(1-x)^2 type cutoff potential.
  Species C : No 'logarithmic' tag. Using default grid for free atom:
  | Default logarithmic grid data [bohr] : 0.1000E-03 0.1000E+03 0.1012E+01
  Species C : On-site basis accuracy parameter (for Gram-Schmidt orthonormalisation) not specified.
  Using default value basis_acc =  0.1000000E-03.
  Species C                   : Using default innermost maximum threshold i_radial=  2 for radial functions.
  Species C                   : Default cutoff onset for free atom density etc. : 0.35000000E+01 AA.
  Species C                   : Basic radial grid will be enhanced according to radial_multiplier =   1, to contain    34 grid points.
 
  Reading configuration options for species H                   .
  | Found nuclear charge :   1.0000
  | Found atomic mass :    1.00794000000000      amu
  | Found l_max for Hartree potential  :   4
  | Found cutoff potl. onset [A], width [A], scale factor :    3.50000    1.50000    1.00000
  | Threshold for basis-dependent cutoff potential is   0.100000E-03
  | Found data for basic radial integration grid :    24 points, outermost radius =    5.000 A
  | Found multiplier for basic radial grid :   1
  | Found angular grid specification: user-specified.
  | Specified grid contains     5 separate shells.
  | Check grid settings after all constraints further below.
  | Found free-atom valence shell :  1 s   1.000
  | No ionic wave fns used. Skipping ion_occ.
  | Found hydrogenic basis function :  2 s   2.100
  | Found hydrogenic basis function :  2 p   3.500
  Species H                   : Missing cutoff potential type.
  Defaulting to exp(1/x)/(1-x)^2 type cutoff potential.
  Species H : No 'logarithmic' tag. Using default grid for free atom:
  | Default logarithmic grid data [bohr] : 0.1000E-03 0.1000E+03 0.1012E+01
  Species H : On-site basis accuracy parameter (for Gram-Schmidt orthonormalisation) not specified.
  Using default value basis_acc =  0.1000000E-03.
  Species H                   : Using default innermost maximum threshold i_radial=  2 for radial functions.
  Species H                   : Default cutoff onset for free atom density etc. : 0.35000000E+01 AA.
  Species H                   : Basic radial grid will be enhanced according to radial_multiplier =   1, to contain    24 grid points.
 
  Finished reading input file 'control.in'. Consistency checks are next.
 
  MPI_IN_PLACE appears to work with this MPI implementation.
  | Keeping use_mpi_in_place .true. (see manual).
  Target number of points in a grid batch is not set. Defaulting to  100
  Method for grid partitioning is not set. Defaulting to parallel hash+maxmin partitioning.
  Batch size limit is not set. Defaulting to    200
  By default, will store active basis functions for each batch.
  If in need of memory, prune_basis_once .false. can be used to disable this option.
  communication_type for Hartree potential was not specified.
  Defaulting to calc_hartree .
  Pulay mixer: Number of initial linear mixing iterations not set.
  Defaulting to    0 iterations.
  Work space size for distributed Hartree potential not set.
  Defaulting to   0.200000E+03 MB.
  Mixing parameter for spin density mixing has not been set.
  Using charge_mix_param as default:     0.5000.
  Algorithm-dependent basis array size parameters:
  | n_max_pulay                         :       10
  Maximum number of self-consistency iterations not provided.
  Presetting  1000 iterations.
  Presetting      1001 iterations before the initial mixing cycle
  is restarted anyway using the sc_init_iter criterion / keyword.
  Presetting a factor      1.000 between actual scf density residual
  and density convergence criterion sc_accuracy_rho below which sc_init_iter
  takes no effect.
  Calculation of forces was not defined in control.in. No forces will be calculated.
  Geometry relaxation not requested: no relaxation will be performed.
  No accuracy limit for integral partition fn. given. Defaulting to  0.1000E-14.
  No threshold value for u(r) in integrations given. Defaulting to  0.1000E-05.
  No accuracy for occupation numbers given. Defaulting to  0.1000E-12.
  No threshold value for occupation numbers given. Defaulting to  0.0000E+00.
  No accuracy for fermi level given. Defaulting to  0.1000E-19.
  Maximum # of iterations to find E_F not set. Defaulting to  200.
  Preferred method for the eigenvalue solver ('KS_method') not specified in 'control.in'.
  Calling BLACS routine to test compilation state
  Since ScaLAPACK support is enabled, defaulting to ELPA (via ELSI).
  Will not use alltoall communication since running on < 1024 CPUs.
  Threshold for basis singularities not set.
  Default threshold for basis singularities:  0.1000E-04
  partition_type (choice of integration weights) for integrals was not specified.
  | Using a version of the partition function of Stratmann and coworkers ('stratmann_sparse').
  | At each grid point, the set of atoms used to build the partition table is smoothly restricted to
  | only those atoms whose free-atom density would be non-zero at that grid point.
  Partitioning for Hartree potential was not defined. Using partition_type for integrals.
  | Adjusted default value of keyword multip_moments_threshold to:       0.10000000E-11
  | This value may affect high angular momentum components of the Hartree potential in periodic systems.
  No q(lm)/r^(l+1) cutoff set for long-range Hartree potential.
  | Using default value of  0.100000E-09 .
  | Verify using the multipole_threshold keyword.
  Defaulting to new monopole extrapolation.
  Density update method: automatic selection selected.
 * Warning: If the automatic selection of the density update method selects the density matrix based update
            or split updates, a packed matrix format ("index") will be used.
  Charge integration errors on the 3D integration grid will be compensated
  by explicit normalization and distribution of residual charges.
  Use the "compensate_multipole_errors" flag to change this behaviour.
------------------------------------------------------------


------------------------------------------------------------
          Reading geometry description geometry.in.
------------------------------------------------------------
  Input structure read successfully.
  The structure contains        6 atoms,  and a total of         16.000 electrons.

  Input geometry:
  | No unit cell requested.
  | Atomic structure:
  |       Atom                x [A]            y [A]            z [A]
  |    1: Species C             0.00000000        5.00000000        0.00000000
  |    2: Species C             1.33200000        5.00000000        0.00000000
  |    3: Species H            -0.57430100        5.00000000        0.92878500
  |    4: Species H            -0.57430100        5.00000000       -0.92878500
  |    5: Species H             1.90630100        5.00000000       -0.92878500
  |    6: Species H             1.90630100        5.00000000        0.92878500
  | The smallest distance between any two atoms is         1.09199964 AA.
  | The first atom of this pair is atom number                      2 .
  | The second atom of this pair is atom number                     5 .

  Initial moments and charges:
  |  Atom   Moment         Charge        Species
  |     1   0.000000E+00   0.000000E+00   C
  |     2   0.000000E+00   0.000000E+00   C
  |     3   0.000000E+00   0.000000E+00   H
  |     4   0.000000E+00   0.000000E+00   H
  |     5   0.000000E+00   0.000000E+00   H
  |     6   0.000000E+00   0.000000E+00   H

  Number of empty states per atom not set in control.in - providing a guess from actual geometry.
  | Total number of empty states used during s.c.f. cycle:       12
  If you use a very high smearing, use empty_states (per atom!) in control.in to increase this value.

  Structure-dependent array size parameters: 
  | Number of distinct atom types in initial rho :        2
  | Maximum number of distinct radial functions  :        9
  | Maximum number of basis functions            :       48
  | Number of Kohn-Sham states (occupied + empty):       20
------------------------------------------------------------

------------------------------------------------------------
          Preparing all fixed parts of the calculation.
------------------------------------------------------------
  Determining machine precision:
    2.225073858507201E-308
  Setting up grids for atomic and cluster calculations.

  Creating wave function, potential, and density for free atoms.

  Species: C

  List of occupied orbitals and eigenvalues:
    n    l              occ      energy [Ha]    energy [eV]
    1    0           2.0000       -10.059074      -273.7213
    2    0           2.0000        -0.497403       -13.5350
    2    1           2.0000        -0.190064        -5.1719


  Species: H

  List of occupied orbitals and eigenvalues:
    n    l              occ      energy [Ha]    energy [eV]
    1    0           1.0000        -0.238986        -6.5031

  Spin-polarized or charged system:
  Charge density initialized according to selected moments and charges.

  Creating spin-polarized density from free atoms.

  Species: C
  Charge:   0.000000
  Moment:   0.000000

  List of occupied orbitals and eigenvalues:
    n    l      energy [Ha]    energy [eV]    occupation
  Spin-up
    1    0       -10.041584      -273.2454     1.00000000
    2    0        -0.489105       -13.3092     1.00000000
    2    1        -0.181051        -4.9267     1.00000000
  Spin-down
    1    0       -10.041584      -273.2454     1.00000000
    2    0        -0.489105       -13.3092     1.00000000
    2    1        -0.181051        -4.9267     1.00000000


  Species: H
  Charge:   0.000000
  Moment:   0.000000

  List of occupied orbitals and eigenvalues:
    n    l      energy [Ha]    energy [eV]    occupation
  Spin-up
    1    0        -0.225600        -6.1389     0.50000000
  Spin-down
    1    0        -0.225600        -6.1389     0.50000000

  Creating fixed part of basis set: Ionic, confined, hydrogenic.
 
  C                    hydrogenic:
 
  List of hydrogenic basis orbitals: 
    n    l      effective z      eigenvalue [eV]  inner max. [A]     outer max. [A]     outer radius [A]   
    2    1         1.700000        -9.7616           1.230570           1.230570           4.607917
    3    2         6.000000       -54.4224           0.792453           0.792453           3.883070
    2    0         4.900000       -81.6679           0.082559           0.562749           3.078220
 
 
  H                    hydrogenic:
 
  List of hydrogenic basis orbitals: 
    n    l      effective z      eigenvalue [eV]  inner max. [A]     outer max. [A]     outer radius [A]   
    2    0         2.100000       -14.9728           0.193243           1.317208           4.583499
    2    1         3.500000       -41.6669           0.602369           0.602369           3.723403
 

  Adding cutoff potential to free-atom effective potential.
  Creating atomic-like basis functions for current effective potential.

  Species C                   :

  List of atomic basis orbitals and eigenvalues:
    n    l      energy [Ha]    energy [eV]    outer radius [A]
    1    0       -10.059074      -273.7213       1.934409
    2    0        -0.497403       -13.5350       4.496620
    2    1        -0.190064        -5.1719       4.551928


  Species H                   :

  List of atomic basis orbitals and eigenvalues:
    n    l      energy [Ha]    energy [eV]    outer radius [A]
    1    0        -0.238986        -6.5031       4.527807

  Assembling full basis from fixed parts.
  | Species C :   atomic orbital   1 s accepted.
  | Species C :    hydro orbital   2 s accepted.
  | Species C :   atomic orbital   2 s accepted.
  | Species C :   atomic orbital   2 p accepted.
  | Species C :    hydro orbital   2 p accepted.
  | Species C :    hydro orbital   3 d accepted.
  | Species H :   atomic orbital   1 s accepted.
  | Species H :    hydro orbital   2 s accepted.
  | Species H :    hydro orbital   2 p accepted.
 
  Basis size parameters after reduction:
  | Total number of radial functions:        9
  | Total number of basis functions :       48
 
  Per-task memory consumption for arrays in subroutine allocate_ext:
  |           2.208472MB.
  Testing on-site integration grid accuracy.
  |  Species  Function  <phi|h_atom|phi> (log., in eV)  <phi|h_atom|phi> (rad., in eV)
           1        1               -273.7213210004               -273.7212876255
           1        2                -10.6053284287                -10.6054495351
           1        3                 17.0293579067                 17.0255083670
           1        4                 -5.1737559347                 -5.1753546213
           1        5                  8.7489378160                  8.7261914901
           1        6                 27.7012746399                 27.7012884208
           2        7                 -6.5043476601                 -6.5031260092
           2        8                 13.5140490794                 13.5199100086
           2        9                 25.3329411271                 25.3330836091

  Preparing densities etc. for the partition functions (integrals / Hartree potential).

  Preparations completed.
  max(cpu_time)          :      0.170 s.
  Wall clock time (cpu1) :      0.170 s.
------------------------------------------------------------

------------------------------------------------------------
          Begin self-consistency loop: Initialization.

          Date     :  20190817, Time     :  153601.464
------------------------------------------------------------

  Initializing index lists of integration centers etc. from given atomic structure:
  | Number of centers in hartree potential         :         6
  | Number of centers in hartree multipole         :         6
  | Number of centers in electron density summation:         6
  | Number of centers in basis integrals           :         6
  | Number of centers in integrals                 :         6
  | Number of centers in hamiltonian               :         6
  * Using 8 tasks for Scalapack Eigenvalue solver.
  Detailed listing of tasks and assigned k-points:
  (for non-periodic systems, the "k-point" denotes an internal label only)
   Task     0 k-point     1 on co1631
   Task     1 k-point     1 on co1631
   Task     2 k-point     1 on co1631
   Task     3 k-point     1 on co1631
   Task     4 k-point     1 on co1631
   Task     5 k-point     1 on co1631
   Task     6 k-point     1 on co1631
   Task     7 k-point     1 on co1631
  Tasks:     8 split into      4 X      2 BLACS grid
  Calculating block size based on n_basis =           48  max_nprow =            4  max_npcol =            2
  ScaLAPACK block size set to:            8
  Allocating        0.003 MB for ovlp
  Allocating        0.006 MB for ham
  Allocating        0.006 MB for eigenvec
  Required Scalapack workspace - INTEGER:            1  REAL:             1
  Partitioning the integration grid into batches with parallel hashing+maxmin method.
  | Number of batches:      495
  | Maximal batch size:     131
  | Minimal batch size:      51
  | Average batch size:      61.560
  | Standard deviation of batch sizes:      11.739

  Integration load balanced across     8 MPI tasks.
  Work distribution over tasks is as follows:
  Task     0 has       3810 integration points.
  Task     1 has       3797 integration points.
  Task     2 has       3822 integration points.
  Task     3 has       3795 integration points.
  Task     4 has       3813 integration points.
  Task     5 has       3827 integration points.
  Task     6 has       3831 integration points.
  Task     7 has       3777 integration points.
  Initializing partition tables, free-atom densities, potentials, etc. across the integration grid (initialize_grid_storage).
  | initialize_grid_storage: Actual outermost partition radius vs. multipole_radius_free
  | (-- VB: in principle, multipole_radius_free should be larger, hence this output)
  | Species        1: Confinement radius =              4.999999999999999 AA, multipole_radius_free =              5.019602836301480 AA.
  | Species        1: outer_partition_radius set to              5.019602836301480 AA .
  | Species        2: Confinement radius =              4.999999999999999 AA, multipole_radius_free =              5.054417573612229 AA.
  | Species        2: outer_partition_radius set to              5.054417573612229 AA .
  | The sparse table of interatomic distances needs          0.39 kbyte instead of         0.29 kbyte of memory.
  | Using the partition_type stratmann_smoother will reduce your memory usage.
  | Net number of integration points:    30472
  | of which are non-zero points    :    26998
  Renormalizing the initial density to the exact electron count on the 3D integration grid.
  | Initial density: Formal number of electrons (from input files) :      16.0000000000
  | Integrated number of electrons on 3D grid     :      15.9998948607
  | Charge integration error                      :      -0.0001051393
  | Normalization factor for density and gradient :       1.0000065712
  Renormalizing the free-atom superposition density to the exact electron count on the 3D integration grid.
  | Formal number of electrons (from input files) :      16.0000000000
  | Integrated number of electrons on 3D grid     :      15.9999035725
  | Charge integration error                      :      -0.0000964275
  | Normalization factor for density and gradient :       1.0000060268
  Obtaining max. number of non-zero basis functions in each batch (get_n_compute_maxes).
  | Maximal number of non-zero basis functions:       48 in task     0
  | Maximal number of non-zero basis functions:       48 in task     1
  | Maximal number of non-zero basis functions:       48 in task     2
  | Maximal number of non-zero basis functions:       48 in task     3
  | Maximal number of non-zero basis functions:       48 in task     4
  | Maximal number of non-zero basis functions:       48 in task     5
  | Maximal number of non-zero basis functions:       48 in task     6
  | Maximal number of non-zero basis functions:       48 in task     7
  Selecting the method for density update.
  Loop over occupied states selected for charge density update.
  Allocating        0.015 MB for KS_eigenvector
  Integrating Hamiltonian matrix: batch-based integration.
  Time summed over all CPUs for integration: real work        0.119 s, elapsed        0.126 s
  Integrating overlap matrix.
  Time summed over all CPUs for integration: real work        0.036 s, elapsed        0.038 s
  Deallocating overlap matrix.

  Updating Kohn-Sham eigenvalues and eigenvectors using ELSI and the ELPA eigensolver.
  Overlap matrix is not singular
  | Lowest and highest eigenvalues :  0.3284E-02,  0.3977E+01
  Finished singularity check of overlap matrix
  | Time :     0.001 s
  Starting ELPA eigensolver
  Finished Cholesky decomposition
  | Time :     0.000 s
  Finished transformation to standard eigenproblem
  | Time :     0.001 s
  Finished solving standard eigenproblem
  | Time :     0.000 s
  Finished back-transformation of eigenvectors
  | Time :     0.000 s
  Starting ELPA eigensolver
  Finished transformation to standard eigenproblem
  | Time :     0.000 s
  Finished solving standard eigenproblem
  | Time :     0.000 s
  Finished back-transformation of eigenvectors
  | Time :     0.000 s

  Obtaining occupation numbers and chemical potential using ELSI.
  | Chemical potential (Fermi level):    -7.72713698 eV
  Writing Kohn-Sham eigenvalues.

  Spin-up eigenvalues:

  State    Occupation    Eigenvalue [Ha]    Eigenvalue [eV]
      1       1.00000         -10.181334         -277.04819
      2       1.00000         -10.180634         -277.02914
      3       1.00000          -0.888610          -24.18030
      4       1.00000          -0.685690          -18.65858
      5       1.00000          -0.588724          -16.01998
      6       1.00000          -0.565116          -15.37760
      7       1.00000          -0.471373          -12.82672
      8       1.00000          -0.405458          -11.03307
      9       0.00000          -0.183707           -4.99892
     10       0.00000          -0.012417           -0.33788
     11       0.00000          -0.009723           -0.26457
     12       0.00000           0.018479            0.50283
     13       0.00000           0.115754            3.14982
     14       0.00000           0.170899            4.65040
     15       0.00000           0.200819            5.46456
     16       0.00000           0.210173            5.71909
     17       0.00000           0.244759            6.66022
     18       0.00000           0.333355            9.07106
     19       0.00000           0.346527            9.42947
     20       0.00000           0.375857           10.22760

  Spin-down eigenvalues:

  State    Occupation    Eigenvalue [Ha]    Eigenvalue [eV]
      1       1.00000         -10.181334         -277.04819
      2       1.00000         -10.180634         -277.02914
      3       1.00000          -0.888610          -24.18030
      4       1.00000          -0.685690          -18.65858
      5       1.00000          -0.588724          -16.01998
      6       1.00000          -0.565116          -15.37760
      7       1.00000          -0.471373          -12.82672
      8       1.00000          -0.405458          -11.03307
      9       0.00000          -0.183707           -4.99892
     10       0.00000          -0.012417           -0.33788
     11       0.00000          -0.009723           -0.26457
     12       0.00000           0.018479            0.50283
     13       0.00000           0.115754            3.14982
     14       0.00000           0.170899            4.65040
     15       0.00000           0.200819            5.46456
     16       0.00000           0.210173            5.71909
     17       0.00000           0.244759            6.66022
     18       0.00000           0.333355            9.07106
     19       0.00000           0.346527            9.42947
     20       0.00000           0.375857           10.22760

  Current spin moment of the entire structure :
  | N = N_up - N_down :    0.00
  | S                 :    0.00
  | J                 :    1.00

  Highest occupied state (VBM) at    -11.03306752 eV
  | Occupation number:      1.00000000
  | Spin channel:        1

  Lowest unoccupied state (CBM) at    -4.99891855 eV
  | Occupation number:      0.00000000
  | Spin channel:        1

  Overall HOMO-LUMO gap:      6.03414897 eV.
  Calculating total energy contributions from superposition of free atom densities.

  Total energy components:
  | Sum of eigenvalues            :         -47.93387737 Ha       -1304.34716771 eV
  | XC energy correction          :         -11.83509838 Ha        -322.04941266 eV
  | XC potential correction       :          15.14357793 Ha         412.07772178 eV
  | Free-atom electrostatic energy:         -34.09718266 Ha        -927.83154760 eV
  | Hartree energy correction     :           0.00000000 Ha           0.00000000 eV
  | Entropy correction            :           0.00000000 Ha           0.00000000 eV
  | ---------------------------
  | Total energy                  :         -78.72258048 Ha       -2142.15040619 eV
  | Total energy, T -> 0          :         -78.72258048 Ha       -2142.15040619 eV  <-- do not rely on this value for anything but (periodic) metals
  | Electronic free energy        :         -78.72258048 Ha       -2142.15040619 eV

  Derived energy quantities:
  | Kinetic energy                :          77.10418849 Ha        2098.11171967 eV
  | Electrostatic energy          :        -143.99167059 Ha       -3918.21271320 eV
  | Energy correction for multipole
  | error in Hartree potential    :           0.00000000 Ha           0.00000000 eV
  | Sum of eigenvalues per atom                           :        -217.39119462 eV
  | Total energy (T->0) per atom                          :        -357.02506770 eV  <-- do not rely on this value for anything but (periodic) metals
  | Electronic free energy per atom                       :        -357.02506770 eV
  Initialize hartree_potential_storage
  Max. number of atoms included in rho_multipole:            6

  End scf initialization - timings             :  max(cpu_time)    wall_clock(cpu1)
  | Time for scf. initialization               :        0.049 s           0.049 s
  | Boundary condition initialization          :        0.000 s           0.000 s
  | Integration                                :        0.021 s           0.021 s
  | Solution of K.-S. eqns.                    :        0.004 s           0.003 s
  | Grid partitioning                          :        0.008 s           0.008 s
  | Preloading free-atom quantities on grid    :        0.002 s           0.001 s
  | Free-atom superposition energy             :        0.005 s           0.005 s
  | Total energy evaluation                    :        0.000 s           0.000 s

  Partial memory accounting:
  | Current value for overall tracked memory usage:
  |   Minimum:        0.040 MB (on task 4)
  |   Maximum:        0.048 MB (on task 0)
  |   Average:        0.044 MB
  | Peak value for overall tracked memory usage:
  |   Minimum:        0.308 MB (on task 4 after allocating wave)
  |   Maximum:        0.315 MB (on task 0 after allocating wave)
  |   Average:        0.311 MB
  | Largest tracked array allocation so far:
  |   Minimum:        0.096 MB (H_times_psi on task 2)
  |   Maximum:        0.097 MB (H_times_psi on task 0)
  |   Average:        0.096 MB
  Note:  These values currently only include a subset of arrays which are explicitly tracked.
  The "true" memory usage will be greater.
------------------------------------------------------------

------------------------------------------------------------
          Begin self-consistency iteration #    1

  Date     :  20190817, Time     :  153601.513
------------------------------------------------------------
  Evaluating new KS density.
  Integration grid: deviation in total charge (<rho> - N_e) =   0.000000E+00
  | <rho_up-rho_dn> = N_up-N_dn =      0.0000; <|rho_up-rho_dn|> =      0.0000
  Pulay mixing of updated and previous charge densities.
  Renormalizing the density to the exact electron count on the 3D integration grid.
  | Formal number of electrons (from input files) :      16.0000000000
  | Integrated number of electrons on 3D grid     :      16.0000000000
  | Charge integration error                      :       0.0000000000
  | Normalization factor for density and gradient :       1.0000000000

  Evaluating partitioned Hartree potential by multipole expansion.
  | Original multipole sum: apparent total charge =   0.525162E-14
  | Sum of charges compensated after spline to logarithmic grids =   0.203978E-03
  | Analytical far-field extrapolation by fixed multipoles:
  | Hartree multipole sum: apparent total charge =   0.553449E-14
  Summing up the Hartree potential.
  Time summed over all CPUs for potential: real work        0.079 s, elapsed        0.080 s
  | RMS charge density error from multipole expansion :   0.995310E-02

  Integrating Hamiltonian matrix: batch-based integration.
  Time summed over all CPUs for integration: real work        0.117 s, elapsed        0.123 s

  Updating Kohn-Sham eigenvalues and eigenvectors using ELSI and the ELPA eigensolver.
  Starting ELPA eigensolver
  Finished transformation to standard eigenproblem
  | Time :     0.000 s
  Finished solving standard eigenproblem
  | Time :     0.000 s
  Finished back-transformation of eigenvectors
  | Time :     0.000 s
  Starting ELPA eigensolver
  Finished transformation to standard eigenproblem
  | Time :     0.000 s
  Finished solving standard eigenproblem
  | Time :     0.001 s
  Finished back-transformation of eigenvectors
  | Time :     0.000 s

  Obtaining occupation numbers and chemical potential using ELSI.
  | Chemical potential (Fermi level):    -4.01256719 eV
  Writing Kohn-Sham eigenvalues.

  Spin-up eigenvalues:

  State    Occupation    Eigenvalue [Ha]    Eigenvalue [eV]
      1       1.00000          -9.862619         -268.37550
      2       1.00000          -9.861911         -268.35625
      3       1.00000          -0.690209          -18.78154
      4       1.00000          -0.539904          -14.69155
      5       1.00000          -0.437514          -11.90537
      6       1.00000          -0.385659          -10.49431
      7       1.00000          -0.338324           -9.20625
      8       1.00000          -0.241122           -6.56126
      9       0.00000          -0.034276           -0.93269
     10       0.00000           0.058320            1.58698
     11       0.00000           0.082289            2.23921
     12       0.00000           0.088849            2.41769
     13       0.00000           0.206667            5.62369
     14       0.00000           0.262149            7.13343
     15       0.00000           0.288912            7.86169
     16       0.00000           0.312115            8.49307
     17       0.00000           0.328885            8.94941
     18       0.00000           0.431157           11.73238
     19       0.00000           0.495531           13.48408
     20       0.00000           0.500218           13.61163

  Spin-down eigenvalues:

  State    Occupation    Eigenvalue [Ha]    Eigenvalue [eV]
      1       1.00000          -9.862619         -268.37550
      2       1.00000          -9.861911         -268.35625
      3       1.00000          -0.690209          -18.78154
      4       1.00000          -0.539904          -14.69155
      5       1.00000          -0.437514          -11.90537
      6       1.00000          -0.385659          -10.49431
      7       1.00000          -0.338324           -9.20625
      8       1.00000          -0.241122           -6.56126
      9       0.00000          -0.034276           -0.93269
     10       0.00000           0.058320            1.58698
     11       0.00000           0.082289            2.23921
     12       0.00000           0.088849            2.41769
     13       0.00000           0.206667            5.62369
     14       0.00000           0.262149            7.13343
     15       0.00000           0.288912            7.86169
     16       0.00000           0.312115            8.49307
     17       0.00000           0.328885            8.94941
     18       0.00000           0.431157           11.73238
     19       0.00000           0.495531           13.48408
     20       0.00000           0.500218           13.61163

  Current spin moment of the entire structure :
  | N = N_up - N_down :    0.00
  | S                 :    0.00
  | J                 :    1.00

  Highest occupied state (VBM) at     -6.56125758 eV
  | Occupation number:      1.00000000
  | Spin channel:        1

  Lowest unoccupied state (CBM) at    -0.93269455 eV
  | Occupation number:      0.00000000
  | Spin channel:        1

  Overall HOMO-LUMO gap:      5.62856303 eV.

  Total energy components:
  | Sum of eigenvalues            :         -44.71452258 Ha       -1216.74406653 eV
  | XC energy correction          :         -12.19571931 Ha        -331.86240748 eV
  | XC potential correction       :          15.61119627 Ha         424.80226419 eV
  | Free-atom electrostatic energy:         -34.09718266 Ha        -927.83154760 eV
  | Hartree energy correction     :          -3.19431984 Ha         -86.92186542 eV
  | Entropy correction            :           0.00000000 Ha           0.00000000 eV
  | ---------------------------
  | Total energy                  :         -78.59054812 Ha       -2138.55762284 eV
  | Total energy, T -> 0          :         -78.59054812 Ha       -2138.55762284 eV  <-- do not rely on this value for anything but (periodic) metals
  | Electronic free energy        :         -78.59054812 Ha       -2138.55762284 eV

  Derived energy quantities:
  | Kinetic energy                :          78.71775366 Ha        2142.01906170 eV
  | Electrostatic energy          :        -145.11258246 Ha       -3948.71427706 eV
  | Energy correction for multipole
  | error in Hartree potential    :           0.01119010 Ha           0.30449807 eV
  | Sum of eigenvalues per atom                           :        -202.79067776 eV
  | Total energy (T->0) per atom                          :        -356.42627047 eV  <-- do not rely on this value for anything but (periodic) metals
  | Electronic free energy per atom                       :        -356.42627047 eV

  Self-consistency convergence accuracy:
  | Change of charge/spin density :  0.3616E+00  0.0000E+00
  | Change of sum of eigenvalues  :  0.8760E+02 eV
  | Change of total energy        :  0.3593E+01 eV

  End self-consistency iteration #     1       :  max(cpu_time)    wall_clock(cpu1)
  | Time for this iteration                    :        0.042 s           0.043 s
  | Charge density update                      :        0.012 s           0.012 s
  | Density mixing                             :        0.001 s           0.001 s
  | Hartree multipole update                   :        0.001 s           0.001 s
  | Hartree multipole summation                :        0.010 s           0.011 s
  | Integration                                :        0.016 s           0.015 s
  | Solution of K.-S. eqns.                    :        0.002 s           0.002 s
  | Total energy evaluation                    :        0.000 s           0.001 s

  Partial memory accounting:
  | Current value for overall tracked memory usage:
  |   Minimum:        0.040 MB (on task 4)
  |   Maximum:        0.048 MB (on task 0)
  |   Average:        0.044 MB
  | Peak value for overall tracked memory usage:
  |   Minimum:        0.308 MB (on task 4 after allocating wave)
  |   Maximum:        0.315 MB (on task 0 after allocating wave)
  |   Average:        0.311 MB
  | Largest tracked array allocation so far:
  |   Minimum:        0.144 MB (gradient_basis_wave on task 0)
  |   Maximum:        0.144 MB (gradient_basis_wave on task 0)
  |   Average:        0.144 MB
  Note:  These values currently only include a subset of arrays which are explicitly tracked.
  The "true" memory usage will be greater.
------------------------------------------------------------

------------------------------------------------------------
          Begin self-consistency iteration #    2

  Date     :  20190817, Time     :  153601.556
------------------------------------------------------------
  Evaluating new KS density.
  Integration grid: deviation in total charge (<rho> - N_e) =  -8.881784E-15
  | <rho_up-rho_dn> = N_up-N_dn =      0.0000; <|rho_up-rho_dn|> =      0.0000
  Pulay mixing of updated and previous charge densities.
  Renormalizing the density to the exact electron count on the 3D integration grid.
  | Formal number of electrons (from input files) :      16.0000000000
  | Integrated number of electrons on 3D grid     :      16.0000000000
  | Charge integration error                      :      -0.0000000000
  | Normalization factor for density and gradient :       1.0000000000

  Evaluating partitioned Hartree potential by multipole expansion.
  | Original multipole sum: apparent total charge =  -0.387414E-14
  | Sum of charges compensated after spline to logarithmic grids =   0.238619E-03
  | Analytical far-field extrapolation by fixed multipoles:
  | Hartree multipole sum: apparent total charge =  -0.348058E-14
  Summing up the Hartree potential.
  Time summed over all CPUs for potential: real work        0.075 s, elapsed        0.077 s
  | RMS charge density error from multipole expansion :   0.135594E-01

  Integrating Hamiltonian matrix: batch-based integration.
  Time summed over all CPUs for integration: real work        0.119 s, elapsed        0.124 s

  Updating Kohn-Sham eigenvalues and eigenvectors using ELSI and the ELPA eigensolver.
  Starting ELPA eigensolver
  Finished transformation to standard eigenproblem
  | Time :     0.001 s
  Finished solving standard eigenproblem
  | Time :     0.000 s
  Finished back-transformation of eigenvectors
  | Time :     0.000 s
  Starting ELPA eigensolver
  Finished transformation to standard eigenproblem
  | Time :     0.000 s
  Finished solving standard eigenproblem
  | Time :     0.001 s
  Finished back-transformation of eigenvectors
  | Time :     0.000 s

  Obtaining occupation numbers and chemical potential using ELSI.
  | Chemical potential (Fermi level):    -4.22585625 eV
  Current spin moment of the entire structure :
  | N = N_up - N_down :    0.00
  | S                 :    0.00
  | J                 :    1.00

  Highest occupied state (VBM) at     -6.86697088 eV
  | Occupation number:      1.00000000
  | Spin channel:        1

  Lowest unoccupied state (CBM) at    -1.10258695 eV
  | Occupation number:      0.00000000
  | Spin channel:        1

  Overall HOMO-LUMO gap:      5.76438392 eV.

  Checking to see if s.c.f. parameters should be adjusted.

  Total energy components:
  | Sum of eigenvalues            :         -44.91392035 Ha       -1222.16995602 eV
  | XC energy correction          :         -12.20723815 Ha        -332.17585111 eV
  | XC potential correction       :          15.62471571 Ha         425.17014702 eV
  | Free-atom electrostatic energy:         -34.09718266 Ha        -927.83154760 eV
  | Hartree energy correction     :          -2.98764962 Ha         -81.29808252 eV
  | Entropy correction            :           0.00000000 Ha           0.00000000 eV
  | ---------------------------
  | Total energy                  :         -78.58127506 Ha       -2138.30529022 eV
  | Total energy, T -> 0          :         -78.58127506 Ha       -2138.30529022 eV  <-- do not rely on this value for anything but (periodic) metals
  | Electronic free energy        :         -78.58127506 Ha       -2138.30529022 eV

  Derived energy quantities:
  | Kinetic energy                :          78.41537087 Ha        2133.79080740 eV
  | Electrostatic energy          :        -144.78940778 Ha       -3939.92024652 eV
  | Energy correction for multipole
  | error in Hartree potential    :           0.01265065 Ha           0.34424157 eV
  | Sum of eigenvalues per atom                           :        -203.69499267 eV
  | Total energy (T->0) per atom                          :        -356.38421504 eV  <-- do not rely on this value for anything but (periodic) metals
  | Electronic free energy per atom                       :        -356.38421504 eV

  Self-consistency convergence accuracy:
  | Change of charge/spin density :  0.1647E+00  0.0000E+00
  | Change of sum of eigenvalues  : -0.5426E+01 eV
  | Change of total energy        :  0.2523E+00 eV

  End self-consistency iteration #     2       :  max(cpu_time)    wall_clock(cpu1)
  | Time for this iteration                    :        0.040 s           0.040 s
  | Charge density update                      :        0.010 s           0.010 s
  | Density mixing                             :        0.001 s           0.001 s
  | Hartree multipole update                   :        0.001 s           0.001 s
  | Hartree multipole summation                :        0.010 s           0.009 s
  | Integration                                :        0.016 s           0.016 s
  | Solution of K.-S. eqns.                    :        0.002 s           0.002 s
  | Total energy evaluation                    :        0.000 s           0.000 s

  Partial memory accounting:
  | Current value for overall tracked memory usage:
  |   Minimum:        0.041 MB (on task 4)
  |   Maximum:        0.048 MB (on task 0)
  |   Average:        0.045 MB
  | Peak value for overall tracked memory usage:
  |   Minimum:        0.308 MB (on task 4 after allocating wave)
  |   Maximum:        0.315 MB (on task 0 after allocating wave)
  |   Average:        0.311 MB
  | Largest tracked array allocation so far:
  |   Minimum:        0.144 MB (gradient_basis_wave on task 0)
  |   Maximum:        0.144 MB (gradient_basis_wave on task 0)
  |   Average:        0.144 MB
  Note:  These values currently only include a subset of arrays which are explicitly tracked.
  The "true" memory usage will be greater.
------------------------------------------------------------

------------------------------------------------------------
          Begin self-consistency iteration #    3

  Date     :  20190817, Time     :  153601.596
------------------------------------------------------------
  Evaluating new KS density.
  Integration grid: deviation in total charge (<rho> - N_e) =  -8.881784E-15
  | <rho_up-rho_dn> = N_up-N_dn =      0.0000; <|rho_up-rho_dn|> =      0.0000
  Pulay mixing of updated and previous charge densities.
  Renormalizing the density to the exact electron count on the 3D integration grid.
  | Formal number of electrons (from input files) :      16.0000000000
  | Integrated number of electrons on 3D grid     :      16.0000000000
  | Charge integration error                      :       0.0000000000
  | Normalization factor for density and gradient :       1.0000000000

  Evaluating partitioned Hartree potential by multipole expansion.
  | Original multipole sum: apparent total charge =   0.244747E-13
  | Sum of charges compensated after spline to logarithmic grids =   0.292817E-03
  | Analytical far-field extrapolation by fixed multipoles:
  | Hartree multipole sum: apparent total charge =   0.253910E-13
  Summing up the Hartree potential.
  Time summed over all CPUs for potential: real work        0.077 s, elapsed        0.078 s
  | RMS charge density error from multipole expansion :   0.172040E-01

  Integrating Hamiltonian matrix: batch-based integration.
  Time summed over all CPUs for integration: real work        0.119 s, elapsed        0.123 s

  Updating Kohn-Sham eigenvalues and eigenvectors using ELSI and the ELPA eigensolver.
  Starting ELPA eigensolver
  Finished transformation to standard eigenproblem
  | Time :     0.000 s
  Finished solving standard eigenproblem
  | Time :     0.000 s
  Finished back-transformation of eigenvectors
  | Time :     0.000 s
  Starting ELPA eigensolver
  Finished transformation to standard eigenproblem
  | Time :     0.001 s
  Finished solving standard eigenproblem
  | Time :     0.000 s
  Finished back-transformation of eigenvectors
  | Time :     0.000 s

  Obtaining occupation numbers and chemical potential using ELSI.
  | Chemical potential (Fermi level):    -3.81509796 eV
  Current spin moment of the entire structure :
  | N = N_up - N_down :    0.00
  | S                 :    0.00
  | J                 :    1.00

  Highest occupied state (VBM) at     -6.53531107 eV
  | Occupation number:      1.00000000
  | Spin channel:        1

  Lowest unoccupied state (CBM) at    -0.76591525 eV
  | Occupation number:      0.00000000
  | Spin channel:        1

  Overall HOMO-LUMO gap:      5.76939582 eV.

  Total energy components:
  | Sum of eigenvalues            :         -44.68019192 Ha       -1215.80988197 eV
  | XC energy correction          :         -12.25425098 Ha        -333.45513510 eV
  | XC potential correction       :          15.68519993 Ha         426.81600624 eV
  | Free-atom electrostatic energy:         -34.09718266 Ha        -927.83154760 eV
  | Hartree energy correction     :          -3.23349249 Ha         -87.98780729 eV
  | Entropy correction            :           0.00000000 Ha           0.00000000 eV
  | ---------------------------
  | Total energy                  :         -78.57991811 Ha       -2138.26836572 eV
  | Total energy, T -> 0          :         -78.57991811 Ha       -2138.26836572 eV  <-- do not rely on this value for anything but (periodic) metals
  | Electronic free energy        :         -78.57991811 Ha       -2138.26836572 eV

  Derived energy quantities:
  | Kinetic energy                :          78.32484213 Ha        2131.32739502 eV
  | Electrostatic energy          :        -144.65050926 Ha       -3936.14062564 eV
  | Energy correction for multipole
  | error in Hartree potential    :           0.01404281 Ha           0.38212441 eV
  | Sum of eigenvalues per atom                           :        -202.63498033 eV
  | Total energy (T->0) per atom                          :        -356.37806095 eV  <-- do not rely on this value for anything but (periodic) metals
  | Electronic free energy per atom                       :        -356.37806095 eV

  Self-consistency convergence accuracy:
  | Change of charge/spin density :  0.6422E-01  0.0000E+00
  | Change of sum of eigenvalues  :  0.6360E+01 eV
  | Change of total energy        :  0.3692E-01 eV

  End self-consistency iteration #     3       :  max(cpu_time)    wall_clock(cpu1)
  | Time for this iteration                    :        0.040 s           0.039 s
  | Charge density update                      :        0.010 s           0.009 s
  | Density mixing                             :        0.001 s           0.002 s
  | Hartree multipole update                   :        0.001 s           0.001 s
  | Hartree multipole summation                :        0.010 s           0.010 s
  | Integration                                :        0.016 s           0.015 s
  | Solution of K.-S. eqns.                    :        0.002 s           0.002 s
  | Total energy evaluation                    :        0.000 s           0.000 s

  Partial memory accounting:
  | Current value for overall tracked memory usage:
  |   Minimum:        0.041 MB (on task 4)
  |   Maximum:        0.048 MB (on task 0)
  |   Average:        0.045 MB
  | Peak value for overall tracked memory usage:
  |   Minimum:        0.308 MB (on task 4 after allocating wave)
  |   Maximum:        0.315 MB (on task 0 after allocating wave)
  |   Average:        0.311 MB
  | Largest tracked array allocation so far:
  |   Minimum:        0.144 MB (gradient_basis_wave on task 0)
  |   Maximum:        0.144 MB (gradient_basis_wave on task 0)
  |   Average:        0.144 MB
  Note:  These values currently only include a subset of arrays which are explicitly tracked.
  The "true" memory usage will be greater.
------------------------------------------------------------

------------------------------------------------------------
          Begin self-consistency iteration #    4

  Date     :  20190817, Time     :  153601.637
------------------------------------------------------------
  Evaluating new KS density.
  Integration grid: deviation in total charge (<rho> - N_e) =   0.000000E+00
  | <rho_up-rho_dn> = N_up-N_dn =      0.0000; <|rho_up-rho_dn|> =      0.0000
  Pulay mixing of updated and previous charge densities.
  Renormalizing the density to the exact electron count on the 3D integration grid.
  | Formal number of electrons (from input files) :      16.0000000000
  | Integrated number of electrons on 3D grid     :      16.0000000000
  | Charge integration error                      :      -0.0000000000
  | Normalization factor for density and gradient :       1.0000000000

  Evaluating partitioned Hartree potential by multipole expansion.
  | Original multipole sum: apparent total charge =  -0.879369E-14
  | Sum of charges compensated after spline to logarithmic grids =   0.288536E-03
  | Analytical far-field extrapolation by fixed multipoles:
  | Hartree multipole sum: apparent total charge =  -0.884904E-14
  Summing up the Hartree potential.
  Time summed over all CPUs for potential: real work        0.075 s, elapsed        0.076 s
  | RMS charge density error from multipole expansion :   0.173670E-01

  Integrating Hamiltonian matrix: batch-based integration.
  Time summed over all CPUs for integration: real work        0.119 s, elapsed        0.123 s

  Updating Kohn-Sham eigenvalues and eigenvectors using ELSI and the ELPA eigensolver.
  Starting ELPA eigensolver
  Finished transformation to standard eigenproblem
  | Time :     0.000 s
  Finished solving standard eigenproblem
  | Time :     0.000 s
  Finished back-transformation of eigenvectors
  | Time :     0.000 s
  Starting ELPA eigensolver
  Finished transformation to standard eigenproblem
  | Time :     0.001 s
  Finished solving standard eigenproblem
  | Time :     0.000 s
  Finished back-transformation of eigenvectors
  | Time :     0.000 s

  Obtaining occupation numbers and chemical potential using ELSI.
  | Chemical potential (Fermi level):    -3.88796666 eV
  Current spin moment of the entire structure :
  | N = N_up - N_down :    0.00
  | S                 :    0.00
  | J                 :    1.00

  Highest occupied state (VBM) at     -6.58709200 eV
  | Occupation number:      1.00000000
  | Spin channel:        1

  Lowest unoccupied state (CBM) at    -0.82266608 eV
  | Occupation number:      0.00000000
  | Spin channel:        1

  Overall HOMO-LUMO gap:      5.76442591 eV.

  Total energy components:
  | Sum of eigenvalues            :         -44.73734326 Ha       -1217.36504890 eV
  | XC energy correction          :         -12.24302585 Ha        -333.14968387 eV
  | XC potential correction       :          15.67082950 Ha         426.42496695 eV
  | Free-atom electrostatic energy:         -34.09718266 Ha        -927.83154760 eV
  | Hartree energy correction     :          -3.17314887 Ha         -86.34577395 eV
  | Entropy correction            :           0.00000000 Ha           0.00000000 eV
  | ---------------------------
  | Total energy                  :         -78.57987113 Ha       -2138.26708737 eV
  | Total energy, T -> 0          :         -78.57987113 Ha       -2138.26708737 eV  <-- do not rely on this value for anything but (periodic) metals
  | Electronic free energy        :         -78.57987113 Ha       -2138.26708737 eV

  Derived energy quantities:
  | Kinetic energy                :          78.25321983 Ha        2129.37845304 eV
  | Electrostatic energy          :        -144.59006511 Ha       -3934.49585654 eV
  | Energy correction for multipole
  | error in Hartree potential    :           0.01355506 Ha           0.36885206 eV
  | Sum of eigenvalues per atom                           :        -202.89417482 eV
  | Total energy (T->0) per atom                          :        -356.37784789 eV  <-- do not rely on this value for anything but (periodic) metals
  | Electronic free energy per atom                       :        -356.37784789 eV

  Self-consistency convergence accuracy:
  | Change of charge/spin density :  0.7404E-02  0.0000E+00
  | Change of sum of eigenvalues  : -0.1555E+01 eV
  | Change of total energy        :  0.1278E-02 eV

  End self-consistency iteration #     4       :  max(cpu_time)    wall_clock(cpu1)
  | Time for this iteration                    :        0.040 s           0.040 s
  | Charge density update                      :        0.010 s           0.010 s
  | Density mixing                             :        0.001 s           0.001 s
  | Hartree multipole update                   :        0.001 s           0.001 s
  | Hartree multipole summation                :        0.010 s           0.010 s
  | Integration                                :        0.016 s           0.015 s
  | Solution of K.-S. eqns.                    :        0.002 s           0.001 s
  | Total energy evaluation                    :        0.000 s           0.000 s

  Partial memory accounting:
  | Current value for overall tracked memory usage:
  |   Minimum:        0.041 MB (on task 4)
  |   Maximum:        0.048 MB (on task 0)
  |   Average:        0.045 MB
  | Peak value for overall tracked memory usage:
  |   Minimum:        0.308 MB (on task 4 after allocating wave)
  |   Maximum:        0.315 MB (on task 0 after allocating wave)
  |   Average:        0.311 MB
  | Largest tracked array allocation so far:
  |   Minimum:        0.144 MB (gradient_basis_wave on task 0)
  |   Maximum:        0.144 MB (gradient_basis_wave on task 0)
  |   Average:        0.144 MB
  Note:  These values currently only include a subset of arrays which are explicitly tracked.
  The "true" memory usage will be greater.
------------------------------------------------------------

------------------------------------------------------------
          Begin self-consistency iteration #    5

  Date     :  20190817, Time     :  153601.677
------------------------------------------------------------
  Evaluating new KS density.
  Integration grid: deviation in total charge (<rho> - N_e) =  -3.552714E-15
  | <rho_up-rho_dn> = N_up-N_dn =      0.0000; <|rho_up-rho_dn|> =      0.0000
  Pulay mixing of updated and previous charge densities.
  Renormalizing the density to the exact electron count on the 3D integration grid.
  | Formal number of electrons (from input files) :      16.0000000000
  | Integrated number of electrons on 3D grid     :      16.0000000000
  | Charge integration error                      :       0.0000000000
  | Normalization factor for density and gradient :       1.0000000000

  Evaluating partitioned Hartree potential by multipole expansion.
  | Original multipole sum: apparent total charge =   0.196782E-15
  | Sum of charges compensated after spline to logarithmic grids =   0.291572E-03
  | Analytical far-field extrapolation by fixed multipoles:
  | Hartree multipole sum: apparent total charge =   0.983910E-15
  Summing up the Hartree potential.
  Time summed over all CPUs for potential: real work        0.078 s, elapsed        0.079 s
  | RMS charge density error from multipole expansion :   0.175097E-01

  Integrating Hamiltonian matrix: batch-based integration.
  Time summed over all CPUs for integration: real work        0.118 s, elapsed        0.122 s

  Updating Kohn-Sham eigenvalues and eigenvectors using ELSI and the ELPA eigensolver.
  Starting ELPA eigensolver
  Finished transformation to standard eigenproblem
  | Time :     0.001 s
  Finished solving standard eigenproblem
  | Time :     0.000 s
  Finished back-transformation of eigenvectors
  | Time :     0.000 s
  Starting ELPA eigensolver
  Finished transformation to standard eigenproblem
  | Time :     0.000 s
  Finished solving standard eigenproblem
  | Time :     0.001 s
  Finished back-transformation of eigenvectors
  | Time :     0.000 s

  Obtaining occupation numbers and chemical potential using ELSI.
  | Chemical potential (Fermi level):    -3.84857793 eV
  Current spin moment of the entire structure :
  | N = N_up - N_down :    0.00
  | S                 :    0.00
  | J                 :    1.00

  Highest occupied state (VBM) at     -6.55356243 eV
  | Occupation number:      1.00000000
  | Spin channel:        1

  Lowest unoccupied state (CBM) at    -0.78955216 eV
  | Occupation number:      0.00000000
  | Spin channel:        1

  Overall HOMO-LUMO gap:      5.76401027 eV.

  Total energy components:
  | Sum of eigenvalues            :         -44.71144493 Ha       -1216.66031941 eV
  | XC energy correction          :         -12.24675695 Ha        -333.25121215 eV
  | XC potential correction       :          15.67566877 Ha         426.55665018 eV
  | Free-atom electrostatic energy:         -34.09718266 Ha        -927.83154760 eV
  | Hartree energy correction     :          -3.20015826 Ha         -87.08073692 eV
  | Entropy correction            :           0.00000000 Ha           0.00000000 eV
  | ---------------------------
  | Total energy                  :         -78.57987402 Ha       -2138.26716590 eV
  | Total energy, T -> 0          :         -78.57987402 Ha       -2138.26716590 eV  <-- do not rely on this value for anything but (periodic) metals
  | Electronic free energy        :         -78.57987402 Ha       -2138.26716590 eV

  Derived energy quantities:
  | Kinetic energy                :          78.26120622 Ha        2129.59577389 eV
  | Electrostatic energy          :        -144.59432329 Ha       -3934.61172764 eV
  | Energy correction for multipole
  | error in Hartree potential    :           0.01364932 Ha           0.37141682 eV
  | Sum of eigenvalues per atom                           :        -202.77671990 eV
  | Total energy (T->0) per atom                          :        -356.37786098 eV  <-- do not rely on this value for anything but (periodic) metals
  | Electronic free energy per atom                       :        -356.37786098 eV

  Self-consistency convergence accuracy:
  | Change of charge/spin density :  0.2583E-02  0.0000E+00
  | Change of sum of eigenvalues  :  0.7047E+00 eV
  | Change of total energy        : -0.7854E-04 eV

  End self-consistency iteration #     5       :  max(cpu_time)    wall_clock(cpu1)
  | Time for this iteration                    :        0.041 s           0.040 s
  | Charge density update                      :        0.010 s           0.010 s
  | Density mixing                             :        0.002 s           0.002 s
  | Hartree multipole update                   :        0.001 s           0.001 s
  | Hartree multipole summation                :        0.010 s           0.010 s
  | Integration                                :        0.015 s           0.015 s
  | Solution of K.-S. eqns.                    :        0.002 s           0.002 s
  | Total energy evaluation                    :        0.000 s           0.000 s

  Partial memory accounting:
  | Current value for overall tracked memory usage:
  |   Minimum:        0.041 MB (on task 4)
  |   Maximum:        0.048 MB (on task 0)
  |   Average:        0.045 MB
  | Peak value for overall tracked memory usage:
  |   Minimum:        0.308 MB (on task 4 after allocating wave)
  |   Maximum:        0.315 MB (on task 0 after allocating wave)
  |   Average:        0.311 MB
  | Largest tracked array allocation so far:
  |   Minimum:        0.144 MB (gradient_basis_wave on task 0)
  |   Maximum:        0.144 MB (gradient_basis_wave on task 0)
  |   Average:        0.144 MB
  Note:  These values currently only include a subset of arrays which are explicitly tracked.
  The "true" memory usage will be greater.
------------------------------------------------------------

------------------------------------------------------------
          Begin self-consistency iteration #    6

  Date     :  20190817, Time     :  153601.718
------------------------------------------------------------
  Evaluating new KS density.
  Integration grid: deviation in total charge (<rho> - N_e) =   7.105427E-15
  | <rho_up-rho_dn> = N_up-N_dn =      0.0000; <|rho_up-rho_dn|> =      0.0000
  Pulay mixing of updated and previous charge densities.
  Renormalizing the density to the exact electron count on the 3D integration grid.
  | Formal number of electrons (from input files) :      16.0000000000
  | Integrated number of electrons on 3D grid     :      16.0000000000
  | Charge integration error                      :       0.0000000000
  | Normalization factor for density and gradient :       1.0000000000

  Evaluating partitioned Hartree potential by multipole expansion.
  | Original multipole sum: apparent total charge =  -0.203546E-14
  | Sum of charges compensated after spline to logarithmic grids =   0.290844E-03
  | Analytical far-field extrapolation by fixed multipoles:
  | Hartree multipole sum: apparent total charge =  -0.204776E-14
  Summing up the Hartree potential.
  Time summed over all CPUs for potential: real work        0.078 s, elapsed        0.079 s
  | RMS charge density error from multipole expansion :   0.174981E-01

  Integrating Hamiltonian matrix: batch-based integration.
  Time summed over all CPUs for integration: real work        0.119 s, elapsed        0.123 s

  Updating Kohn-Sham eigenvalues and eigenvectors using ELSI and the ELPA eigensolver.
  Starting ELPA eigensolver
  Finished transformation to standard eigenproblem
  | Time :     0.001 s
  Finished solving standard eigenproblem
  | Time :     0.000 s
  Finished back-transformation of eigenvectors
  | Time :     0.000 s
  Starting ELPA eigensolver
  Finished transformation to standard eigenproblem
  | Time :     0.000 s
  Finished solving standard eigenproblem
  | Time :     0.001 s
  Finished back-transformation of eigenvectors
  | Time :     0.000 s

  Obtaining occupation numbers and chemical potential using ELSI.
  | Chemical potential (Fermi level):    -3.85756044 eV
  Current spin moment of the entire structure :
  | N = N_up - N_down :    0.00
  | S                 :    0.00
  | J                 :    1.00

  Highest occupied state (VBM) at     -6.56113005 eV
  | Occupation number:      1.00000000
  | Spin channel:        1

  Lowest unoccupied state (CBM) at    -0.79658474 eV
  | Occupation number:      0.00000000
  | Spin channel:        1

  Overall HOMO-LUMO gap:      5.76454531 eV.

  Total energy components:
  | Sum of eigenvalues            :         -44.71758194 Ha       -1216.82731610 eV
  | XC energy correction          :         -12.24572989 Ha        -333.22326465 eV
  | XC potential correction       :          15.67434739 Ha         426.52069373 eV
  | Free-atom electrostatic energy:         -34.09718266 Ha        -927.83154760 eV
  | Hartree energy correction     :          -3.19372327 Ha         -86.90563195 eV
  | Entropy correction            :           0.00000000 Ha           0.00000000 eV
  | ---------------------------
  | Total energy                  :         -78.57987037 Ha       -2138.26706656 eV
  | Total energy, T -> 0          :         -78.57987037 Ha       -2138.26706656 eV  <-- do not rely on this value for anything but (periodic) metals
  | Electronic free energy        :         -78.57987037 Ha       -2138.26706656 eV

  Derived energy quantities:
  | Kinetic energy                :          78.25747002 Ha        2129.49410684 eV
  | Electrostatic energy          :        -144.59161050 Ha       -3934.53790876 eV
  | Energy correction for multipole
  | error in Hartree potential    :           0.01361712 Ha           0.37054061 eV
  | Sum of eigenvalues per atom                           :        -202.80455268 eV
  | Total energy (T->0) per atom                          :        -356.37784443 eV  <-- do not rely on this value for anything but (periodic) metals
  | Electronic free energy per atom                       :        -356.37784443 eV

  Self-consistency convergence accuracy:
  | Change of charge/spin density :  0.7413E-03  0.0000E+00
  | Change of sum of eigenvalues  : -0.1670E+00 eV
  | Change of total energy        :  0.9934E-04 eV

  End self-consistency iteration #     6       :  max(cpu_time)    wall_clock(cpu1)
  | Time for this iteration                    :        0.041 s           0.040 s
  | Charge density update                      :        0.010 s           0.009 s
  | Density mixing                             :        0.002 s           0.001 s
  | Hartree multipole update                   :        0.001 s           0.002 s
  | Hartree multipole summation                :        0.010 s           0.010 s
  | Integration                                :        0.016 s           0.015 s
  | Solution of K.-S. eqns.                    :        0.002 s           0.002 s
  | Total energy evaluation                    :        0.000 s           0.000 s

  Partial memory accounting:
  | Current value for overall tracked memory usage:
  |   Minimum:        0.041 MB (on task 4)
  |   Maximum:        0.049 MB (on task 0)
  |   Average:        0.045 MB
  | Peak value for overall tracked memory usage:
  |   Minimum:        0.308 MB (on task 4 after allocating wave)
  |   Maximum:        0.315 MB (on task 0 after allocating wave)
  |   Average:        0.311 MB
  | Largest tracked array allocation so far:
  |   Minimum:        0.144 MB (gradient_basis_wave on task 0)
  |   Maximum:        0.144 MB (gradient_basis_wave on task 0)
  |   Average:        0.144 MB
  Note:  These values currently only include a subset of arrays which are explicitly tracked.
  The "true" memory usage will be greater.
------------------------------------------------------------

------------------------------------------------------------
          Begin self-consistency iteration #    7

  Date     :  20190817, Time     :  153601.759
------------------------------------------------------------
  Evaluating new KS density.
  Integration grid: deviation in total charge (<rho> - N_e) =  -5.329071E-15
  | <rho_up-rho_dn> = N_up-N_dn =      0.0000; <|rho_up-rho_dn|> =      0.0000
  Pulay mixing of updated and previous charge densities.
  Renormalizing the density to the exact electron count on the 3D integration grid.
  | Formal number of electrons (from input files) :      16.0000000000
  | Integrated number of electrons on 3D grid     :      16.0000000000
  | Charge integration error                      :      -0.0000000000
  | Normalization factor for density and gradient :       1.0000000000

  Evaluating partitioned Hartree potential by multipole expansion.
  | Original multipole sum: apparent total charge =  -0.158717E-13
  | Sum of charges compensated after spline to logarithmic grids =   0.290805E-03
  | Analytical far-field extrapolation by fixed multipoles:
  | Hartree multipole sum: apparent total charge =  -0.160685E-13
  Summing up the Hartree potential.
  Time summed over all CPUs for potential: real work        0.077 s, elapsed        0.079 s
  | RMS charge density error from multipole expansion :   0.174995E-01

  Integrating Hamiltonian matrix: batch-based integration.
  Time summed over all CPUs for integration: real work        0.116 s, elapsed        0.119 s

  Updating Kohn-Sham eigenvalues and eigenvectors using ELSI and the ELPA eigensolver.
  Starting ELPA eigensolver
  Finished transformation to standard eigenproblem
  | Time :     0.000 s
  Finished solving standard eigenproblem
  | Time :     0.001 s
  Finished back-transformation of eigenvectors
  | Time :     0.000 s
  Starting ELPA eigensolver
  Finished transformation to standard eigenproblem
  | Time :     0.000 s
  Finished solving standard eigenproblem
  | Time :     0.000 s
  Finished back-transformation of eigenvectors
[...]
  | Electronic free energy        :         -78.57987031 Ha       -2138.26706487 eV

  Derived energy quantities:
  | Kinetic energy                :          78.25769048 Ha        2129.50010563 eV
  | Electrostatic energy          :        -144.59182498 Ha       -3934.54374507 eV
  | Energy correction for multipole
  | error in Hartree potential    :           0.01362042 Ha           0.37063054 eV
  | Sum of eigenvalues per atom                           :        -202.80447722 eV
  | Total energy (T->0) per atom                          :        -356.37784414 eV  <-- do not rely on this value for anything but (periodic) metals
  | Electronic free energy per atom                       :        -356.37784414 eV

  Self-consistency convergence accuracy:
  | Change of charge/spin density :  0.4075E-04  0.0000E+00
  | Change of sum of eigenvalues  :  0.4528E-03 eV
  | Change of total energy        :  0.1694E-05 eV

  End self-consistency iteration #     7       :  max(cpu_time)    wall_clock(cpu1)
  | Time for this iteration                    :        0.040 s           0.040 s
  | Charge density update                      :        0.010 s           0.009 s
  | Density mixing                             :        0.002 s           0.003 s
  | Hartree multipole update                   :        0.001 s           0.001 s
  | Hartree multipole summation                :        0.010 s           0.010 s
  | Integration                                :        0.015 s           0.015 s
  | Solution of K.-S. eqns.                    :        0.002 s           0.002 s
  | Total energy evaluation                    :        0.000 s           0.000 s

  Partial memory accounting:
  | Current value for overall tracked memory usage:
  |   Minimum:        0.041 MB (on task 4)
  |   Maximum:        0.049 MB (on task 0)
  |   Average:        0.045 MB
  | Peak value for overall tracked memory usage:
  |   Minimum:        0.308 MB (on task 4 after allocating wave)
  |   Maximum:        0.315 MB (on task 0 after allocating wave)
  |   Average:        0.311 MB
  | Largest tracked array allocation so far:
  |   Minimum:        0.144 MB (gradient_basis_wave on task 0)
  |   Maximum:        0.144 MB (gradient_basis_wave on task 0)
  |   Average:        0.144 MB
  Note:  These values currently only include a subset of arrays which are explicitly tracked.
  The "true" memory usage will be greater.
------------------------------------------------------------

------------------------------------------------------------
          Begin self-consistency iteration #    8

  Date     :  20190817, Time     :  153601.799
------------------------------------------------------------
  Evaluating new KS density.
  Integration grid: deviation in total charge (<rho> - N_e) =   0.000000E+00
  | <rho_up-rho_dn> = N_up-N_dn =      0.0000; <|rho_up-rho_dn|> =      0.0000
  Pulay mixing of updated and previous charge densities.
  Renormalizing the density to the exact electron count on the 3D integration grid.
  | Formal number of electrons (from input files) :      16.0000000000
  | Integrated number of electrons on 3D grid     :      16.0000000000
  | Charge integration error                      :      -0.0000000000
  | Normalization factor for density and gradient :       1.0000000000

  Evaluating partitioned Hartree potential by multipole expansion.
  | Original multipole sum: apparent total charge =  -0.192108E-13
  | Sum of charges compensated after spline to logarithmic grids =   0.290798E-03
  | Analytical far-field extrapolation by fixed multipoles:
  | Hartree multipole sum: apparent total charge =  -0.186635E-13
  Summing up the Hartree potential.
  Time summed over all CPUs for potential: real work        0.077 s, elapsed        0.078 s
  | RMS charge density error from multipole expansion :   0.174995E-01

  Integrating Hamiltonian matrix: batch-based integration.
  Time summed over all CPUs for integration: real work        0.115 s, elapsed        0.118 s

  Updating Kohn-Sham eigenvalues and eigenvectors using ELSI and the ELPA eigensolver.
  Starting ELPA eigensolver
  Finished transformation to standard eigenproblem
  | Time :     0.000 s
  Finished solving standard eigenproblem
  | Time :     0.000 s
  Finished back-transformation of eigenvectors
  | Time :     0.000 s
  Starting ELPA eigensolver
  Finished transformation to standard eigenproblem
  | Time :     0.000 s
  Finished solving standard eigenproblem
  | Time :     0.001 s
  Finished back-transformation of eigenvectors
  | Time :     0.000 s

  Obtaining occupation numbers and chemical potential using ELSI.
  | Chemical potential (Fermi level):    -3.85770903 eV
  Current spin moment of the entire structure :
  | N = N_up - N_down :    0.00
  | S                 :    0.00
  | J                 :    1.00

  Highest occupied state (VBM) at     -6.56131547 eV
  | Occupation number:      1.00000000
  | Spin channel:        1

  Lowest unoccupied state (CBM) at    -0.79676343 eV
  | Occupation number:      0.00000000
  | Spin channel:        1

  Overall HOMO-LUMO gap:      5.76455203 eV.

  Total energy components:
  | Sum of eigenvalues            :         -44.71763406 Ha       -1216.82873443 eV
  | XC energy correction          :         -12.24572748 Ha        -333.22319898 eV
  | XC potential correction       :          15.67434374 Ha         426.52059429 eV
  | Free-atom electrostatic energy:         -34.09718266 Ha        -927.83154760 eV
  | Hartree energy correction     :          -3.19366983 Ha         -86.90417780 eV
  | Entropy correction            :           0.00000000 Ha           0.00000000 eV
  | ---------------------------
  | Total energy                  :         -78.57987029 Ha       -2138.26706453 eV
  | Total energy, T -> 0          :         -78.57987029 Ha       -2138.26706453 eV  <-- do not rely on this value for anything but (periodic) metals
  | Electronic free energy        :         -78.57987029 Ha       -2138.26706453 eV

  Derived energy quantities:
  | Kinetic energy                :          78.25765431 Ha        2129.49912141 eV
  | Electrostatic energy          :        -144.59179712 Ha       -3934.54298695 eV
  | Energy correction for multipole
  | error in Hartree potential    :           0.01362034 Ha           0.37062823 eV
  | Sum of eigenvalues per atom                           :        -202.80478907 eV
  | Total energy (T->0) per atom                          :        -356.37784409 eV  <-- do not rely on this value for anything but (periodic) metals
  | Electronic free energy per atom                       :        -356.37784409 eV

  Self-consistency convergence accuracy:
  | Change of charge/spin density :  0.6947E-05  0.0000E+00
  | Change of sum of eigenvalues  : -0.1871E-02 eV
  | Change of total energy        :  0.3441E-06 eV

  Writing Kohn-Sham eigenvalues.

  Spin-up eigenvalues:

  State    Occupation    Eigenvalue [Ha]    Eigenvalue [eV]
      1       1.00000          -9.908130         -269.61393
      2       1.00000          -9.907434         -269.59499
      3       1.00000          -0.683701          -18.60445
      4       1.00000          -0.517478          -14.08130
      5       1.00000          -0.417046          -11.34839
      6       1.00000          -0.372791          -10.14417
      7       1.00000          -0.311114           -8.46583
      8       1.00000          -0.241124           -6.56132
      9       0.00000          -0.029281           -0.79676
     10       0.00000           0.070421            1.91624
     11       0.00000           0.095905            2.60971
     12       0.00000           0.102042            2.77670
     13       0.00000           0.218777            5.95322
     14       0.00000           0.280057            7.62074
     15       0.00000           0.298495            8.12246
     16       0.00000           0.310293            8.44349
     17       0.00000           0.346391            9.42577
     18       0.00000           0.453485           12.33995
     19       0.00000           0.494017           13.44289
     20       0.00000           0.509323           13.85937

  Spin-down eigenvalues:

  State    Occupation    Eigenvalue [Ha]    Eigenvalue [eV]
      1       1.00000          -9.908130         -269.61393
      2       1.00000          -9.907434         -269.59499
      3       1.00000          -0.683701          -18.60445
      4       1.00000          -0.517478          -14.08130
      5       1.00000          -0.417046          -11.34839
      6       1.00000          -0.372791          -10.14417
      7       1.00000          -0.311114           -8.46583
      8       1.00000          -0.241124           -6.56132
      9       0.00000          -0.029281           -0.79676
     10       0.00000           0.070421            1.91624
     11       0.00000           0.095905            2.60971
     12       0.00000           0.102042            2.77670
     13       0.00000           0.218777            5.95322
     14       0.00000           0.280057            7.62074
     15       0.00000           0.298495            8.12246
     16       0.00000           0.310293            8.44349
     17       0.00000           0.346391            9.42577
     18       0.00000           0.453485           12.33995
     19       0.00000           0.494017           13.44289
     20       0.00000           0.509323           13.85937

  Current spin moment of the entire structure :
  | N = N_up - N_down :    0.00
  | S                 :    0.00
  | J                 :    1.00

  Highest occupied state (VBM) at     -6.56131547 eV
  | Occupation number:      1.00000000
  | Spin channel:        1

  Lowest unoccupied state (CBM) at    -0.79676343 eV
  | Occupation number:      0.00000000
  | Spin channel:        1

  Overall HOMO-LUMO gap:      5.76455203 eV.

  Self-consistency cycle converged.

  End self-consistency iteration #     8       :  max(cpu_time)    wall_clock(cpu1)
  | Time for this iteration                    :        0.040 s           0.041 s
  | Charge density update                      :        0.010 s           0.010 s
  | Density mixing                             :        0.002 s           0.002 s
  | Hartree multipole update                   :        0.001 s           0.002 s
  | Hartree multipole summation                :        0.010 s           0.009 s
  | Integration                                :        0.015 s           0.014 s
  | Solution of K.-S. eqns.                    :        0.002 s           0.002 s
  | Total energy evaluation                    :        0.000 s           0.000 s

  Partial memory accounting:
  | Current value for overall tracked memory usage:
  |   Minimum:        0.041 MB (on task 4)
  |   Maximum:        0.049 MB (on task 0)
  |   Average:        0.045 MB
  | Peak value for overall tracked memory usage:
  |   Minimum:        0.308 MB (on task 4 after allocating wave)
  |   Maximum:        0.315 MB (on task 0 after allocating wave)
  |   Average:        0.311 MB
  | Largest tracked array allocation so far:
  |   Minimum:        0.144 MB (gradient_basis_wave on task 0)
  |   Maximum:        0.144 MB (gradient_basis_wave on task 0)
  |   Average:        0.144 MB
  Note:  These values currently only include a subset of arrays which are explicitly tracked.
  The "true" memory usage will be greater.
------------------------------------------------------------
  Writing cluster restart information to file restart.frag
  Restart file: Writing        20 states.

  Energy and forces in a compact form:
  | Total energy uncorrected      :         -0.213826706452514E+04 eV
  | Total energy corrected        :         -0.213826706452514E+04 eV  <-- do not rely on this value for anything but (periodic) metals
  | Electronic free energy        :         -0.213826706452514E+04 eV

  ------------------------------------ 
  Start decomposition of the XC Energy 
  ------------------------------------ 
  X and C from original XC functional choice 
  Hartree-Fock Energy :          0.000000000 Ha              0.000000000 eV
  X Energy            :        -11.747208913 Ha           -319.657818528 eV
  C Energy            :         -0.498518569 Ha            -13.565380455 eV
  Total XC Energy     :        -12.245727482 Ha           -333.223198983 eV
  ------------------------------------ 
  LDA X and C from self-consistent density 
  X Energy LDA        :        -10.533575056 Ha           -286.633161007 eV
  C Energy LDA        :         -0.982440855 Ha            -26.733575847 eV
  ------------------------------------ 
  End decomposition of the XC Energy 
  ------------------------------------ 

------------------------------------------------------------
  |------------------------------------------------------
  | Final ELSI Output
  |------------------------------------------------------
  |
  | Physical Properties
  |   Number of electrons       :        0.16000000E+02
  |   Number of spins           :                     1
  |   Number of k-points        :                     1
  |   Number of states          :                    20
  |
  | Matrix Properties
  |   Matrix format             :           BLACS_DENSE
  |   Number of basis functions :                    48
  |   Matrix sparsity           :        0.45833333E+00
  |
  | Computational Details
  |   Parallel mode             :            MULTI_PROC
  |   Number of MPI tasks       :                     8
  |   Solver requested          :                  ELPA
  |   Number of ELSI calls      :                    18
  |
  |------------------------------------------------------
  | ELSI Project (c)  elsi-interchange.org
  |------------------------------------------------------

------------------------------------------------------------------------------
  Final output of selected total energy values:

  The following output summarizes some interesting total energy values
  at the end of a run (AFTER all relaxation, molecular dynamics, etc.).

  | Total energy of the DFT / Hartree-Fock s.c.f. calculation      :          -2138.267064525 eV
  | Final zero-broadening corrected energy (caution - metals only) :          -2138.267064525 eV
  | For reference only, the value of 1 Hartree used in FHI-aims is :             27.211384500 eV

  Before relying on these values, please be sure to understand exactly which
  total energy value is referred to by a given number. Different objects may
  all carry the same name 'total energy'. Definitions:

  Total energy of the DFT / Hartree-Fock s.c.f. calculation:
  | Note that this energy does not include ANY quantities calculated after the
  | s.c.f. cycle, in particular not ANY RPA, MP2, etc. many-body perturbation terms.

  Final zero-broadening corrected energy:
  | For metallic systems only, a broadening of the occupation numbers at the Fermi
  | level can be extrapolated back to zero broadening by an electron-gas inspired
  | formula. For all systems that are not real metals, this value can be
  | meaningless and should be avoided.

------------------------------------------------------------------------------
  Methods described in the following list of references were used in this FHI-aims run.
  If you publish the results, please make sure to cite these reference if they apply.
  FHI-aims is an academic code, and for our developers (often, Ph.D. students
  and postdocs), scientific credit in the community is essential.
  Thank you for helping us!

  For any use of FHI-aims, please cite:

    Volker Blum, Ralf Gehrke, Felix Hanke, Paula Havu, Ville Havu,
    Xinguo Ren, Karsten Reuter, and Matthias Scheffler
    'Ab initio molecular simulations with numeric atom-centered orbitals'
    Computer Physics Communications 180, 2175-2196 (2009)
    http://dx.doi.org/10.1016/j.cpc.2009.06.022


  For calculations of electronic coupling values using the
  Fragment molecular orbital scheme (FO-DFT), please cite:

    Christoph Schober, Karsten Reuter, Harald Oberhofer
    'Critical analysis of fragment-orbital DFT schemes
    for the calculation of electronic coupling values'
    Journal of Chemical Physics, 144, 054103 (2016).


  The ELSI infrastructure was used in your run to solve the Kohn-Sham electronic structure.
  Please check out http://elsi-interchange.org to learn more.
  If scalability is important for your project, please acknowledge ELSI by citing:

    V. W-z. Yu, F. Corsetti, A. Garcia, W. P. Huhn, M. Jacquelin, W. Jia,
    B. Lange, L. Lin, J. Lu, W. Mi, A. Seifitokaldani, A. Vazquez-Mayagoitia,
    C. Yang, H. Yang, and V. Blum
    'ELSI: A unified software interface for Kohn-Sham electronic structure solvers'
    Computer Physics Communications 222, 267-285 (2018).
    http://dx.doi.org/10.1016/j.cpc.2017.09.007


  For the real-space grid partitioning and parallelization used in this calculation, please cite:

    Ville Havu, Volker Blum, Paula Havu, and Matthias Scheffler,
    'Efficient O(N) integration for all-electron electronic structure calculation'
    'using numerically tabulated basis functions'
    Journal of Computational Physics 228, 8367-8379 (2009).
    http://dx.doi.org/10.1016/j.jcp.2009.08.008

  Of course, there are many other important community references, e.g., those cited in the
  above references. Our list is limited to references that describe implementations in the
  FHI-aims code. The reason is purely practical (length of this list) - please credit others as well.

------------------------------------------------------------
          Leaving FHI-aims.
          Date     :  20190817, Time     :  153601.849

          Computational steps:
          | Number of self-consistency cycles          :            8
          | Number of SCF (re)initializations          :            1

          Detailed time accounting                     :  max(cpu_time)    wall_clock(cpu1)
          | Total time                                 :        0.603 s           0.631 s
          | Preparation time                           :        0.170 s           0.170 s
          | Boundary condition initalization           :        0.000 s           0.000 s
          | Grid partitioning                          :        0.008 s           0.008 s
          | Preloading free-atom quantities on grid    :        0.002 s           0.001 s
          | Free-atom superposition energy             :        0.005 s           0.005 s
          | Total time for integrations                :        0.145 s           0.141 s
          | Total time for solution of K.-S. equations :        0.017 s           0.018 s
          | Total time for density update              :        0.082 s           0.079 s
          | Total time for mixing                      :        0.013 s           0.013 s
          | Total time for Hartree multipole update    :        0.009 s           0.010 s
          | Total time for Hartree multipole sum       :        0.080 s           0.079 s
          | Total time for total energy evaluation     :        0.001 s           0.001 s

          Partial memory accounting:
          | Residual value for overall tracked memory usage across tasks:     0.000000 MB (should be 0.000000 MB)
          | Peak values for overall tracked memory usage:
          |   Minimum:        0.308 MB (on task 4 after allocating wave)
          |   Maximum:        0.315 MB (on task 0 after allocating wave)
          |   Average:        0.311 MB
          | Largest tracked array allocation:
          |   Minimum:        0.144 MB (gradient_basis_wave on task 0)
          |   Maximum:        0.144 MB (gradient_basis_wave on task 0)
          |   Average:        0.144 MB
          Note:  These values currently only include a subset of arrays which are explicitly tracked.
          The "true" memory usage will be greater.

          Have a nice day.
------------------------------------------------------------
