  MPI-parallelism will be employed.
------------------------------------------------------------
          Invoking FHI-aims ...

          When using FHI-aims, please cite the following reference:

          Volker Blum, Ralf Gehrke, Felix Hanke, Paula Havu,
          Ville Havu, Xinguo Ren, Karsten Reuter, and Matthias Scheffler,
          'Ab Initio Molecular Simulations with Numeric Atom-Centered Orbitals',
          Computer Physics Communications 180, 2175-2196 (2009)

          For any questions about FHI-aims, please visit the aimsclub website
          with its forums and wiki. Contributions to both the forums and the
          wiki are warmly encouraged - they are for you, and everyone is welcome there.

------------------------------------------------------------



  Date     :  20190902, Time     :  154815.074
  Time zero on CPU 1             :   0.259950000000000E-01  s.
  Internal wall clock time zero  :           336671295.074  s.

  FHI-aims created a unique identifier for this run for later identification
  aims_uuid : 33BB2CD3-B25E-447A-A6DB-C5A15C354B06

  Build configuration of the current instance of FHI-aims
  -------------------------------------------------------
  FHI-aims version      : 190824
  Commit number         : 2e5b160f6
  CMake host system     : Linux-2.6.32-754.14.2.el6.x86_64
  CMake version         : 3.13.5
  Fortran compiler      : /opt/intel/impi/2018.2.199/bin64/mpiifort (Intel) version 18.0.2.20180210
  Fortran compiler flags: -O3 -ip -fp-model precise -check bounds -check uninit -check pointers -traceback -g -fpe0 -warn all -warn nounused -warn nointerfaces
  C compiler            : /opt/intel/impi/2018.2.199/bin64/mpiicc (Intel) version 18.0.2.20180210
  C compiler flags      : -O3 -ip -std=c99
  Architecture          :
  Using MPI
  Using Scalapack
  Using C files
  Using LibXC
  Using SPGlib
  Linking against: /opt/intel/mkl/lib/intel64/libmkl_scalapack_lp64.so
                   /opt/intel/mkl/lib/intel64/libmkl_blacs_intelmpi_lp64.so
                   /opt/intel/mkl/lib/intel64/libmkl_intel_lp64.so
                   /opt/intel/mkl/lib/intel64/libmkl_sequential.so
                   /opt/intel/mkl/lib/intel64/libmkl_core.so

  Using       20 parallel tasks.
  Task        0 on host node15.timewarp reporting.
  Task        1 on host node15.timewarp reporting.
  Task        2 on host node15.timewarp reporting.
  Task        3 on host node15.timewarp reporting.
  Task        4 on host node15.timewarp reporting.
  Task        5 on host node15.timewarp reporting.
  Task        6 on host node15.timewarp reporting.
  Task        7 on host node15.timewarp reporting.
  Task        8 on host node15.timewarp reporting.
  Task        9 on host node15.timewarp reporting.
  Task       10 on host node15.timewarp reporting.
  Task       11 on host node15.timewarp reporting.
  Task       12 on host node15.timewarp reporting.
  Task       13 on host node15.timewarp reporting.
  Task       14 on host node15.timewarp reporting.
  Task       15 on host node15.timewarp reporting.
  Task       16 on host node15.timewarp reporting.
  Task       17 on host node15.timewarp reporting.
  Task       18 on host node15.timewarp reporting.
  Task       19 on host node15.timewarp reporting.

  Performing system and environment tests:
  | Environment variable OMP_NUM_THREADS correctly set to 1.
  | Maximum stacksize for task 0: unlimited
  | Maximum stacksize for task 1: unlimited
  | Maximum stacksize for task 2: unlimited
  | Maximum stacksize for task 3: unlimited
  | Maximum stacksize for task 4: unlimited
  | Maximum stacksize for task 5: unlimited
  | Maximum stacksize for task 6: unlimited
  | Maximum stacksize for task 7: unlimited
  | Maximum stacksize for task 8: unlimited
  | Maximum stacksize for task 9: unlimited
  | Maximum stacksize for task 10: unlimited
  | Maximum stacksize for task 11: unlimited
  | Maximum stacksize for task 12: unlimited
  | Maximum stacksize for task 13: unlimited
  | Maximum stacksize for task 14: unlimited
  | Maximum stacksize for task 15: unlimited
  | Maximum stacksize for task 16: unlimited
  | Maximum stacksize for task 17: unlimited
  | Maximum stacksize for task 18: unlimited
  | Maximum stacksize for task 19: unlimited
  | Current stacksize for task 0: unlimited
  | Current stacksize for task 1: unlimited
  | Current stacksize for task 2: unlimited
  | Current stacksize for task 3: unlimited
  | Current stacksize for task 4: unlimited
  | Current stacksize for task 5: unlimited
  | Current stacksize for task 6: unlimited
  | Current stacksize for task 7: unlimited
  | Current stacksize for task 8: unlimited
  | Current stacksize for task 9: unlimited
  | Current stacksize for task 10: unlimited
  | Current stacksize for task 11: unlimited
  | Current stacksize for task 12: unlimited
  | Current stacksize for task 13: unlimited
  | Current stacksize for task 14: unlimited
  | Current stacksize for task 15: unlimited
  | Current stacksize for task 16: unlimited
  | Current stacksize for task 17: unlimited
  | Current stacksize for task 18: unlimited
  | Current stacksize for task 19: unlimited
  | Checking for scalapack...
  | Testing pdtran()...
  | All pdtran() tests passed.

  Obtaining array dimensions for all initial allocations:
  
  -----------------------------------------------------------------------
  Parsing control.in (first pass over file, find array dimensions only).
  The contents of control.in will be repeated verbatim below
  unless switched off by setting 'verbatim_writeout .false.' .
  in the first line of control.in .
  -----------------------------------------------------------------------
  
  xc pbe
  relativistic atomic_zora scalar
  include_spin_orbit
  
  k_grid   6  6   6
  
  compute_dielectric   8.0  1000
  output dielectric  lorentzian 0.1   x  x
  output dielectric  gaussian   0.1   x  x
  
  output dielectric  lorentzian 0.1   y  y
  output dielectric  gaussian   0.1   y  y
  
  output dielectric  lorentzian 0.1   z  z
  output dielectric  gaussian   0.1   z  z
  
  ################################################################################
  #
  #  FHI-aims code project
  #  VB, Fritz-Haber Institut, 2009
  #
  #  Suggested "light" defaults for S atom (to be pasted into control.in file)
  #  Be sure to double-check any results obtained with these settings for post-processing,
  #  e.g., with the "tight" defaults and larger basis sets.
  #
  ################################################################################
    species        S
  #     global species definitions
      nucleus             16
      mass                32.065
  #
      l_hartree           4
  #
      cut_pot             3.5          1.5  1.0
      basis_dep_cutoff    1e-4
  #
      radial_base         44 5.0
      radial_multiplier   1
      angular_grids       specified
        division   0.4665  110
        division   0.5810  194
        division   0.7139  302
  #      division   0.8274  434
  #      division   0.9105  590
  #      division   1.0975  770
  #      division   1.2028  974
  #      outer_grid  974
        outer_grid  302
  ################################################################################
  #
  #  Definition of "minimal" basis
  #
  ################################################################################
  #     valence basis states
      valence      3  s   2.
      valence      3  p   4.
  #     ion occupancy
      ion_occ      3  s   1.
      ion_occ      3  p   3.
  ################################################################################
  #
  #  Suggested additional basis functions. For production calculations,
  #  uncomment them one after another (the most important basis functions are
  #  listed first).
  #
  #  Constructed for dimers: 1.6 A, 1.9 A, 2.5 A, 3.25 A, 4.0 A
  #
  ################################################################################
  #  "First tier" - improvements: -652.81 meV to -45.53 meV
       ionic 3 d auto
       hydro 2 p 1.8
  #     hydro 4 f 7
       ionic 3 s auto
  #  "Second tier" - improvements: -30.20 meV to -1.74 meV
  #     hydro 4 d 6.2
  #     hydro 5 g 10.8
  #     hydro 4 p 4.9
  #     hydro 5 f 10
  #     hydro 1 s 0.8
  #  "Third tier" - improvements: -1.04 meV to -0.20 meV
  #     hydro 3 d 3.9
  #     hydro 3 d 2.7
  #     hydro 5 g 12
  #     hydro 4 p 10.4
  #     hydro 5 f 12.4
  #     hydro 2 s 1.9
  #  "Fourth tier" - improvements: -0.35 meV to -0.06 meV
  #     hydro 4 d 10.4
  #     hydro 4 p 7.2
  #     hydro 4 d 10
  #     hydro 5 g 19.2
  #     hydro 4 s 12
  
  ################################################################################
  #
  #  FHI-aims code project
  #  VB, Fritz-Haber Institut, 2009
  #
  #  Suggested "light" defaults for Pb atom (to be pasted into control.in file)
  #  Be sure to double-check any results obtained with these settings for post-processing,
  #  e.g., with the "tight" defaults and larger basis sets.
  #
  #
  ################################################################################
    species        Pb
  #     global species definitions
      nucleus             82
      mass                207.2
  #
      l_hartree           4
  #
      cut_pot             4.0  1.5  1.0
      basis_dep_cutoff    1e-4
  #
      radial_base         74 5.5
      radial_multiplier   1
      angular_grids specified
        division   0.1064  110
        division   0.1579  194
        division   0.2150  302
  #      division   1.0164  434
  #      division   1.1544  590
  #      division   1.1970  770
  #      division   7.7779  974
  #      outer_grid  974
        outer_grid 302
  ################################################################################
  #
  #  Definition of "minimal" basis
  #
  ################################################################################
  #     valence basis states
      valence      6  s   2.
      valence      6  p   2.
      valence      5  d  10.
      valence      4  f  14.
  #     ion occupancy
      ion_occ     6  s    1.
      ion_occ     6  p    1.
      ion_occ     5  d   10.
      ion_occ     4  f   14.
  ################################################################################
  #
  #  Suggested additional basis functions. For production calculations,
  #  uncomment them one after another (the most important basis functions are
  #  listed first).
  #
  #  Constructed for dimers: 2.225, 2.50, 2.88, 3.625, 4.50
  #
  ################################################################################
  #  "First tier" - max. impr. -156.54 meV, min. impr. -14.49 meV
       hydro 3 p 2.3
       hydro 4 f 7.6
       hydro 3 d 3.5
  #     hydro 5 g 9.8
       hydro 3 s 3.2
  #  "Second tier" - max. impr. -4.38  meV, min. impr. -0.30 meV
  #     hydro 6 h 12.8
  #     hydro 3 d 2.4
  #     hydro 5 f 7.2
  #     hydro 5 f 14.8
  #     hydro 4 p 5.4
  #     ionic 6 s auto
  #  "Third tier" - max. impr. -0.86 meV, min. impr. -0.16 meV
  #     hydro 5 p 14.4
  #     hydro 5 g 8.2
  #     hydro 4 d 4.6
  #     hydro 6 h 12.4
  #     hydro 6 d 12.4
  #     hydro 4 s 4
  #     hydro 5 g 32.8
  #     hydro 5 f 9.4
  #  Further functions: -0.10 meV and below
  #     hydro 5 f 17.6
  #     hydro 7 p 19.6
  
  -----------------------------------------------------------------------
  Completed first pass over input file control.in .
  -----------------------------------------------------------------------
  
  
  -----------------------------------------------------------------------
  Parsing geometry.in (first pass over file, find array dimensions only).
  The contents of geometry.in will be repeated verbatim below
  unless switched off by setting 'verbatim_writeout .false.' .
  in the first line of geometry.in .
  -----------------------------------------------------------------------
  
  #************************************************************************************
  #*                   Generated by cif2cell 1.2.2 2017-12-08 11:17                   *
  #*  T. Bjorkman, Comp. Phys. Commun. 182, 1183-1186 (2011). Please cite generously. *
  #*                                                                                  *
  #*                                         ()                                       *
  #*             Failed to get author information, No journal information             *
  #************************************************************************************
  
  lattice_vector    6.000000000000000   0.000000000000000   0.000000000000000
  lattice_vector    0.000000000000000   6.000000000000000   0.000000000000000
  lattice_vector    3.000000000000000   3.000000000000000   3.750000000000000
  atom_frac    0.750000000000000   0.750000000000000   0.500000000000000  Pb
  atom_frac    0.250000000000000   0.250000000000000   0.500000000000000  Pb
  atom_frac    0.122000000000000   0.622000000000000   0.000000000000000  S
  atom_frac    0.878000000000000   0.378000000000000   0.000000000000000  S
  atom_frac    0.622000000000000   0.878000000000000   0.000000000000000  S
  atom_frac    0.378000000000000   0.122000000000000   0.000000000000000  S
  
  -----------------------------------------------------------------------
  Completed first pass over input file geometry.in .
  -----------------------------------------------------------------------
  

  Basic array size parameters:
  | Number of species                 :        2
  | Number of atoms                   :        6
  | Number of lattice vectors         :        3
  | Max. basis fn. angular momentum   :        3
  | Max. atomic/ionic basis occupied n:        6
  | Max. number of basis fn. types    :        3
  | Max. radial fns per species/type  :       15
  | Max. logarithmic grid size        :     1491
  | Max. radial integration grid size :       74
  | Max. angular integration grid size:      302
  | Max. angular grid division number :        8
  | Radial grid for Hartree potential :     1491
  | Number of spin channels           :        1

------------------------------------------------------------
          Reading file control.in.
------------------------------------------------------------
  XC: Using PBE gradient-corrected functionals.
  Scalar relativistic treatment of kinetic energy: on-site free-atom approximation to ZORA.
  Calculating non-self-consistent second-variational spin-orbit coupling after scf-cycle
  Found k-point grid:         6         6         6
  Compute Momentum Matrix.

  Plot dielectric direction    1

  Plot dielectric direction    2

  Plot dielectric direction    3

  Plot dielectric direction    4

  Plot dielectric direction    5

  Plot dielectric direction    6
 
  Reading configuration options for species S                   .
  | Found nuclear charge :  16.0000
  | Found atomic mass :    32.0650000000000      amu
  | Found l_max for Hartree potential  :   4
  | Found cutoff potl. onset [A], width [A], scale factor :    3.50000    1.50000    1.00000
  | Threshold for basis-dependent cutoff potential is   0.100000E-03
  | Found data for basic radial integration grid :    44 points, outermost radius =    5.000 A
  | Found multiplier for basic radial grid :   1
  | Found angular grid specification: user-specified.
  | Specified grid contains     4 separate shells.
  | Check grid settings after all constraints further below.
  | Found free-atom valence shell :  3 s   2.000
  | Found free-atom valence shell :  3 p   4.000
  | Found free-ion valence shell :  3 s   1.000
  | Found free-ion valence shell :  3 p   3.000
  | Found ionic basis function :  3 d , default cutoff radius.
  | Found hydrogenic basis function :  2 p   1.800
  | Found ionic basis function :  3 s , default cutoff radius.
  Species S                   : Missing cutoff potential type.
  Defaulting to exp(1/x)/(1-x)^2 type cutoff potential.
  Species S : No 'logarithmic' tag. Using default grid for free atom:
  | Default logarithmic grid data [bohr] : 0.1000E-03 0.1000E+03 0.1012E+01
  | Will include ionic basis functions of  2.0-fold positive S                    ion.
  Species S : On-site basis accuracy parameter (for Gram-Schmidt orthonormalisation) not specified.
  Using default value basis_acc =  0.1000000E-03.
  Species S                   : Using default innermost maximum threshold i_radial=  2 for radial functions.
  Species S                   : Default cutoff onset for free atom density etc. : 0.35000000E+01 AA.
  Species S                   : Basic radial grid will be enhanced according to radial_multiplier =   1, to contain    44 grid points.
 
  Reading configuration options for species Pb                  .
  | Found nuclear charge :  82.0000
  | Found atomic mass :    207.200000000000      amu
  | Found l_max for Hartree potential  :   4
  | Found cutoff potl. onset [A], width [A], scale factor :    4.00000    1.50000    1.00000
  | Threshold for basis-dependent cutoff potential is   0.100000E-03
  | Found data for basic radial integration grid :    74 points, outermost radius =    5.500 A
  | Found multiplier for basic radial grid :   1
  | Found angular grid specification: user-specified.
  | Specified grid contains     4 separate shells.
  | Check grid settings after all constraints further below.
  | Found free-atom valence shell :  6 s   2.000
  | Found free-atom valence shell :  6 p   2.000
  | Found free-atom valence shell :  5 d  10.000
  | Found free-atom valence shell :  4 f  14.000
  | Found free-ion valence shell :  6 s   1.000
  | Found free-ion valence shell :  6 p   1.000
  | Found free-ion valence shell :  5 d  10.000
  | Found free-ion valence shell :  4 f  14.000
  | Found hydrogenic basis function :  3 p   2.300
  | Found hydrogenic basis function :  4 f   7.600
  | Found hydrogenic basis function :  3 d   3.500
  | Found hydrogenic basis function :  3 s   3.200
  Species Pb                  : Missing cutoff potential type.
  Defaulting to exp(1/x)/(1-x)^2 type cutoff potential.
  Species Pb: No 'logarithmic' tag. Using default grid for free atom:
  | Default logarithmic grid data [bohr] : 0.1000E-03 0.1000E+03 0.1012E+01
  Species Pb: On-site basis accuracy parameter (for Gram-Schmidt orthonormalisation) not specified.
  Using default value basis_acc =  0.1000000E-03.
  Species Pb                  : Using default innermost maximum threshold i_radial=  2 for radial functions.
  Species Pb                  : Default cutoff onset for free atom density etc. : 0.40000000E+01 AA.
  Species Pb                  : Basic radial grid will be enhanced according to radial_multiplier =   1, to contain    74 grid points.
 
  Finished reading input file 'control.in'. Consistency checks are next.
 
  MPI_IN_PLACE appears to work with this MPI implementation.
  | Keeping use_mpi_in_place .true. (see manual).
  Target number of points in a grid batch is not set. Defaulting to  100
  Method for grid partitioning is not set. Defaulting to parallel hash+maxmin partitioning.
  Batch size limit is not set. Defaulting to    200
  By default, will store active basis functions for each batch.
  If in need of memory, prune_basis_once .false. can be used to disable this option.
  communication_type for Hartree potential was not specified.
  Defaulting to calc_hartree .
  Defaulting to Pulay charge density mixer.
  Pulay mixer: Number of relevant iterations not set.
  Defaulting to    8 iterations.
  Pulay mixer: Number of initial linear mixing iterations not set.
  Defaulting to    0 iterations.
  Work space size for distributed Hartree potential not set.
  Defaulting to   0.200000E+03 MB.
  Mixing parameter for charge density mixing has not been set.
  Using default: charge_mix_param =     0.0500.
  The mixing parameter will be adjusted in iteration number     2 of the first full s.c.f. cycle only.
  Algorithm-dependent basis array size parameters:
  | n_max_pulay                         :        8
 * Notice: The s.c.f. convergence criterion sc_accuracy_rho was not provided.
 * We used to stop in this case, and ask the user to provide reasonable
 * scf convergence criteria. However, this led some users to employ criteria
 * that led to extremely long run times, e.g., for simple relaxation.
 * We now preset a default value for sc_accuracy_rho if it is not set.
 * You may still wish to check if this setting is too tight or too loose for your needs.
 * Based on n_atoms, FHI-aims chose sc_accuracy_rho =  0.100000E-05 .
  Maximum number of self-consistency iterations not provided.
  Presetting  1000 iterations.
  Presetting      1001 iterations before the initial mixing cycle
  is restarted anyway using the sc_init_iter criterion / keyword.
  Presetting a factor      1.000 between actual scf density residual
  and density convergence criterion sc_accuracy_rho below which sc_init_iter
  takes no effect.
 * No s.c.f. convergence criteria (sc_accuracy_*) were provided in control.in.
 * The run will proceed with a reasonable default guess, but please check whether.
 * the s.c.f. cycles seem to take too much or too little time.
  Calculation of forces was not defined in control.in. No forces will be calculated.
  Geometry relaxation not requested: no relaxation will be performed.
  No accuracy limit for integral partition fn. given. Defaulting to  0.1000E-14.
  No threshold value for u(r) in integrations given. Defaulting to  0.1000E-05.
  No occupation type (smearing scheme) given. Defaulting to Gaussian broadening, width =  0.1000E-01 eV.
  The width will be adjusted in iteration number     2 of the first full s.c.f. cycle only.
  S.C.F. convergence parameters will be adjusted in iteration number     2 of the first full s.c.f. cycle only.
  No accuracy for occupation numbers given. Defaulting to  0.1000E-12.
  No threshold value for occupation numbers given. Defaulting to  0.0000E+00.
  No accuracy for fermi level given. Defaulting to  0.1000E-19.
  Maximum # of iterations to find E_F not set. Defaulting to  200.
  Preferred method for the eigenvalue solver ('KS_method') not specified in 'control.in'.
  Defaulting to serial version, LAPACK (via ELSI), since more k-points than CPUs available.
  Will not use alltoall communication since running on < 1024 CPUs.
  Threshold for basis singularities not set.
  Default threshold for basis singularities:  0.1000E-04
  partition_type (choice of integration weights) for integrals was not specified.
  | Using a version of the partition function of Stratmann and coworkers ('stratmann_sparse').
  | At each grid point, the set of atoms used to build the partition table is smoothly restricted to
  | only those atoms whose free-atom density would be non-zero at that grid point.
  Partitioning for Hartree potential was not defined. Using partition_type for integrals.
  | Adjusted default value of keyword multip_moments_threshold to:       0.10000000E-11
  | This value may affect high angular momentum components of the Hartree potential in periodic systems.
  Spin handling was not defined in control.in. Defaulting to unpolarized case.
  Angular momentum expansion for Kerker preconditioner not set explicitly.
  | Using default value of   0
  No explicit requirement for turning off preconditioner.
  | By default, it will be turned off when the charge convergence reaches
  | sc_accuracy_rho  =   0.100000E-05
  No special mixing parameter while Kerker preconditioner is on.
  Using default: charge_mix_param =     0.0500.
  No q(lm)/r^(l+1) cutoff set for long-range Hartree potential.
  | Using default value of  0.100000E-09 .
  | Verify using the multipole_threshold keyword.
  Defaulting to new monopole extrapolation.
  Density update method: automatic selection selected.
  Using density matrix based charge density update.
  Using density matrix based charge density update.
  Using packed matrix style: index .
  Defaulting to use time-reversal symmetry for k-point grid.
  Charge integration errors on the 3D integration grid will be compensated
  by explicit normalization and distribution of residual charges.
  Use the "compensate_multipole_errors" flag to change this behaviour.
------------------------------------------------------------


------------------------------------------------------------
          Reading geometry description geometry.in.
------------------------------------------------------------
  Input structure read successfully.
  The structure contains        6 atoms,  and a total of        228.000 electrons.

  Input geometry:
  | Unit cell:
  |        6.00000000        0.00000000        0.00000000
  |        0.00000000        6.00000000        0.00000000
  |        3.00000000        3.00000000        3.75000000
  | Atomic structure:
  |       Atom                x [A]            y [A]            z [A]
  |    1: Species Pb            6.00000000        6.00000000        1.87500000
  |    2: Species Pb            3.00000000        3.00000000        1.87500000
  |    3: Species S             0.73200000        3.73200000        0.00000000
  |    4: Species S             5.26800000        2.26800000        0.00000000
  |    5: Species S             3.73200000        5.26800000        0.00000000
  |    6: Species S             2.26800000        0.73200000        0.00000000

  Lattice parameters for 3D lattice (in Angstroms) :     6.000000    6.000000    5.662376
  Angle(s) between unit vectors (in degrees)       :    58.007183   58.007183   90.000000

  | The smallest distance between any two atoms is         2.07040866 AA.
  | The first atom of this pair is atom number                      3 .
  | The second atom of this pair is atom number                     4 .
  | Wigner-Seitz cell of the first atom image           0     1     0 .
  | (The Wigner-Seitz cell of the second atom is 0 0 0  by definition.)

  Symmetry information by spglib:
  | Precision set to  0.1E-04
  | Number of Operations  : 16
  | Space group           : 140
  | International         : I4/mcm
  | Schoenflies           : D4h^18

  Quantities derived from the lattice vectors:
  | Reciprocal lattice vector 1:  1.047198 -0.000000 -0.837758
  | Reciprocal lattice vector 2:  0.000000  1.047198 -0.837758
  | Reciprocal lattice vector 3:  0.000000 -0.000000  1.675516
  | Unit cell volume                               :   0.135000E+03  A^3

  Range separation radius for Ewald summation (hartree_convergence_parameter):      4.05820552 bohr.

  Fractional coordinates:
                         L1                L2                L3
       atom_frac         0.75000000        0.75000000        0.50000000  Pb
       atom_frac         0.25000000        0.25000000        0.50000000  Pb
       atom_frac         0.12200000        0.62200000       -0.00000000  S
       atom_frac         0.87800000        0.37800000       -0.00000000  S
       atom_frac         0.62200000        0.87800000       -0.00000000  S
       atom_frac         0.37800000        0.12200000       -0.00000000  S

  Number of empty states per atom not set in control.in - providing a guess from actual geometry.
  | Total number of empty states used during s.c.f. cycle:       30
  If you use a very high smearing, use empty_states (per atom!) in control.in to increase this value.

  Structure-dependent array size parameters: 
  | Maximum number of distinct radial functions  :       27
  | Maximum number of basis functions            :      190
  | Number of Kohn-Sham states (occupied + empty):      294
------------------------------------------------------------

------------------------------------------------------------
          Preparing all fixed parts of the calculation.
------------------------------------------------------------
  Determining machine precision:
    2.225073858507201E-308
  Setting up grids for atomic and cluster calculations.

  Creating wave function, potential, and density for free atoms.

  Species: S

  List of occupied orbitals and eigenvalues:
    n    l              occ      energy [Ha]    energy [eV]
    1    0           2.0000       -88.678258     -2413.0582
    2    0           2.0000        -7.779365      -211.6873
    3    0           2.0000        -0.631865       -17.1939
    2    1           6.0000        -5.749610      -156.4549
    3    1           4.0000        -0.255301        -6.9471


  Species: Pb

  List of occupied orbitals and eigenvalues:
    n    l              occ      energy [Ha]    energy [eV]
    1    0           2.0000     -3583.275374    -97505.8840
    2    0           2.0000      -591.288386    -16089.7756
    3    0           2.0000      -139.815632     -3804.5769
    4    0           2.0000       -31.498090      -857.1066
    5    0           2.0000        -5.283870      -143.7814
    6    0           2.0000        -0.434182       -11.8147
    2    1           6.0000      -505.944692    -13767.4555
    3    1           6.0000      -115.938523     -3154.8477
    4    1           6.0000       -23.732126      -645.7840
    5    1           6.0000        -3.141456       -85.4834
    6    1           2.0000        -0.120461        -3.2779
    3    2          10.0000       -91.723313     -2495.9183
    4    2          10.0000       -14.773305      -402.0021
    5    2          10.0000        -0.769506       -20.9393
    4    3          14.0000        -4.885932      -132.9530

  Creating fixed part of basis set: Ionic, confined, hydrogenic.
 
  S                    ion:

  List of free ionic orbitals and eigenvalues:
    n    l      energy [Ha]    energy [eV]
    1    0       -89.703778     -2440.9640
    2    0        -8.775428      -238.7916
    3    0        -1.470343       -40.0101
    2    1        -6.747660      -183.6132
    3    1        -1.048627       -28.5346


  List of ionic basis orbitals and eigenvalues:
    n    l      energy [Ha]    energy [eV]    outer radius [A]
    3    2        -0.495221       -13.4756       4.539062
    3    0        -1.470325       -40.0096       3.642502

 
  S                    hydrogenic:
 
  List of hydrogenic basis orbitals: 
    n    l      effective z      eigenvalue [eV]  inner max. [A]     outer max. [A]     outer radius [A]   
    2    1         1.800000       -10.9749           1.168531           1.168531           4.594893
 
 
  Pb                   hydrogenic:
 
  List of hydrogenic basis orbitals: 
    n    l      effective z      eigenvalue [eV]  inner max. [A]     outer max. [A]     outer radius [A]   
    3    1         2.300000        -7.3978           0.685138           2.597082           5.087378
    4    3         7.600000       -49.1160           1.117244           1.117244           4.447258
    3    2         3.500000       -18.5104           1.358613           1.358613           5.025564
    3    0         3.200000       -15.3818           0.122229           2.161957           5.087378
 

  Adding cutoff potential to free-atom effective potential.
  Creating atomic-like basis functions for current effective potential.

  Species S                   :

  List of atomic basis orbitals and eigenvalues:
    n    l      energy [Ha]    energy [eV]    outer radius [A]
    1    0       -88.678258     -2413.0582       0.682391
    2    0        -7.779365      -211.6873       2.289014
    3    0        -0.631865       -17.1939       4.483910
    2    1        -5.749610      -156.4549       2.555240
    3    1        -0.255301        -6.9471       4.539062


  Species Pb                  :

  List of atomic basis orbitals and eigenvalues:
    n    l      energy [Ha]    energy [eV]    outer radius [A]
    1    0     -3583.275374    -97505.8840       0.114982
    2    0      -591.288386    -16089.7756       0.298366
    3    0      -139.815632     -3804.5769       0.621304
    4    0       -31.498090      -857.1066       1.278055
    5    0        -5.283870      -143.7814       2.934797
    6    0        -0.434182       -11.8147       5.025564
    2    1      -505.944692    -13767.4555       0.317173
    3    1      -115.938523     -3154.8477       0.668590
    4    1       -23.732126      -645.7840       1.426700
    5    1        -3.141456       -85.4834       3.657164
    6    1        -0.120461        -3.2779       5.087378
    3    2       -91.723313     -2495.9183       0.719474
    4    2       -14.773305      -402.0021       1.713844
    5    2        -0.769506       -20.9393       4.844590
    4    3        -4.885932      -132.9530       2.597082

  Assembling full basis from fixed parts.
  | Species S :   atomic orbital   1 s accepted.
  | Species S :   atomic orbital   2 s accepted.
  | Species S :    ionic orbital   3 s accepted.
  | Species S :   atomic orbital   3 s accepted.
  | Species S :   atomic orbital   2 p accepted.
  | Species S :   atomic orbital   3 p accepted.
  | Species S :    hydro orbital   2 p accepted.
  | Species S :    ionic orbital   3 d accepted.
  | Species Pb :   atomic orbital   1 s accepted.
  | Species Pb :   atomic orbital   2 s accepted.
  | Species Pb :   atomic orbital   3 s accepted.
  | Species Pb :   atomic orbital   4 s accepted.
  | Species Pb :   atomic orbital   5 s accepted.
  | Species Pb :   atomic orbital   6 s accepted.
  | Species Pb :    hydro orbital   3 s accepted.
  | Species Pb :   atomic orbital   2 p accepted.
  | Species Pb :   atomic orbital   3 p accepted.
  | Species Pb :   atomic orbital   4 p accepted.
  | Species Pb :   atomic orbital   5 p accepted.
  | Species Pb :   atomic orbital   6 p accepted.
  | Species Pb :    hydro orbital   3 p accepted.
  | Species Pb :   atomic orbital   3 d accepted.
  | Species Pb :   atomic orbital   4 d accepted.
  | Species Pb :   atomic orbital   5 d accepted.
  | Species Pb :    hydro orbital   3 d accepted.
  | Species Pb :   atomic orbital   4 f accepted.
  | Species Pb :    hydro orbital   4 f accepted.
  Reducing total number of  Kohn-Sham states to      190.
 
  Basis size parameters after reduction:
  | Total number of radial functions:       27
  | Total number of basis functions :      190
 
  Per-task memory consumption for arrays in subroutine allocate_ext:
  |          10.311912MB.
  Testing on-site integration grid accuracy.
  |  Species  Function  <phi|h_atom|phi> (log., in eV)  <phi|h_atom|phi> (rad., in eV)
           1        1              -2413.0581659109              -2413.0570554886
           1        2               -211.6872814127               -211.6872738937
           1        3                -16.9208611991                -16.9208255642
           1        4                  7.5845503345                  7.5614252779
           1        5               -156.4548540501               -156.4548540107
           1        6                 -6.9485729304                 -6.9508389945
           1        7                  7.5803076288                  7.5258504832 ***
           1        8                  6.1173006980                  6.1127563631
           2        9             -97505.8839916597             -97505.4610915722 ***
           2       10             -16089.7756224867             -16089.7673698558
           2       11              -3804.5769230375              -3804.5764843087
           2       12               -857.1066466665               -857.1066165521
           2       13               -143.7814146583               -143.7814107259
           2       14                -11.8148645926                -11.8150585698
           2       15                  3.1384536114                  3.1074738951 ***
           2       16             -13767.4555482042             -13767.4555179163
           2       17              -3154.8477157471              -3154.8477089453
           2       18               -645.7840140064               -645.7840104767
           2       19                -85.4833700251                -85.4833680553
           2       20                 -3.2863583968                 -3.2978599646
           2       21                  5.7851278719                  5.6622419767 ***
           2       22              -2495.9183401346              -2495.9183384015
           2       23               -402.0020691689               -402.0020673701
           2       24                -20.9393228216                -20.9393223968
           2       25                  7.1026569115                  7.0986049218
           2       26               -132.9529645464               -132.9529639915
           2       27                 17.8899917474                 17.8898480698
 * Note: Onsite integrals marked "***" above are less accurate than
 * onsite_accuracy_threshold =    0.03000 eV. Usually, this is harmless.
 * However, one integral did have a negative value. This integral could be important.
 * When in doubt, tighten the "radial" and/or "radial_multiplier" flags to check.

  Preparing densities etc. for the partition functions (integrals / Hartree potential).

  Preparations completed.
  max(cpu_time)          :      0.666 s.
  Wall clock time (cpu1) :      0.665 s.
------------------------------------------------------------

------------------------------------------------------------
          Begin self-consistency loop: Initialization.

          Date     :  20190902, Time     :  154815.808
------------------------------------------------------------

  Initializing index lists of integration centers etc. from given atomic structure:
  Mapping all atomic coordinates to central unit cell.

  Initializing the k-points
  Using symmetry for reducing the k-points
  | k-points reduced from:      216 to      112
  | Number of k-points                             :       112
  The eigenvectors in the calculations are COMPLEX.
  | K-points in task   0:         5
  | K-points in task   1:         6
  | K-points in task   2:         6
  | K-points in task   3:         6
  | K-points in task   4:         6
  | K-points in task   5:         6
  | K-points in task   6:         6
  | K-points in task   7:         6
  | K-points in task   8:         6
  | K-points in task   9:         6
  | K-points in task  10:         6
  | K-points in task  11:         6
  | K-points in task  12:         6
  | K-points in task  13:         5
  | K-points in task  14:         5
  | K-points in task  15:         5
  | K-points in task  16:         5
  | K-points in task  17:         5
  | K-points in task  18:         5
  | K-points in task  19:         5
  | Number of basis functions in the Hamiltonian integrals :      2830
  | Number of basis functions in a single unit cell        :       190
  | Number of centers in hartree potential         :       958
  | Number of centers in hartree multipole         :       429
  | Number of centers in electron density summation:       332
  | Number of centers in basis integrals           :       345
  | Number of centers in integrals                 :       130
  | Number of centers in hamiltonian               :       374
  | Consuming        168 KiB for k_phase.
  | Number of super-cells (origin) [n_cells]                     :         891
  | Number of super-cells (after PM_index) [n_cells]             :          96
  | Number of super-cells in hamiltonian [n_cells_in_hamiltonian]:          96
  | Size of matrix packed + index [n_hamiltonian_matrix_size] :      252287
  | Estimated reciprocal-space cutoff momentum G_max:         2.29562005 bohr^-1 .
  | Reciprocal lattice points for long-range Hartree potential:     172
  Partitioning the integration grid into batches with parallel hashing+maxmin method.
  | Number of batches:      847
  | Maximal batch size:     123
  | Minimal batch size:      51
  | Average batch size:      84.921
  | Standard deviation of batch sizes:      14.823

  Integration load balanced across    20 MPI tasks.
  Work distribution over tasks is as follows:
  Task     0 has       3581 integration points.
  Task     1 has       3575 integration points.
  Task     2 has       3576 integration points.
  Task     3 has       3561 integration points.
  Task     4 has       3638 integration points.
  Task     5 has       3581 integration points.
  Task     6 has       3569 integration points.
  Task     7 has       3659 integration points.
  Task     8 has       3589 integration points.
  Task     9 has       3569 integration points.
  Task    10 has       3601 integration points.
  Task    11 has       3572 integration points.
  Task    12 has       3640 integration points.
  Task    13 has       3589 integration points.
  Task    14 has       3648 integration points.
  Task    15 has       3571 integration points.
  Task    16 has       3568 integration points.
  Task    17 has       3624 integration points.
  Task    18 has       3570 integration points.
  Task    19 has       3647 integration points.
  Initializing partition tables, free-atom densities, potentials, etc. across the integration grid (initialize_grid_storage).
  | initialize_grid_storage: Actual outermost partition radius vs. multipole_radius_free
  | (-- VB: in principle, multipole_radius_free should be larger, hence this output)
  | Species        1: Confinement radius =              4.999999999999999 AA, multipole_radius_free =              5.005414751018925 AA.
  | Species        1: outer_partition_radius set to              5.005414751018925 AA .
  | Species        2: Confinement radius =              5.500000000000000 AA, multipole_radius_free =              5.541900383498898 AA.
  | Species        2: outer_partition_radius set to              5.541900383498898 AA .
  | The sparse table of interatomic distances needs        521.80 kbyte instead of       952.20 kbyte of memory.
  | Net number of integration points:    71928
  | of which are non-zero points    :    66804
  | Numerical average free-atom electrostatic potential    :    -16.34901664 eV
  Renormalizing the initial density to the exact electron count on the 3D integration grid.
  | Initial density: Formal number of electrons (from input files) :     228.0000000000
  | Integrated number of electrons on 3D grid     :     228.0000113908
  | Charge integration error                      :       0.0000113908
  | Normalization factor for density and gradient :       0.9999999500
  Renormalizing the free-atom superposition density to the exact electron count on the 3D integration grid.
  | Formal number of electrons (from input files) :     228.0000000000
  | Integrated number of electrons on 3D grid     :     228.0000113908
  | Charge integration error                      :       0.0000113908
  | Normalization factor for density and gradient :       0.9999999500
  Obtaining max. number of non-zero basis functions in each batch (get_n_compute_maxes).
  | Maximal number of non-zero basis functions:      571 in task     0
  | Maximal number of non-zero basis functions:      587 in task     1
  | Maximal number of non-zero basis functions:      589 in task     2
  | Maximal number of non-zero basis functions:      592 in task     3
  | Maximal number of non-zero basis functions:      600 in task     4
  | Maximal number of non-zero basis functions:      581 in task     5
  | Maximal number of non-zero basis functions:      575 in task     6
  | Maximal number of non-zero basis functions:      587 in task     7
  | Maximal number of non-zero basis functions:      594 in task     8
  | Maximal number of non-zero basis functions:      572 in task     9
  | Maximal number of non-zero basis functions:      593 in task    10
  | Maximal number of non-zero basis functions:      582 in task    11
  | Maximal number of non-zero basis functions:      622 in task    12
  | Maximal number of non-zero basis functions:      581 in task    13
  | Maximal number of non-zero basis functions:      589 in task    14
  | Maximal number of non-zero basis functions:      584 in task    15
  | Maximal number of non-zero basis functions:      559 in task    16
  | Maximal number of non-zero basis functions:      587 in task    17
  | Maximal number of non-zero basis functions:      559 in task    18
  | Maximal number of non-zero basis functions:      576 in task    19
  Allocating        2.754 MB for KS_eigenvector_complex
  Integrating Hamiltonian matrix: batch-based integration.
  Time summed over all CPUs for integration: real work       11.789 s, elapsed       12.175 s
  Integrating overlap matrix.
  Time summed over all CPUs for integration: real work        8.284 s, elapsed        8.561 s
  Decreasing sparse matrix size:
  | Tolerance:  0.1000E-12
  Hamiltonian matrix
  | Array has   197774 nonzero elements out of   252287 elements
  | Sparsity factor is 0.216
  Overlap matrix
  | Array has   182724 nonzero elements out of   252287 elements
  | Sparsity factor is 0.276
  New size of hamiltonian matrix:      200629

  Updating Kohn-Sham eigenvalues and eigenvectors using ELSI and the (modified) LAPACK eigensolver.
  Singularity check in k-point 20, task 0 (analysis for other k-points/tasks may follow below):
  Overlap matrix is not singular
  | Lowest and highest eigenvalues :  0.3627E-02,  0.5877E+01
  Finished singularity check of overlap matrix
  | Time :     0.009 s
  Starting LAPACK eigensolver
  Finished Cholesky decomposition
  | Time :     0.002 s
  Finished transformation to standard eigenproblem
  | Time :     0.004 s
  Finished solving standard eigenproblem
  | Time :     0.013 s
  Finished back-transformation of eigenvectors
  | Time :     0.002 s

  Obtaining occupation numbers and chemical potential using ELSI.
  | Chemical potential (Fermi level):    -4.51861673 eV
  Writing Kohn-Sham eigenvalues.
  K-point:       1 at    0.000000    0.000000    0.000000 (in units of recip. lattice)

  State    Occupation    Eigenvalue [Ha]    Eigenvalue [eV]
      1       2.00000       -3583.248032       -97505.13997
      2       2.00000       -3583.248032       -97505.13997
      3       2.00000        -591.286421       -16089.72214
      4       2.00000        -591.286421       -16089.72214
      5       2.00000        -505.946079       -13767.49328
      6       2.00000        -505.946079       -13767.49328
      7       2.00000        -505.946077       -13767.49325
      8       2.00000        -505.946077       -13767.49325
      9       2.00000        -505.946077       -13767.49325
     10       2.00000        -505.946077       -13767.49325
     11       2.00000        -139.816110        -3804.58992
     12       2.00000        -139.816110        -3804.58992
     13       2.00000        -115.939726        -3154.88046
     14       2.00000        -115.939726        -3154.88046
     15       2.00000        -115.939716        -3154.88018
     16       2.00000        -115.939716        -3154.88018
     17       2.00000        -115.939716        -3154.88018
     18       2.00000        -115.939716        -3154.88018
     19       2.00000         -91.724438        -2495.94895
     20       2.00000         -91.724438        -2495.94895
     21       2.00000         -91.724436        -2495.94890
     22       2.00000         -91.724436        -2495.94890
     23       2.00000         -91.724436        -2495.94890
     24       2.00000         -91.724436        -2495.94890
     25       2.00000         -91.724430        -2495.94873
     26       2.00000         -91.724430        -2495.94873
     27       2.00000         -91.724430        -2495.94873
     28       2.00000         -91.724430        -2495.94873
     29       2.00000         -88.690492        -2413.39108
     30       2.00000         -88.690492        -2413.39108
     31       2.00000         -88.690492        -2413.39108
     32       2.00000         -88.690492        -2413.39108
     33       2.00000         -31.499194         -857.13669
     34       2.00000         -31.499194         -857.13669
     35       2.00000         -23.733475         -645.82070
     36       2.00000         -23.733475         -645.82070
     37       2.00000         -23.733419         -645.81919
     38       2.00000         -23.733419         -645.81919
     39       2.00000         -23.733419         -645.81919
     40       2.00000         -23.733419         -645.81919
     41       2.00000         -14.774656         -402.03883
     42       2.00000         -14.774656         -402.03883
     43       2.00000         -14.774644         -402.03851
     44       2.00000         -14.774644         -402.03851
     45       2.00000         -14.774644         -402.03851
     46       2.00000         -14.774644         -402.03851
     47       2.00000         -14.774597         -402.03725
     48       2.00000         -14.774597         -402.03725
     49       2.00000         -14.774597         -402.03724
     50       2.00000         -14.774597         -402.03724
     51       2.00000          -7.793496         -212.07181
     52       2.00000          -7.793496         -212.07181
     53       2.00000          -7.793458         -212.07077
     54       2.00000          -7.793458         -212.07077
     55       2.00000          -5.764464         -156.85903
     56       2.00000          -5.764463         -156.85903
     57       2.00000          -5.764220         -156.85242
     58       2.00000          -5.764220         -156.85242
     59       2.00000          -5.763201         -156.82467
     60       2.00000          -5.763201         -156.82467
     61       2.00000          -5.763183         -156.82419
     62       2.00000          -5.763183         -156.82419
     63       2.00000          -5.763069         -156.82108
     64       2.00000          -5.763069         -156.82108
     65       2.00000          -5.763051         -156.82060
     66       2.00000          -5.763051         -156.82060
     67       2.00000          -5.285966         -143.83845
     68       2.00000          -5.285966         -143.83844
     69       2.00000          -4.887331         -132.99104
     70       2.00000          -4.887331         -132.99104
     71       2.00000          -4.887324         -132.99086
     72       2.00000          -4.887324         -132.99086
     73       2.00000          -4.887324         -132.99086
     74       2.00000          -4.887324         -132.99086
     75       2.00000          -4.887303         -132.99028
     76       2.00000          -4.887303         -132.99028
     77       2.00000          -4.887302         -132.99025
     78       2.00000          -4.887302         -132.99025
     79       2.00000          -4.887257         -132.98904
     80       2.00000          -4.887257         -132.98904
     81       2.00000          -4.887257         -132.98904
     82       2.00000          -4.887257         -132.98904
     83       2.00000          -3.144321          -85.56132
     84       2.00000          -3.144302          -85.56081
     85       2.00000          -3.143910          -85.55015
     86       2.00000          -3.143910          -85.55015
     87       2.00000          -3.143910          -85.55014
     88       2.00000          -3.143910          -85.55014
     89       2.00000          -0.783453          -21.31884
     90       2.00000          -0.780491          -21.23824
     91       2.00000          -0.780491          -21.23824
     92       2.00000          -0.777925          -21.16842
     93       2.00000          -0.777120          -21.14650
     94       2.00000          -0.775552          -21.10386
     95       2.00000          -0.774817          -21.08384
     96       2.00000          -0.774817          -21.08384
     97       2.00000          -0.774464          -21.07425
     98       2.00000          -0.772963          -21.03339
     99       2.00000          -0.771833          -21.00264
    100       2.00000          -0.741100          -20.16636
    101       2.00000          -0.607903          -16.54187
    102       2.00000          -0.607903          -16.54187
    103       2.00000          -0.497067          -13.52587
    104       2.00000          -0.429692          -11.69252
    105       2.00000          -0.392498          -10.68041
    106       2.00000          -0.368016          -10.01423
    107       2.00000          -0.368016          -10.01423
    108       2.00000          -0.364050           -9.90631
    109       2.00000          -0.352866           -9.60198
    110       2.00000          -0.338603           -9.21387
    111       2.00000          -0.314423           -8.55588
    112       2.00000          -0.314423           -8.55588
    113       2.00000          -0.304517           -8.28632
    114       2.00000          -0.207896           -5.65714
    115       0.00000          -0.086145           -2.34414
    116       0.00000          -0.086145           -2.34414
    117       0.00000          -0.043000           -1.17010
    118       0.00000          -0.043000           -1.17010
    119       0.00000          -0.037118           -1.01004
    120       0.00000          -0.037118           -1.01004
    121       0.00000          -0.018731           -0.50970
    122       0.00000           0.005542            0.15081
    123       0.00000           0.009300            0.25307
    124       0.00000           0.040068            1.09031
    125       0.00000           0.091559            2.49145
    126       0.00000           0.150549            4.09666
    127       0.00000           0.150549            4.09666
    128       0.00000           0.222256            6.04790
    129       0.00000           0.229204            6.23696
    130       0.00000           0.237503            6.46279
    131       0.00000           0.237503            6.46279
    132       0.00000           0.255207            6.94454
    133       0.00000           0.291409            7.92963
    134       0.00000           0.293096            7.97554
    135       0.00000           0.293096            7.97554
    136       0.00000           0.312117            8.49314
    137       0.00000           0.313081            8.51936
    138       0.00000           0.332554            9.04924
    139       0.00000           0.342642            9.32376
    140       0.00000           0.382613           10.41142
    141       0.00000           0.382613           10.41142
    142       0.00000           0.412695           11.22999
    143       0.00000           0.420556           11.44390
    144       0.00000           0.420556           11.44390
    145       0.00000           0.463817           12.62111
    146       0.00000           0.467257           12.71470
    147       0.00000           0.467257           12.71470
    148       0.00000           0.507103           13.79898
    149       0.00000           0.538134           14.64338
    150       0.00000           0.538134           14.64338
    151       0.00000           0.543064           14.77752
    152       0.00000           0.579127           15.75885
    153       0.00000           0.605350           16.47240
    154       0.00000           0.649149           17.66423
    155       0.00000           0.649149           17.66423
    156       0.00000           0.654078           17.79836
    157       0.00000           0.682580           18.57395
    158       0.00000           0.684433           18.62438
    159       0.00000           0.691009           18.80331
    160       0.00000           0.732956           19.94475
    161       0.00000           0.732956           19.94475
    162       0.00000           0.763687           20.78098
    163       0.00000           0.763687           20.78098
    164       0.00000           0.786634           21.40540
    165       0.00000           0.791039           21.52525
    166       0.00000           0.791039           21.52525
    167       0.00000           0.821684           22.35917
    168       0.00000           0.857312           23.32864
    169       0.00000           0.885168           24.08665
    170       0.00000           0.896530           24.39583
    171       0.00000           0.915183           24.90339
    172       0.00000           0.915183           24.90339
    173       0.00000           0.945826           25.73723
    174       0.00000           0.965083           26.26124
    175       0.00000           0.965083           26.26124
    176       0.00000           1.007783           27.42318
    177       0.00000           1.116654           30.38571
    178       0.00000           1.146425           31.19582
    179       0.00000           1.146425           31.19582
    180       0.00000           1.180941           32.13505
    181       0.00000           1.201090           32.68331
    182       0.00000           1.330474           36.20405
    183       0.00000           1.413218           38.45563
    184       0.00000           1.413218           38.45563
    185       0.00000           1.446893           39.37196
    186       0.00000           1.446893           39.37196
    187       0.00000           1.611771           43.85853
    188       0.00000           1.764230           48.00714
    189       0.00000           1.764230           48.00714
    190       0.00000           1.767804           48.10440

  What follows are estimated values for band gap, HOMO, LUMO, etc.
  | They are estimated on a discrete k-point grid and not necessarily exact.
  | For converged numbers, create a DOS and/or band structure plot on a denser k-grid.

  Highest occupied state (VBM) at     -4.87252801 eV (relative to internal zero)
  | Occupation number:      2.00000000
  | K-point:       4 at    0.000000    0.000000    0.500000 (in units of recip. lattice)

  Lowest unoccupied state (CBM) at    -4.47683960 eV (relative to internal zero)
  | Occupation number:      0.00000000
  | K-point:      29 at    0.166667    0.166667    0.666667 (in units of recip. lattice)

  ESTIMATED overall HOMO-LUMO gap:      0.39568841 eV between HOMO at k-point 4 and LUMO at k-point 29
  | This appears to be an indirect band gap.
  | Smallest direct gap :      1.01840799 eV for k_point 46 at    0.166667    0.166667    0.666667 (in units of recip. lattice)
  The gap value is above 0.2 eV. Unless you are using a very sparse k-point grid,
  this system is most likely an insulator or a semiconductor.
  Calculating total energy contributions from superposition of free atom densities.

  Total energy components:
  | Sum of eigenvalues            :      -28395.97605088 Ha     -772693.82257323 eV
  | XC energy correction          :        -888.61878796 Ha      -24180.54751309 eV
  | XC potential correction       :        1160.83816939 Ha       31588.01376963 eV
  | Free-atom electrostatic energy:      -16851.23767389 Ha     -458545.50764524 eV
  | Hartree energy correction     :           0.00000000 Ha           0.00000000 eV
  | Entropy correction            :          -0.00000000 Ha          -0.00000000 eV
  | ---------------------------
  | Total energy                  :      -44974.99434334 Ha    -1223831.86396193 eV
  | Total energy, T -> 0          :      -44974.99434334 Ha    -1223831.86396193 eV  <-- do not rely on this value for anything but (periodic) metals
  | Electronic free energy        :      -44974.99434334 Ha    -1223831.86396193 eV

  Derived energy quantities:
  | Kinetic energy                :       50808.56469465 Ha     1382571.38979934 eV
  | Electrostatic energy          :      -94894.94025003 Ha    -2582222.70624818 eV
  | Energy correction for multipole
  | error in Hartree potential    :           0.00000000 Ha           0.00000000 eV
  | Sum of eigenvalues per atom                           :     -128782.30376220 eV
  | Total energy (T->0) per atom                          :     -203971.97732699 eV  <-- do not rely on this value for anything but (periodic) metals
  | Electronic free energy per atom                       :     -203971.97732699 eV
  Initialize hartree_potential_storage
  Max. number of atoms included in rho_multipole:            6

  End scf initialization - timings             :  max(cpu_time)    wall_clock(cpu1)
  | Time for scf. initialization               :        2.256 s           2.254 s
  | Boundary condition initialization          :        0.240 s           0.240 s
  | Integration                                :        1.056 s           1.056 s
  | Solution of K.-S. eqns.                    :        0.244 s           0.243 s
  | Grid partitioning                          :        0.312 s           0.311 s
  | Preloading free-atom quantities on grid    :        0.010 s           0.010 s
  | Free-atom superposition energy             :        0.042 s           0.042 s
  | Total energy evaluation                    :        0.001 s           0.001 s

  Partial memory accounting:
  | Current value for overall tracked memory usage:
  |   Minimum:        6.582 MB (on task  0)
  |   Maximum:        7.133 MB (on task  1)
  |   Average:        6.913 MB
  | Peak value for overall tracked memory usage:
  |   Minimum:       11.538 MB (on task 16 after allocating wave)
  |   Maximum:       12.835 MB (on task 12 after allocating wave)
  |   Average:       12.159 MB
  | Largest tracked array allocation so far:
  |   Minimum:        2.754 MB (KS_eigenvector_complex on task  0)
  |   Maximum:        3.305 MB (KS_eigenvector_complex on task  1)
  |   Average:        3.085 MB
  Note:  These values currently only include a subset of arrays which are explicitly tracked.
  The "true" memory usage will be greater.
------------------------------------------------------------

------------------------------------------------------------
          Begin self-consistency iteration #    1

  Date     :  20190902, Time     :  154818.062
------------------------------------------------------------
  Evaluating new KS density using the density matrix
  Evaluating density matrix
  Time summed over all CPUs for getting density from density matrix: real work       18.327 s, elapsed       18.920 s
  Integration grid: deviation in total charge (<rho> - N_e) =   6.406253E-11
  Pulay mixing of updated and previous charge densities.
  Renormalizing the density to the exact electron count on the 3D integration grid.
  | Formal number of electrons (from input files) :     228.0000000000
  | Integrated number of electrons on 3D grid     :     227.9993391339
  | Charge integration error                      :      -0.0006608661
  | Normalization factor for density and gradient :       1.0000028985

  Evaluating partitioned Hartree potential by multipole expansion.
  | Original multipole sum: apparent total charge =  -0.166291E-12
  | Sum of charges compensated after spline to logarithmic grids =  -0.657505E-06
  | Analytical far-field extrapolation by fixed multipoles:
  | Hartree multipole sum: apparent total charge =  -0.166350E-12
  Summing up the Hartree potential.
  Time summed over all CPUs for potential: real work       19.295 s, elapsed       20.281 s
  | RMS charge density error from multipole expansion :   0.626114E-03
  | Average real-space part of the electrostatic potential :      0.01904269 eV

  Integrating Hamiltonian matrix: batch-based integration.
  Time summed over all CPUs for integration: real work       11.547 s, elapsed       11.876 s

  Updating Kohn-Sham eigenvalues and eigenvectors using ELSI and the (modified) LAPACK eigensolver.
  Starting LAPACK eigensolver
  Finished Cholesky decomposition
  | Time :     0.002 s
  Finished transformation to standard eigenproblem
  | Time :     0.004 s
  Finished solving standard eigenproblem
  | Time :     0.013 s
  Finished back-transformation of eigenvectors
  | Time :     0.002 s

  Obtaining occupation numbers and chemical potential using ELSI.
  | Chemical potential (Fermi level):    -4.50594627 eV
  Writing Kohn-Sham eigenvalues.
  K-point:       1 at    0.000000    0.000000    0.000000 (in units of recip. lattice)

  State    Occupation    Eigenvalue [Ha]    Eigenvalue [eV]
      1       2.00000       -3583.249555       -97505.18139
      2       2.00000       -3583.249555       -97505.18139
      3       2.00000        -591.288285       -16089.77287
      4       2.00000        -591.288285       -16089.77287
      5       2.00000        -505.947925       -13767.54353
      6       2.00000        -505.947925       -13767.54353
      7       2.00000        -505.947923       -13767.54347
      8       2.00000        -505.947923       -13767.54347
      9       2.00000        -505.947923       -13767.54347
     10       2.00000        -505.947923       -13767.54347
     11       2.00000        -139.818190        -3804.64654
     12       2.00000        -139.818190        -3804.64654
     13       2.00000        -115.941807        -3154.93710
     14       2.00000        -115.941807        -3154.93710
     15       2.00000        -115.941796        -3154.93679
     16       2.00000        -115.941796        -3154.93679
     17       2.00000        -115.941796        -3154.93679
     18       2.00000        -115.941796        -3154.93679
     19       2.00000         -91.726507        -2496.00525
     20       2.00000         -91.726507        -2496.00525
     21       2.00000         -91.726503        -2496.00514
     22       2.00000         -91.726503        -2496.00514
     23       2.00000         -91.726503        -2496.00514
     24       2.00000         -91.726503        -2496.00514
     25       2.00000         -91.726497        -2496.00499
     26       2.00000         -91.726497        -2496.00499
     27       2.00000         -91.726497        -2496.00497
     28       2.00000         -91.726497        -2496.00497
     29       2.00000         -88.686017        -2413.26932
     30       2.00000         -88.686017        -2413.26932
     31       2.00000         -88.686017        -2413.26932
     32       2.00000         -88.686017        -2413.26932
     33       2.00000         -31.501383         -857.19625
     34       2.00000         -31.501383         -857.19625
     35       2.00000         -23.735667         -645.88036
     36       2.00000         -23.735667         -645.88036
     37       2.00000         -23.735609         -645.87879
     38       2.00000         -23.735609         -645.87879
     39       2.00000         -23.735609         -645.87879
     40       2.00000         -23.735609         -645.87879
     41       2.00000         -14.776852         -402.09860
     42       2.00000         -14.776852         -402.09860
     43       2.00000         -14.776833         -402.09808
     44       2.00000         -14.776833         -402.09808
     45       2.00000         -14.776833         -402.09808
     46       2.00000         -14.776833         -402.09808
     47       2.00000         -14.776789         -402.09690
     48       2.00000         -14.776789         -402.09690
     49       2.00000         -14.776787         -402.09683
     50       2.00000         -14.776787         -402.09683
     51       2.00000          -7.790024         -211.97733
     52       2.00000          -7.790024         -211.97733
     53       2.00000          -7.789985         -211.97628
     54       2.00000          -7.789985         -211.97628
     55       2.00000          -5.761228         -156.77098
     56       2.00000          -5.761227         -156.77097
     57       2.00000          -5.760984         -156.76435
     58       2.00000          -5.760984         -156.76435
     59       2.00000          -5.759481         -156.72346
     60       2.00000          -5.759481         -156.72346
     61       2.00000          -5.759464         -156.72298
     62       2.00000          -5.759464         -156.72298
     63       2.00000          -5.759337         -156.71954
     64       2.00000          -5.759337         -156.71954
     65       2.00000          -5.759320         -156.71906
     66       2.00000          -5.759320         -156.71906
     67       2.00000          -5.288085         -143.89612
     68       2.00000          -5.288085         -143.89612
     69       2.00000          -4.889528         -133.05083
     70       2.00000          -4.889528         -133.05083
     71       2.00000          -4.889519         -133.05058
     72       2.00000          -4.889519         -133.05058
     73       2.00000          -4.889519         -133.05058
     74       2.00000          -4.889519         -133.05058
     75       2.00000          -4.889493         -133.04988
     76       2.00000          -4.889493         -133.04988
     77       2.00000          -4.889492         -133.04984
     78       2.00000          -4.889492         -133.04984
     79       2.00000          -4.889451         -133.04874
     80       2.00000          -4.889451         -133.04874
     81       2.00000          -4.889451         -133.04874
     82       2.00000          -4.889451         -133.04874
     83       2.00000          -3.146401          -85.61793
     84       2.00000          -3.146382          -85.61742
     85       2.00000          -3.145995          -85.60688
     86       2.00000          -3.145995          -85.60688
     87       2.00000          -3.145994          -85.60687
     88       2.00000          -3.145994          -85.60686
     89       2.00000          -0.783151          -21.31063
     90       2.00000          -0.782276          -21.28682
     91       2.00000          -0.782276          -21.28682
     92       2.00000          -0.779688          -21.21640
     93       2.00000          -0.778031          -21.17131
     94       2.00000          -0.777448          -21.15544
     95       2.00000          -0.776713          -21.13545
     96       2.00000          -0.776713          -21.13545
     97       2.00000          -0.776372          -21.12617
     98       2.00000          -0.774915          -21.08651
     99       2.00000          -0.773794          -21.05600
    100       2.00000          -0.739762          -20.12995
    101       2.00000          -0.606199          -16.49550
    102       2.00000          -0.606199          -16.49550
    103       2.00000          -0.497375          -13.53426
    104       2.00000          -0.430840          -11.72374
    105       2.00000          -0.391276          -10.64717
    106       2.00000          -0.366866           -9.98293
    107       2.00000          -0.366866           -9.98293
    108       2.00000          -0.363389           -9.88832
    109       2.00000          -0.351498           -9.56475
    110       2.00000          -0.337243           -9.17684
    111       2.00000          -0.313624           -8.53415
    112       2.00000          -0.313624           -8.53415
    113       2.00000          -0.303819           -8.26732
    114       2.00000          -0.206191           -5.61073
    115       0.00000          -0.084756           -2.30634
    116       0.00000          -0.084756           -2.30634
    117       0.00000          -0.043226           -1.17624
    118       0.00000          -0.043226           -1.17624
    119       0.00000          -0.036428           -0.99126
    120       0.00000          -0.036428           -0.99126
    121       0.00000          -0.018289           -0.49767
    122       0.00000           0.005228            0.14225
    123       0.00000           0.009847            0.26796
    124       0.00000           0.040756            1.10903
    125       0.00000           0.092683            2.52204
    126       0.00000           0.151412            4.12013
    127       0.00000           0.151412            4.12013
    128       0.00000           0.222983            6.06767
    129       0.00000           0.229496            6.24491
    130       0.00000           0.238298            6.48442
    131       0.00000           0.238298            6.48442
    132       0.00000           0.256200            6.97156
    133       0.00000           0.292539            7.96039
    134       0.00000           0.294315            8.00873
    135       0.00000           0.294315            8.00873
    136       0.00000           0.313204            8.52271
    137       0.00000           0.313678            8.53560
    138       0.00000           0.333555            9.07650
    139       0.00000           0.343412            9.34473
    140       0.00000           0.383348           10.43143
    141       0.00000           0.383348           10.43143
    142       0.00000           0.413660           11.25626
    143       0.00000           0.420876           11.45262
    144       0.00000           0.420876           11.45262
    145       0.00000           0.464499           12.63967
    146       0.00000           0.467571           12.72326
    147       0.00000           0.467571           12.72326
    148       0.00000           0.507050           13.79753
    149       0.00000           0.538103           14.64254
    150       0.00000           0.538103           14.64254
    151       0.00000           0.543909           14.80052
    152       0.00000           0.578288           15.73602
    153       0.00000           0.604742           16.45588
    154       0.00000           0.648912           17.65780
    155       0.00000           0.648912           17.65780
    156       0.00000           0.654229           17.80248
    157       0.00000           0.683191           18.59059
    158       0.00000           0.683646           18.60296
    159       0.00000           0.690604           18.79230
    160       0.00000           0.732475           19.93165
    161       0.00000           0.732475           19.93166
    162       0.00000           0.763761           20.78301
    163       0.00000           0.763761           20.78301
    164       0.00000           0.787432           21.42713
    165       0.00000           0.790449           21.50922
    166       0.00000           0.790449           21.50922
    167       0.00000           0.821153           22.34471
    168       0.00000           0.857430           23.33186
    169       0.00000           0.884750           24.07526
    170       0.00000           0.896904           24.40601
    171       0.00000           0.914749           24.89159
    172       0.00000           0.914749           24.89159
    173       0.00000           0.945322           25.72351
    174       0.00000           0.965229           26.26522
    175       0.00000           0.965229           26.26522
    176       0.00000           1.007286           27.40963
    177       0.00000           1.116543           30.38267
    178       0.00000           1.146363           31.19413
    179       0.00000           1.146363           31.19413
    180       0.00000           1.181376           32.14688
    181       0.00000           1.201990           32.70780
    182       0.00000           1.331195           36.22366
    183       0.00000           1.414291           38.48481
    184       0.00000           1.414291           38.48481
    185       0.00000           1.447814           39.39702
    186       0.00000           1.447814           39.39702
    187       0.00000           1.611243           43.84414
    188       0.00000           1.764618           48.01771
    189       0.00000           1.764618           48.01771
    190       0.00000           1.767852           48.10570

  What follows are estimated values for band gap, HOMO, LUMO, etc.
  | They are estimated on a discrete k-point grid and not necessarily exact.
  | For converged numbers, create a DOS and/or band structure plot on a denser k-grid.

  Highest occupied state (VBM) at     -4.84762890 eV (relative to internal zero)
  | Occupation number:      2.00000000
  | K-point:       4 at    0.000000    0.000000    0.500000 (in units of recip. lattice)

  Lowest unoccupied state (CBM) at    -4.46416897 eV (relative to internal zero)
  | Occupation number:      0.00000000
  | K-point:      29 at    0.166667    0.166667    0.666667 (in units of recip. lattice)

  ESTIMATED overall HOMO-LUMO gap:      0.38345993 eV between HOMO at k-point 4 and LUMO at k-point 29
  | This appears to be an indirect band gap.
  | Smallest direct gap :      1.00667720 eV for k_point 29 at    0.166667    0.166667    0.666667 (in units of recip. lattice)
  The gap value is above 0.2 eV. Unless you are using a very sparse k-point grid,
  this system is most likely an insulator or a semiconductor.

  Total energy components:
  | Sum of eigenvalues            :      -28396.11600573 Ha     -772697.63093853 eV
  | XC energy correction          :        -888.63099817 Ha      -24180.87976976 eV
  | XC potential correction       :        1160.85354179 Ha       31588.43207385 eV
  | Free-atom electrostatic energy:      -16851.23767389 Ha     -458545.50764524 eV
  | Hartree energy correction     :           0.14048424 Ha           3.82277072 eV
  | Entropy correction            :          -0.00000000 Ha          -0.00000000 eV
  | ---------------------------
  | Total energy                  :      -44974.99065176 Ha    -1223831.76350896 eV
  | Total energy, T -> 0          :      -44974.99065176 Ha    -1223831.76350896 eV  <-- do not rely on this value for anything but (periodic) metals
  | Electronic free energy        :      -44974.99065176 Ha    -1223831.76350896 eV

  Derived energy quantities:
  | Kinetic energy                :       50808.82690358 Ha     1382578.52486720 eV
  | Electrostatic energy          :      -94895.18655717 Ha    -2582229.40860640 eV
  | Energy correction for multipole
  | error in Hartree potential    :           0.00036964 Ha           0.01005841 eV
  | Sum of eigenvalues per atom                           :     -128782.93848975 eV
  | Total energy (T->0) per atom                          :     -203971.96058483 eV  <-- do not rely on this value for anything but (periodic) metals
  | Electronic free energy per atom                       :     -203971.96058483 eV

  Self-consistency convergence accuracy:
  | Change of charge density      :  0.1947E+00
  | Change of sum of eigenvalues  : -0.3808E+01 eV
  | Change of total energy        :  0.1005E+00 eV

  End self-consistency iteration #     1       :  max(cpu_time)    wall_clock(cpu1)
  | Time for this iteration                    :        3.238 s           3.234 s
  | Charge density update                      :        0.983 s           0.982 s
  | Density mixing & preconditioning           :        0.419 s           0.419 s
  | Hartree multipole update                   :        0.006 s           0.006 s
  | Hartree multipole summation                :        1.023 s           1.022 s
  | Integration                                :        0.603 s           0.602 s
  | Solution of K.-S. eqns.                    :        0.200 s           0.200 s
  | Total energy evaluation                    :        0.001 s           0.001 s

  Partial memory accounting:
  | Current value for overall tracked memory usage:
  |   Minimum:        6.582 MB (on task  0)
  |   Maximum:        7.133 MB (on task  1)
  |   Average:        6.913 MB
  | Peak value for overall tracked memory usage:
  |   Minimum:       12.114 MB (on task 16 after allocating gradient_basis_wave)
  |   Maximum:       13.587 MB (on task 12 after allocating gradient_basis_wave)
  |   Average:       12.804 MB
  | Largest tracked array allocation so far:
  |   Minimum:        2.754 MB (KS_eigenvector_complex on task  0)
  |   Maximum:        3.305 MB (KS_eigenvector_complex on task  1)
  |   Average:        3.085 MB
  Note:  These values currently only include a subset of arrays which are explicitly tracked.
  The "true" memory usage will be greater.
------------------------------------------------------------

------------------------------------------------------------
          Begin self-consistency iteration #    2

  Date     :  20190902, Time     :  154821.297
------------------------------------------------------------
  Evaluating new KS density using the density matrix
  Evaluating density matrix
  Time summed over all CPUs for getting density from density matrix: real work       18.309 s, elapsed       18.901 s
[...]
    348       0.00000                      26.334278          25.919359             0.000000
    349       0.00000                      26.334278          27.555186             1.635827
    350       0.00000                      26.334278          27.555186             0.000000
    351       0.00000                      27.208365          27.559116             0.003931
    352       0.00000                      27.208365          27.559116             0.000000
    353       0.00000                      30.373097          30.340882             2.781765
    354       0.00000                      30.373097          30.340882             0.000000
    355       0.00000                      31.160372          30.994605             0.653723
    356       0.00000                      31.160372          30.994605             0.000000
    357       0.00000                      31.160372          31.609531             0.614926
    358       0.00000                      31.160372          31.609531             0.000000
    359       0.00000                      32.280315          32.291968             0.682437
    360       0.00000                      32.280315          32.291968             0.000000
    361       0.00000                      33.056754          33.057064             0.765096
    362       0.00000                      33.056754          33.057064             0.000000
    363       0.00000                      36.458419          36.481467             3.424403
    364       0.00000                      36.458419          36.481467             0.000000
    365       0.00000                      38.844868          38.583224             2.101757
    366       0.00000                      38.844868          38.583224             0.000000
    367       0.00000                      38.844868          39.122495             0.539271
    368       0.00000                      38.844868          39.122495             0.000000
    369       0.00000                      39.728384          39.543378             0.420882
    370       0.00000                      39.728384          39.543378             0.000000
    371       0.00000                      39.728384          40.327500             0.784122
    372       0.00000                      39.728384          40.327500             0.000000
    373       0.00000                      43.641476          43.840444             3.512944
    374       0.00000                      43.641476          43.840444             0.000000
    375       0.00000                      48.133718          49.163924             5.323480
    376       0.00000                      48.133718          49.163924             0.000000
    377       0.00000                      48.158170          49.632909             0.468985
    378       0.00000                      48.158170          49.632909             0.000000
    379       0.00000                      48.158170          50.654338             1.021429
    380       0.00000                      48.158170          50.654338             0.000000

  What follows are estimated values for band gap, HOMO, LUMO, etc.
  | They are estimated on a discrete k-point grid and not necessarily exact.
  | For converged numbers, create a DOS and/or band structure plot on a denser k-grid.

  Highest occupied state (VBM) at     -4.50732268 eV (relative to internal zero)
  | Occupation number:      0.96579031
  | K-point:       4 at    0.000000    0.000000    0.500000 (in units of recip. lattice)

  Lowest unoccupied state (CBM) at    -4.35861700 eV (relative to internal zero)
  | Occupation number:      0.00856753
  | K-point:      46 at    0.166667    0.833333    0.500000 (in units of recip. lattice)

  ESTIMATED overall HOMO-LUMO gap:      0.14870568 eV between HOMO at k-point 4 and LUMO at k-point 46
  | This appears to be an indirect band gap.
  | Smallest direct gap :      0.74824250 eV for k_point 29 at    0.166667    0.833333    0.500000 (in units of recip. lattice)
  The gap value is rather small. This may be a metal or a small-gap semiconductor.
  Since we use a finite k-point grid, a DOS and/or band structure plot is required
  for an unambiguous assignment.

  Spin-orbit coupling                                     :  max(cpu_time)    wall_clock(cpu1)
  | Computing matrix elements for SOC operator            :          3.172               3.170
  | Constructing second-variational Hamiltonian           :          0.265               0.263
  | Diagonalizing second-variational Hamiltonian          :          1.073               1.075
  | Constructing SOC-perturbed eigenvectors               :          0.072               0.070
  | Syncing data and calculating occupations              :          0.338               0.306
  | Writing out data, calculating band gaps, etc.         :          0.005               0.005
  | Total SOC time                                        :          4.895               4.890

  Partial memory accounting:
  | Current value for overall tracked memory usage:
  |   Minimum:       18.249 MB (on task  0)
  |   Maximum:       21.003 MB (on task  1)
  |   Average:       19.902 MB
  | Peak value for overall tracked memory usage:
  |   Minimum:       34.091 MB (on task 16 after allocating potential_shell)
  |   Maximum:       37.590 MB (on task 12 after allocating potential_shell)
  |   Average:       36.033 MB
  | Largest tracked array allocation so far:
  |   Minimum:       11.017 MB (KS_eigenvector_soc_perturbed on task  0)
  |   Maximum:       13.220 MB (KS_eigenvector_soc_perturbed on task  1)
  |   Average:       12.339 MB
  Note:  These values currently only include a subset of arrays which are explicitly tracked.
  The "true" memory usage will be greater.
 ------------------------------------------------------------
  ------------------------------------------------------------
               Starting Dielectric Calculations
  ------------------------------------------------------------

  Recalculating HOMO and LUMO levels to determine eigenstates needed for dielectric calculations...

  What follows are estimated values for band gap, HOMO, LUMO, etc.
  | They are estimated on a discrete k-point grid and not necessarily exact.
  | For converged numbers, create a DOS and/or band structure plot on a denser k-grid.

  Highest occupied state (VBM) at     -4.50732268 eV (relative to internal zero)
  | Occupation number:      0.96579031
  | K-point:       4 at    0.000000    0.000000    0.500000 (in units of recip. lattice)

  Lowest unoccupied state (CBM) at    -4.35861700 eV (relative to internal zero)
  | Occupation number:      0.00856753
  | K-point:      46 at    0.166667    0.833333    0.500000 (in units of recip. lattice)

  ESTIMATED overall HOMO-LUMO gap:      0.14870568 eV between HOMO at k-point 4 and LUMO at k-point 46
  | This appears to be an indirect band gap.
  | Smallest direct gap :      0.74824250 eV for k_point 29 at    0.166667    0.833333    0.500000 (in units of recip. lattice)
  The gap value is rather small. This may be a metal or a small-gap semiconductor.
  Since we use a finite k-point grid, a DOS and/or band structure plot is required
  for an unambiguous assignment.

  Index of first state to include in dielectric calculations :       185
  Index of last state to include in dielectric calculations  :       294

  Allocating memory for main dielectric-related matrices...
  Allocating        0.000 MB for omega_plasma_sq
  Allocating        0.092 MB for interband_polarizability
  Allocating        0.092 MB for intraband_polarizability
  Allocating        0.092 MB for dielectric
  Allocating        0.046 MB for absorption_coeff
  Allocating        1.531 MB for mommat_full_x_up
  Allocating        1.531 MB for mommat_full_x_low
  Allocating        1.531 MB for mommat_full_y_up
  Allocating        1.531 MB for mommat_full_y_low
  Allocating        1.531 MB for mommat_full_z_up
  Allocating        1.531 MB for mommat_full_z_low
  Allocating        0.279 MB for moment_TZ

  Calculating p_x matrix elements...
  Integrating real-space momentum matrix: batch-based integration.
  Time summed over all CPUs for integration: real work       17.997 s, elapsed       18.623 s

  Calculating p_y matrix elements...
  Integrating real-space momentum matrix: batch-based integration.
  Time summed over all CPUs for integration: real work       17.963 s, elapsed       18.590 s

  Calculating p_z matrix elements...
  Integrating real-space momentum matrix: batch-based integration.
  Time summed over all CPUs for integration: real work       18.002 s, elapsed       18.666 s

  Calculating dielectric tensor elements...
  Performing Kramers-Kronig transform for interband contribution to dielectric component #     2
  Performing Kramers-Kronig transform for interband contribution to dielectric component #     4
  Performing Kramers-Kronig transform for interband contribution to dielectric component #     6

  Summary for dielectric component #  x_x
  | Broadening parameters    :       1.00000E-01 eV (Lorentzian)
  | Plasma frequency         :       9.98758E-01 eV
  | Minimum omega value      :       1.00000E-02 eV
  | Epsilon at minimum omega :       1.53170E+01


  Summary for dielectric component #  x_x
  | Broadening parameters    :       1.00000E-01 eV (Gaussian)
  | Plasma frequency         :       9.98758E-01 eV
  | Minimum omega value      :       1.00000E-02 eV
  | Epsilon at minimum omega :       1.60629E+01


  Summary for dielectric component #  y_y
  | Broadening parameters    :       1.00000E-01 eV (Lorentzian)
  | Plasma frequency         :       9.98762E-01 eV
  | Minimum omega value      :       1.00000E-02 eV
  | Epsilon at minimum omega :       1.53169E+01


  Summary for dielectric component #  y_y
  | Broadening parameters    :       1.00000E-01 eV (Gaussian)
  | Plasma frequency         :       9.98762E-01 eV
  | Minimum omega value      :       1.00000E-02 eV
  | Epsilon at minimum omega :       1.60627E+01


  Summary for dielectric component #  z_z
  | Broadening parameters    :       1.00000E-01 eV (Lorentzian)
  | Plasma frequency         :       1.55214E-04 eV
  | Minimum omega value      :       1.00000E-02 eV
  | Epsilon at minimum omega :       1.83633E+01


  Summary for dielectric component #  z_z
  | Broadening parameters    :       1.00000E-01 eV (Gaussian)
  | Plasma frequency         :       1.55214E-04 eV
  | Minimum omega value      :       1.00000E-02 eV
  | Epsilon at minimum omega :       1.93299E+01

  Dielectric calculations                                 :  max(cpu_time)    wall_clock(cpu1)
  | Time for real-space momentum matrix integration       :          2.832               2.830
  | Time for calculating momentum matrix elements         :          0.252               0.250
  | Time for plasma frequency and interband contributions :         14.906              14.897
  | Time for syncing and postprocessing                   :          3.439               3.513
  | Total time for dielectric calculations                :         21.432              21.492

  Partial memory accounting:
  | Current value for overall tracked memory usage:
  |   Minimum:       18.249 MB (on task  0)
  |   Maximum:       21.003 MB (on task  1)
  |   Average:       19.902 MB
  | Peak value for overall tracked memory usage:
  |   Minimum:       90.516 MB (on task  0 after allocating index_b)
  |   Maximum:       93.270 MB (on task  1 after allocating index_b)
  |   Average:       92.168 MB
  | Largest tracked array allocation so far:
  |   Minimum:       61.103 MB (work_ovl_mom on task  0)
  |   Maximum:       61.103 MB (work_ovl_mom on task  0)
  |   Average:       61.103 MB
  Note:  These values currently only include a subset of arrays which are explicitly tracked.
  The "true" memory usage will be greater.
------------------------------------------------------------

  Starting with the calculation of the Wannier Centers:
  |------------------------------------------------------
  | Final ELSI Output
  |------------------------------------------------------
  |
  | Physical Properties
  |   Number of electrons       :        0.22800000E+03
  |   Number of states          :                   190
  |
  | Matrix Properties
  |   Matrix format             :           BLACS_DENSE
  |   Number of basis functions :                   190
  |
  | Computational Details
  |   Parallel mode             :           SINGLE_PROC
  |   Solver requested          :                LAPACK
  |   Number of ELSI calls      :                    90
  |
  |------------------------------------------------------
  | ELSI Project (c)  elsi-interchange.org
  |------------------------------------------------------

------------------------------------------------------------------------------
  Final output of selected total energy values:

  The following output summarizes some interesting total energy values
  at the end of a run (AFTER all relaxation, molecular dynamics, etc.).

  | Total energy of the DFT / Hartree-Fock s.c.f. calculation      :       -1223831.093214718 eV
  | Final zero-broadening corrected energy (caution - metals only) :       -1223831.093217740 eV
  | Total energy after non-SC SOC correction (DO NOT USE)          :       -1223854.222428564 eV
  | For reference only, the value of 1 Hartree used in FHI-aims is :             27.211384500 eV
  | For reference only, the overall average (free atom contribution
  | + realspace contribution) of the electrostatic potential after
  | s.c.f. convergence is                                          :            -16.044365499 eV

  Before relying on these values, please be sure to understand exactly which
  total energy value is referred to by a given number. Different objects may
  all carry the same name 'total energy'. Definitions:

  Total energy of the DFT / Hartree-Fock s.c.f. calculation:
  | Note that this energy does not include ANY quantities calculated after the
  | s.c.f. cycle, in particular not ANY RPA, MP2, etc. many-body perturbation terms.

  Final zero-broadening corrected energy:
  | For metallic systems only, a broadening of the occupation numbers at the Fermi
  | level can be extrapolated back to zero broadening by an electron-gas inspired
  | formula. For all systems that are not real metals, this value can be
  | meaningless and should be avoided.

------------------------------------------------------------------------------
  Methods described in the following list of references were used in this FHI-aims run.
  If you publish the results, please make sure to cite these reference if they apply.
  FHI-aims is an academic code, and for our developers (often, Ph.D. students
  and postdocs), scientific credit in the community is essential.
  Thank you for helping us!

  For any use of FHI-aims, please cite:

    Volker Blum, Ralf Gehrke, Felix Hanke, Paula Havu, Ville Havu,
    Xinguo Ren, Karsten Reuter, and Matthias Scheffler
    'Ab initio molecular simulations with numeric atom-centered orbitals'
    Computer Physics Communications 180, 2175-2196 (2009)
    http://dx.doi.org/10.1016/j.cpc.2009.06.022


  The provided symmetry information was generated with SPGlib:

    Atsushi Togo, Yusuke Seto, Dimitar Pashov
    SPGlib 1.7.3 obtained from http://spglib.sourceforge.net
    Copyright (C) 2008 Atsushi Togo


  For second-variational spin-orbit coupling used in your run, please cite:

    William P. Huhn and Volker Blum,
    'One-hundred-three compound band-structure benchmark of post-self-consistent'
    'spin-orbit coupling treatments in density functional theory'
    Phys. Rev. Materials 1, 033803 (2017).


  The ELSI infrastructure was used in your run to solve the Kohn-Sham electronic structure.
  Please check out http://elsi-interchange.org to learn more.
  If scalability is important for your project, please acknowledge ELSI by citing:

    V. W-z. Yu, F. Corsetti, A. Garcia, W. P. Huhn, M. Jacquelin, W. Jia,
    B. Lange, L. Lin, J. Lu, W. Mi, A. Seifitokaldani, A. Vazquez-Mayagoitia,
    C. Yang, H. Yang, and V. Blum
    'ELSI: A unified software interface for Kohn-Sham electronic structure solvers'
    Computer Physics Communications 222, 267-285 (2018).
    http://dx.doi.org/10.1016/j.cpc.2017.09.007


  For the real-space grid partitioning and parallelization used in this calculation, please cite:

    Ville Havu, Volker Blum, Paula Havu, and Matthias Scheffler,
    'Efficient O(N) integration for all-electron electronic structure calculation'
    'using numerically tabulated basis functions'
    Journal of Computational Physics 228, 8367-8379 (2009).
    http://dx.doi.org/10.1016/j.jcp.2009.08.008

  Of course, there are many other important community references, e.g., those cited in the
  above references. Our list is limited to references that describe implementations in the
  FHI-aims code. The reason is purely practical (length of this list) - please credit others as well.

 * A warning was issued further up regarding the accuracy of onsite integrals.
   An integral with a negative eigenvalue was among the flagged integrals.
   In most standard situations, this warning is probably harmless.
   If needed, this can be verified by adjusting the radial_multiplier flag.

------------------------------------------------------------
          Leaving FHI-aims.
          Date     :  20190902, Time     :  154942.098

          Computational steps:
          | Number of self-consistency cycles          :           17
          | Number of SCF (re)initializations          :            1

          Detailed time accounting                     :  max(cpu_time)    wall_clock(cpu1)
          | Total time                                 :       87.092 s          87.024 s
          | Preparation time                           :        0.666 s           0.665 s
          | Boundary condition initalization           :        0.240 s           0.240 s
          | Grid partitioning                          :        0.312 s           0.311 s
          | Preloading free-atom quantities on grid    :        0.010 s           0.010 s
          | Free-atom superposition energy             :        0.042 s           0.042 s
          | Total time for integrations                :       11.317 s          11.300 s
          | Total time for solution of K.-S. equations :        3.758 s           3.753 s
          | Total time for density update              :       16.707 s          16.680 s
          | Total time for mixing & preconditioning    :        7.117 s           7.104 s
          | Total time for Hartree multipole update    :        0.118 s           0.105 s
          | Total time for Hartree multipole sum       :       19.959 s          19.936 s
          | Total time for total energy evaluation     :        0.018 s           0.016 s
          | Total time for scaled ZORA corrections     :        0.000 s           0.000 s
          | Total time for perturbative SOC            :        4.895 s           4.890 s
          | Total time for dielectric calculations     :       21.432 s          21.492 s

          Partial memory accounting:
          | Residual value for overall tracked memory usage across tasks:     0.000000 MB (should be 0.000000 MB)
          | Peak values for overall tracked memory usage:
          |   Minimum:       90.516 MB (on task  0 after allocating index_b)
          |   Maximum:       93.270 MB (on task  1 after allocating index_b)
          |   Average:       92.168 MB
          | Largest tracked array allocation:
          |   Minimum:       61.103 MB (work_ovl_mom on task  0)
          |   Maximum:       61.103 MB (work_ovl_mom on task  0)
          |   Average:       61.103 MB
          Note:  These values currently only include a subset of arrays which are explicitly tracked.
          The "true" memory usage will be greater.

          Have a nice day.
------------------------------------------------------------
