  MPI-parallelism will be employed.
------------------------------------------------------------
          Invoking FHI-aims ...

          When using FHI-aims, please cite the following reference:

          Volker Blum, Ralf Gehrke, Felix Hanke, Paula Havu,
          Ville Havu, Xinguo Ren, Karsten Reuter, and Matthias Scheffler,
          'Ab Initio Molecular Simulations with Numeric Atom-Centered Orbitals',
          Computer Physics Communications 180, 2175-2196 (2009)

          For any questions about FHI-aims, please visit the aimsclub website
          with its forums and wiki. Contributions to both the forums and the
          wiki are warmly encouraged - they are for you, and everyone is welcome there.

------------------------------------------------------------



  Date     :  20190817, Time     :  153113.791
  Time zero on CPU 1             :   0.209580000000000E-01  s.
  Internal wall clock time zero  :           335287873.791  s.

  FHI-aims created a unique identifier for this run for later identification
  aims_uuid : 8EA7AAD4-DB55-4376-ACD6-ADB2FB25CAB3

  Build configuration of the current instance of FHI-aims
  -------------------------------------------------------
  FHI-aims version      : 190813
  Commit number         : 3da7baeb3
  CMake host system     : Linux-4.4.180-94.97-default
  CMake version         : 3.5.2
  Fortran compiler      : /mpcdf/soft/SLE_12_SP3/packages/x86_64/intel_parallel_studio/2018.4/compilers_and_libraries_2018.5.274/linux/mpi/bin64/mpiifort (Intel) version 18.0.5.20180823
  Fortran compiler flags: -O3 -ip -fp-model precise
  C compiler            : /mpcdf/soft/SLE_12_SP3/packages/skylake/intel/18.0.5/bin/icc (Intel) version 18.0.5.20180823
  C compiler flags      : -O3 -ip -fp-model precise
  Architecture          :
  Using MPI
  Using Scalapack
  Using C files
  Using SPGlib
  Using i-PI
  Linking against: /mpcdf/soft/SLE_12_SP3/packages/x86_64/anaconda/3.5.1.0/lib/libmkl_intel_lp64.so
                   /mpcdf/soft/SLE_12_SP3/packages/x86_64/anaconda/3.5.1.0/lib/libmkl_sequential.so
                   /mpcdf/soft/SLE_12_SP3/packages/x86_64/anaconda/3.5.1.0/lib/libmkl_core.so
                   /mpcdf/soft/SLE_12_SP3/packages/x86_64/anaconda/3.5.1.0/lib/libmkl_blacs_intelmpi_lp64.so
                   /mpcdf/soft/SLE_12_SP3/packages/x86_64/anaconda/3.5.1.0/lib/libmkl_scalapack_lp64.so

  Using        8 parallel tasks.
  Task        0 on host co1631 reporting.
  Task        1 on host co1631 reporting.
  Task        2 on host co1631 reporting.
  Task        3 on host co1631 reporting.
  Task        4 on host co1631 reporting.
  Task        5 on host co1631 reporting.
  Task        6 on host co1631 reporting.
  Task        7 on host co1631 reporting.

  Performing system and environment tests:
  | Environment variable OMP_NUM_THREADS correctly set to 1.
  | Maximum stacksize for task 0: unlimited
  | Maximum stacksize for task 1: unlimited
  | Maximum stacksize for task 2: unlimited
  | Maximum stacksize for task 3: unlimited
  | Maximum stacksize for task 4: unlimited
  | Maximum stacksize for task 5: unlimited
  | Maximum stacksize for task 6: unlimited
  | Maximum stacksize for task 7: unlimited
  | Current stacksize for task 0: unlimited
  | Current stacksize for task 1: unlimited
  | Current stacksize for task 2: unlimited
  | Current stacksize for task 3: unlimited
  | Current stacksize for task 4: unlimited
  | Current stacksize for task 5: unlimited
  | Current stacksize for task 6: unlimited
  | Current stacksize for task 7: unlimited
  | Checking for scalapack...
  | Testing pdtran()...
  | All pdtran() tests passed.

  Obtaining array dimensions for all initial allocations:
  
  -----------------------------------------------------------------------
  Parsing control.in (first pass over file, find array dimensions only).
  The contents of control.in will be repeated verbatim below
  unless switched off by setting 'verbatim_writeout .false.' .
  in the first line of control.in .
  -----------------------------------------------------------------------
  
  #########################################################################################
  #
  #  Volker Blum, FHI 2009 : Test run input file control.in for simple H2O
  #
  #########################################################################################
  #
  #  Physical model
  #
    xc                 pz-lda
    spin               none
    relativistic       none
    charge             0.
  #
  #  SCF convergence
  #
    occupation_type    gaussian 0.01
    mixer              pulay
      n_max_pulay        10
      charge_mix_param   0.5
    sc_accuracy_rho    1E-4
    sc_accuracy_eev    1E-2
    sc_accuracy_etot   1E-6
    sc_accuracy_forces 1E-4
    sc_iter_limit      100
  #postprocess_anyway  .true.
  
  
  k_grid             13 1 1
  
  #packed_matrix_format none
  #hartree_convergence_parameter  5.0
  
  
  
  output_level full
  
  DFPT phonon
  
  DFPT_mixing   0.5
  DFPT_sc_accuracy_dm   10.0  # to make n_cpscf=3
  
  #By default, "pulay-mixer with dfpt_pulay_steps 8" is used, here we use linear-mixer to keep the same with reference output.
  dfpt_pulay_steps 1          # equal to linear-mixer
  
  #debug_module DFPT
  
  output DFPT_phonon_band  0.00  0.00  0.00   0.25   0.00   0.00    100       q1     q2
  output DFPT_phonon_band  0.25  0.00  0.00   0.50   0.00   0.00    100       q2     q3
  
  
  
  
  ################################################################################
  #
  #  FHI-aims code project
  #  VB, Fritz-Haber Institut, 2009
  #
  #  Suggested "light" defaults for H atom (to be pasted into control.in file)
  #  Be sure to double-check any results obtained with these settings for post-processing,
  #  e.g., with the "tight" defaults and larger basis sets.
  #
  ################################################################################
    species        H
  #     global species definitions
      nucleus             1
      mass                1.00794
  #
      l_hartree           4
  #
      cut_pot             3.5  1.5  1.0
      basis_dep_cutoff    1e-4
  #
      radial_base         24 5.0
      radial_multiplier   1
      angular_grids       specified
        division   0.2421   50
        division   0.3822  110
        division   0.4799  194
        division   0.5341  302
  #      division   0.5626  434
  #      division   0.5922  590
  #      division   0.6542  770
  #      division   0.6868 1202
  #      outer_grid  770
        outer_grid  302
  ################################################################################
  #
  #  Definition of "minimal" basis
  #
  ################################################################################
  #     valence basis states
      valence      1  s   1.
  #     ion occupancy
      ion_occ      1  s   0.5
  ################################################################################
  #
  #  Suggested additional basis functions. For production calculations,
  #  uncomment them one after another (the most important basis functions are
  #  listed first).
  #
  #  Basis constructed for dimers: 0.5 A, 0.7 A, 1.0 A, 1.5 A, 2.5 A
  #
  ################################################################################
  #  "First tier" - improvements: -1014.90 meV to -62.69 meV
       hydro 2 s 2.1
  #     hydro 2 p 3.5
  #  "Second tier" - improvements: -12.89 meV to -1.83 meV
  #     hydro 1 s 0.85
  #     hydro 2 p 3.7
  #     hydro 2 s 1.2
  #     hydro 3 d 7
  #  "Third tier" - improvements: -0.25 meV to -0.12 meV
  #     hydro 4 f 11.2
  #     hydro 3 p 4.8
  #     hydro 4 d 9
  #     hydro 3 s 3.2
  
  -----------------------------------------------------------------------
  Completed first pass over input file control.in .
  -----------------------------------------------------------------------
  
  
  -----------------------------------------------------------------------
  Parsing geometry.in (first pass over file, find array dimensions only).
  The contents of geometry.in will be repeated verbatim below
  unless switched off by setting 'verbatim_writeout .false.' .
  in the first line of geometry.in .
  -----------------------------------------------------------------------
  
  lattice_vector 1.7400000000000000 0 0.000000000000000  0.0000000000000000
  lattice_vector 0.0000000000000000 40.0000000000000000 0.000000000000000
  lattice_vector 0.0000000000000000 0.00000000000000000  40.0000000000000000
  atom    -0.3700000   10.0    10.00000000    H
  atom     0.370000    10.0    10.00000000    H
  
  -----------------------------------------------------------------------
  Completed first pass over input file geometry.in .
  -----------------------------------------------------------------------
  

  Basic array size parameters:
  | Number of species                 :        1
  | Number of atoms                   :        2
  | Number of lattice vectors         :        3
  | Max. basis fn. angular momentum   :        0
  | Max. atomic/ionic basis occupied n:        1
  | Max. number of basis fn. types    :        2
  | Max. radial fns per species/type  :        1
  | Max. logarithmic grid size        :     1131
  | Max. radial integration grid size :       24
  | Max. angular integration grid size:      302
  | Max. angular grid division number :        8
  | Radial grid for Hartree potential :     1131
  | Number of spin channels           :        1

------------------------------------------------------------
          Reading file control.in.
------------------------------------------------------------
  XC: Using Perdew-Zunger parametrisation of Ceperley-Alder LDA.
  Spin treatment: No spin polarisation.
  Non-relativistic treatment of kinetic energy.
  Charge =   0.000000E+00: Neutral system requested explicitly.
  Occupation type: Gaussian broadening, width =   0.100000E-01 eV.
  Using pulay charge density mixing.
  Pulay mixing - number of memorized iterations:   10
  Charge density mixing - mixing parameter:     0.5000
  Convergence accuracy of self-consistent charge density:  0.1000E-03
  Convergence accuracy of sum of eigenvalues:  0.1000E-01
  Convergence accuracy of total energy:  0.1000E-05
  Convergence accuracy of forces:  0.1000E-03
  Maximum number of s.-c. iterations  :   100
  Found k-point grid:        13         1         1
  Requested output level: full                
  DFPT phonon calculation will begin  after the DFT/HF calculation.
Since scalapack support is enabled, use scalpack version for DFPT_phonon
  DFPT_mixing =  0.500000E+00
  DFPT_sc_accuracy_dm =  0.100000E+02

  Plot DFPT_phonon_band    1
  | begin  0.000000  0.000000  0.000000
  | end    0.250000  0.000000  0.000000
  | number of points:  100

  Plot DFPT_phonon_band    2
  | begin  0.250000  0.000000  0.000000
  | end    0.500000  0.000000  0.000000
  | number of points:  100
 
  Reading configuration options for species H                   .
  | Found nuclear charge :   1.0000
  | Found atomic mass :    1.00794000000000      amu
  | Found l_max for Hartree potential  :   4
  | Found cutoff potl. onset [A], width [A], scale factor :    3.50000    1.50000    1.00000
  | Threshold for basis-dependent cutoff potential is   0.100000E-03
  | Found data for basic radial integration grid :    24 points, outermost radius =    5.000 A
  | Found multiplier for basic radial grid :   1
  | Found angular grid specification: user-specified.
  | Specified grid contains     5 separate shells.
  | Check grid settings after all constraints further below.
  | Found free-atom valence shell :  1 s   1.000
  | No ionic wave fns used. Skipping ion_occ.
  | Found hydrogenic basis function :  2 s   2.100
  Species H                   : Missing cutoff potential type.
  Defaulting to exp(1/x)/(1-x)^2 type cutoff potential.
  Species H : No 'logarithmic' tag. Using default grid for free atom:
  | Default logarithmic grid data [bohr] : 0.1000E-03 0.1000E+03 0.1012E+01
  Species H : On-site basis accuracy parameter (for Gram-Schmidt orthonormalisation) not specified.
  Using default value basis_acc =  0.1000000E-03.
  Species H                   : Using default innermost maximum threshold i_radial=  2 for radial functions.
  Species H                   : Default cutoff onset for free atom density etc. : 0.35000000E+01 AA.
  Species H                   : Basic radial grid will be enhanced according to radial_multiplier =   1, to contain    24 grid points.
 
  Finished reading input file 'control.in'. Consistency checks are next.
 
  MPI_IN_PLACE appears to work with this MPI implementation.
  | Keeping use_mpi_in_place .true. (see manual).
  Target number of points in a grid batch is not set. Defaulting to  100
  Method for grid partitioning is not set. Defaulting to parallel hash+maxmin partitioning.
  Batch size limit is not set. Defaulting to    200
  By default, will store active basis functions for each batch.
  If in need of memory, prune_basis_once .false. can be used to disable this option.
  communication_type for Hartree potential was not specified.
  Defaulting to calc_hartree .
  Pulay mixer: Number of initial linear mixing iterations not set.
  Defaulting to    0 iterations.
  Work space size for distributed Hartree potential not set.
  Defaulting to   0.200000E+03 MB.
  Algorithm-dependent basis array size parameters:
  | n_max_pulay                         :       10
  Presetting      1001 iterations before the initial mixing cycle
  is restarted anyway using the sc_init_iter criterion / keyword.
  Presetting a factor      1.000 between actual scf density residual
  and density convergence criterion sc_accuracy_rho below which sc_init_iter
  takes no effect.
  Geometry relaxation not requested: no relaxation will be performed.
  Handling of forces: Unphysical translation and rotation will be removed from forces.
  No accuracy limit for integral partition fn. given. Defaulting to  0.1000E-14.
  No threshold value for u(r) in integrations given. Defaulting to  0.1000E-05.
  No accuracy for occupation numbers given. Defaulting to  0.1000E-12.
  No threshold value for occupation numbers given. Defaulting to  0.0000E+00.
  No accuracy for fermi level given. Defaulting to  0.1000E-19.
  Maximum # of iterations to find E_F not set. Defaulting to  200.
  Preferred method for the eigenvalue solver ('KS_method') not specified in 'control.in'.
  Defaulting to serial version, LAPACK (via ELSI), since more k-points than CPUs available.
  Will not use alltoall communication since running on < 1024 CPUs.
  Threshold for basis singularities not set.
  Default threshold for basis singularities:  0.1000E-04
  partition_type (choice of integration weights) for integrals was not specified.
  | Using a version of the partition function of Stratmann and coworkers ('stratmann_sparse').
  | At each grid point, the set of atoms used to build the partition table is smoothly restricted to
  | only those atoms whose free-atom density would be non-zero at that grid point.
  Partitioning for Hartree potential was not defined. Using partition_type for integrals.
  | Adjusted default value of keyword multip_moments_threshold to:       0.10000000E-11
  | This value may affect high angular momentum components of the Hartree potential in periodic systems.
  Angular momentum expansion for Kerker preconditioner not set explicitly.
  | Using default value of   0
  No explicit requirement for turning off preconditioner.
  | By default, it will be turned off when the charge convergence reaches
  | sc_accuracy_rho  =   0.100000E-03
  | sc_accuracy_eev  =   0.100000E-01
  | sc_accuracy_etot =   0.100000E-05
  No special mixing parameter while Kerker preconditioner is on.
  Using default: charge_mix_param =     0.5000.
  No q(lm)/r^(l+1) cutoff set for long-range Hartree potential.
  | Using default value of  0.100000E-09 .
  | Verify using the multipole_threshold keyword.
  Defaulting to new monopole extrapolation.
  Density update method: automatic selection selected.
  Using density matrix based charge density update.
  Using density matrix based charge density update.
  Using packed matrix style: index .
  Defaulting to use time-reversal symmetry for k-point grid.
  WARNING: Switching off the compensation of charge integration errors
  on the 3D integration grid, since you have requested a DFPT calculation.
  This is unfortunately necessary since "compensate_multipole_errors" is
  not yet implemented for DFPT.
  Use the "compensate_multipole_errors" flag to overwrite this behaviour.
------------------------------------------------------------


------------------------------------------------------------
          Reading geometry description geometry.in.
------------------------------------------------------------
  Input structure read successfully.
  The structure contains        2 atoms,  and a total of          2.000 electrons.

  Input geometry:
  | Unit cell:
  |        1.74000000        0.00000000        0.00000000
  |        0.00000000       40.00000000        0.00000000
  |        0.00000000        0.00000000       40.00000000
  | Atomic structure:
  |       Atom                x [A]            y [A]            z [A]
  |    1: Species H            -0.37000000       10.00000000       10.00000000
  |    2: Species H             0.37000000       10.00000000       10.00000000

  Lattice parameters for 3D lattice (in Angstroms) :     1.740000   40.000000   40.000000
  Angle(s) between unit vectors (in degrees)       :    90.000000   90.000000   90.000000

  | The smallest distance between any two atoms is         0.74000000 AA.
  | The first atom of this pair is atom number                      1 .
  | The second atom of this pair is atom number                     2 .
  | Wigner-Seitz cell of the first atom image           0     0     0 .
  | (The Wigner-Seitz cell of the second atom is 0 0 0  by definition.)

  Symmetry information by spglib:
  | Precision set to  0.1E-04
  | Number of Operations  : 16
  | Space group           : 123
  | International         : P4/mmm
  | Schoenflies           : D4h^1

  Quantities derived from the lattice vectors:
  | Reciprocal lattice vector 1:  3.611026  0.000000  0.000000
  | Reciprocal lattice vector 2:  0.000000  0.157080  0.000000
  | Reciprocal lattice vector 3:  0.000000  0.000000  0.157080
  | Unit cell volume                               :   0.278400E+04  A^3

  Range separation radius for Ewald summation (hartree_convergence_parameter):      5.00000000 bohr.

  Fractional coordinates:
                         L1                L2                L3
       atom_frac        -0.21264368        0.25000000        0.25000000  H
       atom_frac         0.21264368        0.25000000        0.25000000  H

  Number of empty states per atom not set in control.in .
  | Since you are using a method that relies on the unoccupied spectrum
  | (MP2,GW,RPA et al.), will use the full Hamiltonian size (see below)
  | as the max. possible number of states (occupied plus empty).

  Structure-dependent array size parameters: 
  | Maximum number of distinct radial functions  :        2
  | Maximum number of basis functions            :        4
  | Number of Kohn-Sham states (occupied + empty):        4
------------------------------------------------------------

------------------------------------------------------------
          Preparing all fixed parts of the calculation.
------------------------------------------------------------
  Determining machine precision:
    2.225073858507201E-308
  Setting up grids for atomic and cluster calculations.

  Creating wave function, potential, and density for free atoms.

  Species: H

  List of occupied orbitals and eigenvalues:
    n    l              occ      energy [Ha]    energy [eV]
    1    0           1.0000        -0.232599        -6.3294

  Creating fixed part of basis set: Ionic, confined, hydrogenic.
 
  H                    hydrogenic:
 
  List of hydrogenic basis orbitals: 
    n    l      effective z      eigenvalue [eV]  inner max. [A]     outer max. [A]     outer radius [A]   
    2    0         2.100000       -14.9728           0.193243           1.317208           4.583499
 

  Adding cutoff potential to free-atom effective potential.
  Creating atomic-like basis functions for current effective potential.

  Species H                   :

  List of atomic basis orbitals and eigenvalues:
    n    l      energy [Ha]    energy [eV]    outer radius [A]
    1    0        -0.232599        -6.3294       4.527807

  Assembling full basis from fixed parts.
  | Species H :   atomic orbital   1 s accepted.
  | Species H :    hydro orbital   2 s accepted.
 
  Basis size parameters after reduction:
  | Total number of radial functions:        2
  | Total number of basis functions :        4
 
  Per-task memory consumption for arrays in subroutine allocate_ext:
  |           0.434548MB.
  Testing on-site integration grid accuracy.
  |  Species  Function  <phi|h_atom|phi> (log., in eV)  <phi|h_atom|phi> (rad., in eV)
           1        1                 -6.3306359778                 -6.3293472169
           1        2                 14.1279834556                 14.1338226284

  Preparing densities etc. for the partition functions (integrals / Hartree potential).

  Preparations completed.
  max(cpu_time)          :      0.043 s.
  Wall clock time (cpu1) :      0.043 s.
------------------------------------------------------------

------------------------------------------------------------
          Begin self-consistency loop: Initialization.

          Date     :  20190817, Time     :  153113.886
------------------------------------------------------------

  Initializing index lists of integration centers etc. from given atomic structure:
  Mapping all atomic coordinates to central unit cell.

  Initializing the k-points
          Using symmetry for reducing the k-points
  | k-points reduced from:       13 to        7
  | Number of k-points                             :         7
  | Consuming          1 KiB for k_phase_exx.
  The eigenvectors in the calculations are COMPLEX.
  | K-points in task   0:         0
  | K-points in task   1:         1
  | K-points in task   2:         1
  | K-points in task   3:         1
  | K-points in task   4:         1
  | K-points in task   5:         1
  | K-points in task   6:         1
  | K-points in task   7:         1
  | k-point: 1 at     0.000000    0.000000    0.000000  , weight:   0.07692308
  | k-point: 2 at     0.076923    0.000000    0.000000  , weight:   0.15384615
  | k-point: 3 at     0.153846    0.000000    0.000000  , weight:   0.15384615
  | k-point: 4 at     0.307692    0.000000    0.000000  , weight:   0.15384615
  | k-point: 5 at     0.384615    0.000000    0.000000  , weight:   0.15384615
  | k-point: 6 at     0.461538    0.000000    0.000000  , weight:   0.15384615
  | k-point: 7 at     0.769231    0.000000    0.000000  , weight:   0.15384615
  | Number of basis functions in the Hamiltonian integrals :        26
  | Number of basis functions in a single unit cell        :         4
  | Number of centers in hartree potential         :        40
  | Number of centers in hartree multipole         :        26
  | Number of centers in electron density summation:        22
  | Number of centers in basis integrals           :        24
  | Number of centers in integrals                 :        14
  | Number of centers in hamiltonian               :        22
  |-----begin in initialize_sc_DFPT_phonon----------
  | [n_cells_in_hamiltonian]:          12
  | Number of origin super-cells(1) :[         -11 :          11 ]
  | Number of origin super-cells(2) :[          -1 :           1 ]
  | Number of origin super-cells(3) :[          -1 :           1 ]
  | Number of  DFPT  super-cells(1) :[          -5 :           5 ]
  | Number of  DFPT  super-cells(2) :[           0 :           0 ]
  | Number of  DFPT  super-cells(3) :[           0 :           0 ]
  | nsc_DFPT                        :          11           1           1
  | n_cells_in_sc_DFPT              :          11
  | n_center_in_sc_DFPT             :          22
  | n_basis in unit cell           :           4
  | n_basis in sc_DFPT             :          44
  |-----end in initialize_sc_DFPT_phonon---
  |-----begin in position_in_hamiltonian_PBC---
  | Number of super-cells in hamiltonian [n_cells_in_hamiltonian]:          12
  |-----end in position_in_hamiltonian_PBC---
  | Consuming          1 KiB for k_phase.
  | Number of super-cells (origin) [n_cells]                     :         207
  | Number of super-cells (after PM_index) [n_cells]             :          12
  | Number of super-cells in hamiltonian [n_cells_in_hamiltonian]:          12
  | Size of matrix packed + index [n_hamiltonian_matrix_size] :         110
  | Estimated reciprocal-space cutoff momentum G_max:         1.84432723 bohr^-1 .
  | Reciprocal lattice points for long-range Hartree potential:    1548
  Partitioning the integration grid into batches with parallel hashing+maxmin method.
  | Number of batches:      136
  | Maximal batch size:      84
  | Minimal batch size:      57
  | Average batch size:      69.706
  | Standard deviation of batch sizes:       7.959

  Integration load balanced across     8 MPI tasks.
  Work distribution over tasks is as follows:
  Task     0 has       1206 integration points.
  Task     1 has       1212 integration points.
  Task     2 has       1149 integration points.
  Task     3 has       1174 integration points.
  Task     4 has       1180 integration points.
  Task     5 has       1186 integration points.
  Task     6 has       1198 integration points.
  Task     7 has       1175 integration points.
  Initializing partition tables, free-atom densities, potentials, etc. across the integration grid (initialize_grid_storage).
  | initialize_grid_storage: Actual outermost partition radius vs. multipole_radius_free
  | (-- VB: in principle, multipole_radius_free should be larger, hence this output)
  | Species        1: Confinement radius =              4.999999999999999 AA, multipole_radius_free =              5.054417573612229 AA.
  | Species        1: outer_partition_radius set to              5.054417573612229 AA .
  | The sparse table of interatomic distances needs          4.85 kbyte instead of         4.61 kbyte of memory.
  | Using the partition_type stratmann_smoother will reduce your memory usage.
  | Net number of integration points:     9480
  | of which are non-zero points    :     8156
  | Numerical average free-atom electrostatic potential    :     -0.02262254 eV
  Renormalizing the initial density to the exact electron count on the 3D integration grid.
  | Initial density: Formal number of electrons (from input files) :       2.0000000000
  | Integrated number of electrons on 3D grid     :       1.9999751364
  | Charge integration error                      :      -0.0000248636
  | Normalization factor for density and gradient :       1.0000124320
  Obtaining max. number of non-zero basis functions in each batch (get_n_compute_maxes).
  | Maximal number of non-zero basis functions:       24 in task     0
  | Maximal number of non-zero basis functions:       24 in task     1
  | Maximal number of non-zero basis functions:       24 in task     2
  | Maximal number of non-zero basis functions:       23 in task     3
  | Maximal number of non-zero basis functions:       23 in task     4
  | Maximal number of non-zero basis functions:       24 in task     5
  | Maximal number of non-zero basis functions:       24 in task     6
  | Maximal number of non-zero basis functions:       24 in task     7
  Allocating        0.000 MB for KS_eigenvector_complex
  Integrating Hamiltonian matrix: batch-based integration.
  Time summed over all CPUs for integration: real work        0.022 s, elapsed        0.023 s
          Integrate hamiltonian matrix                 :  max(cpu_time)    wall_clock(cpu1)
          | Total time                                 :        0.003 s           0.003 s
  Integrating overlap matrix.
  Time summed over all CPUs for integration: real work        0.013 s, elapsed        0.015 s

  Updating Kohn-Sham eigenvalues and eigenvectors using ELSI and the (modified) LAPACK eigensolver.

  Obtaining occupation numbers and chemical potential using ELSI.
  | Chemical potential (Fermi level):    -6.07477314 eV
  Writing Kohn-Sham eigenvalues.
  K-point:       1 at    0.000000    0.000000    0.000000 (in units of recip. lattice)

  State    Occupation    Eigenvalue [Ha]    Eigenvalue [eV]
      1       2.00000          -0.711325          -19.35614
      2       0.00000           0.196357            5.34315
      3       0.00000           0.980178           26.67200
      4       0.00000           4.494874          122.31175

  What follows are estimated values for band gap, HOMO, LUMO, etc.
  | They are estimated on a discrete k-point grid and not necessarily exact.
  | For converged numbers, create a DOS and/or band structure plot on a denser k-grid.

  Highest occupied state (VBM) at     -9.65984975 eV (relative to internal zero)
  | Occupation number:      2.00000000
  | K-point:       6 at    0.461538    0.000000    0.000000 (in units of recip. lattice)

  Lowest unoccupied state (CBM) at    -3.73703383 eV (relative to internal zero)
  | Occupation number:      0.00000000
  | K-point:       6 at    0.461538    0.000000    0.000000 (in units of recip. lattice)

  ESTIMATED overall HOMO-LUMO gap:      5.92281592 eV between HOMO at k-point 6 and LUMO at k-point 6
  | This appears to be a direct band gap.
  The gap value is above 0.2 eV. Unless you are using a very sparse k-point grid,
  this system is most likely an insulator or a semiconductor.
  Calculating total energy contributions from superposition of free atom densities.

  Total energy components:
  | Sum of eigenvalues            :          -1.13515729 Ha         -30.88920146 eV
  | XC energy correction          :          -0.59721952 Ha         -16.25116993 eV
  | XC potential correction       :           0.77906801 Ha          21.19951904 eV
  | Free-atom electrostatic energy:          -0.18197782 Ha          -4.95186848 eV
  | Hartree energy correction     :           0.00000000 Ha           0.00000000 eV
  | Entropy correction            :           0.00000000 Ha           0.00000000 eV
  | ---------------------------
  | Total energy                  :          -1.13528662 Ha         -30.89272083 eV
  | Total energy, T -> 0          :          -1.13528662 Ha         -30.89272083 eV  <-- do not rely on this value for anything but (periodic) metals
  | Electronic free energy        :          -1.13528662 Ha         -30.89272083 eV

  Derived energy quantities:
  | Kinetic energy                :           0.75377892 Ha          20.51136789 eV
  | Electrostatic energy          :          -1.29184602 Ha         -35.15291879 eV
  | Energy correction for multipole
  | error in Hartree potential    :           0.00000000 Ha           0.00000000 eV
  | Sum of eigenvalues per atom                           :         -15.44460073 eV
  | Total energy (T->0) per atom                          :         -15.44636041 eV  <-- do not rely on this value for anything but (periodic) metals
  | Electronic free energy per atom                       :         -15.44636041 eV
  Initialize hartree_potential_storage
  Max. number of atoms included in rho_multipole:            2

  End scf initialization - timings             :  max(cpu_time)    wall_clock(cpu1)
  | Time for scf. initialization               :        0.070 s           0.071 s
  | Boundary condition initialization          :        0.049 s           0.049 s
  | Integration                                :        0.005 s           0.006 s
  | Solution of K.-S. eqns.                    :        0.001 s           0.001 s
  | Grid partitioning                          :        0.006 s           0.006 s
  | Preloading free-atom quantities on grid    :        0.001 s           0.001 s
  | Free-atom superposition energy             :        0.001 s           0.002 s
  | Total energy evaluation                    :        0.000 s           0.000 s

  Partial memory accounting:
  | Current value for overall tracked memory usage:
  |   Minimum:        0.002 MB (on task 0)
  |   Maximum:        0.002 MB (on task 1)
  |   Average:        0.002 MB
  | Peak value for overall tracked memory usage:
  |   Minimum:        0.053 MB (on task 0 after allocating wave)
  |   Maximum:        0.090 MB (on task 2 after allocating grid_partition)
  |   Average:        0.065 MB
  | Largest tracked array allocation so far:
  |   Minimum:        0.015 MB (H_times_psi on task 0)
  |   Maximum:        0.059 MB (all_coords on task 2)
  |   Average:        0.033 MB
  Note:  These values currently only include a subset of arrays which are explicitly tracked.
  The "true" memory usage will be greater.
------------------------------------------------------------

------------------------------------------------------------
          Begin self-consistency iteration #    1

  Date     :  20190817, Time     :  153113.957
------------------------------------------------------------
  Evaluating new KS density using the density matrix
  Evaluating density matrix
  Time summed over all CPUs for getting density from density matrix: real work        0.014 s, elapsed        0.017 s
          Density and Forces (densmat)                 :  max(cpu_time)    wall_clock(cpu1)
          | Total time                                 :        0.002 s           0.003 s
          | Fetch Density Variables time               :        0.000 s           0.000 s
  Integration grid: deviation in total charge (<rho> - N_e) =   8.881784E-16
  Pulay mixing of updated and previous charge densities.

  Evaluating partitioned Hartree potential by multipole expansion.
  | Analytical far-field extrapolation by fixed multipoles:
  | Hartree multipole sum: apparent total charge =   0.345382E-03
  Summing up the Hartree potential.
  | Ewald reciprocal-space coefficients, myid =     0 : cpu      0.001 s, wall      0.001 s.
  | Ewald reciprocal-space coefficients, myid =     1 : cpu      0.001 s, wall      0.001 s.
  | Ewald reciprocal-space coefficients, myid =     2 : cpu      0.001 s, wall      0.001 s.
  | Ewald reciprocal-space coefficients, myid =     3 : cpu      0.001 s, wall      0.001 s.
  | Ewald reciprocal-space coefficients, myid =     4 : cpu      0.001 s, wall      0.001 s.
  | Ewald reciprocal-space coefficients, myid =     5 : cpu      0.001 s, wall      0.001 s.
  | Ewald reciprocal-space coefficients, myid =     6 : cpu      0.001 s, wall      0.001 s.
  | Ewald reciprocal-space coefficients, myid =     7 : cpu      0.001 s, wall      0.001 s.
  Time summed over all CPUs for potential: real work        0.154 s, elapsed        0.157 s
  | RMS charge density error from multipole expansion :   0.195907E-02
  | Average real-space part of the electrostatic potential :     -0.00002561 eV

  Integrating Hamiltonian matrix: batch-based integration.
  Time summed over all CPUs for integration: real work        0.019 s, elapsed        0.021 s
          Integrate hamiltonian matrix                 :  max(cpu_time)    wall_clock(cpu1)
          | Total time                                 :        0.003 s           0.002 s

  Updating Kohn-Sham eigenvalues and eigenvectors using ELSI and the (modified) LAPACK eigensolver.

  Obtaining occupation numbers and chemical potential using ELSI.
  | Chemical potential (Fermi level):    -4.23500432 eV
  Writing Kohn-Sham eigenvalues.
  K-point:       1 at    0.000000    0.000000    0.000000 (in units of recip. lattice)

  State    Occupation    Eigenvalue [Ha]    Eigenvalue [eV]
      1       2.00000          -0.643628          -17.51401
      2       0.00000           0.230657            6.27651
      3       0.00000           1.053902           28.67814
      4       0.00000           4.561645          124.12869

  What follows are estimated values for band gap, HOMO, LUMO, etc.
  | They are estimated on a discrete k-point grid and not necessarily exact.
  | For converged numbers, create a DOS and/or band structure plot on a denser k-grid.

  Highest occupied state (VBM) at     -7.74640115 eV (relative to internal zero)
  | Occupation number:      2.00000000
  | K-point:       6 at    0.461538    0.000000    0.000000 (in units of recip. lattice)

  Lowest unoccupied state (CBM) at    -2.04633041 eV (relative to internal zero)
  | Occupation number:      0.00000000
  | K-point:       6 at    0.461538    0.000000    0.000000 (in units of recip. lattice)

  ESTIMATED overall HOMO-LUMO gap:      5.70007074 eV between HOMO at k-point 6 and LUMO at k-point 6
  | This appears to be a direct band gap.
  The gap value is above 0.2 eV. Unless you are using a very sparse k-point grid,
  this system is most likely an insulator or a semiconductor.

  Total energy components:
  | Sum of eigenvalues            :          -0.99865162 Ha         -27.17469308 eV
  | XC energy correction          :          -0.64282551 Ha         -17.49217218 eV
  | XC potential correction       :           0.83901557 Ha          22.83077524 eV
  | Free-atom electrostatic energy:          -0.18197782 Ha          -4.95186848 eV
  | Hartree energy correction     :          -0.13253014 Ha          -3.60632868 eV
  | Entropy correction            :           0.00000000 Ha           0.00000000 eV
  | ---------------------------
  | Total energy                  :          -1.11696952 Ha         -30.39428718 eV
  | Total energy, T -> 0          :          -1.11696952 Ha         -30.39428718 eV  <-- do not rely on this value for anything but (periodic) metals
  | Electronic free energy        :          -1.11696952 Ha         -30.39428718 eV

  Derived energy quantities:
  | Kinetic energy                :           1.01222053 Ha          27.54392199 eV
  | Electrostatic energy          :          -1.48636454 Ha         -40.44603699 eV
  | Energy correction for multipole
  | error in Hartree potential    :          -0.00038810 Ha          -0.01056062 eV
  | Sum of eigenvalues per atom                           :         -13.58734654 eV
  | Total energy (T->0) per atom                          :         -15.19714359 eV  <-- do not rely on this value for anything but (periodic) metals
  | Electronic free energy per atom                       :         -15.19714359 eV

  Self-consistency convergence accuracy:
  | Change of charge density      :  0.1673E+00
  | Change of sum of eigenvalues  :  0.3715E+01 eV
  | Change of total energy        :  0.4984E+00 eV

  End self-consistency iteration #     1       :  max(cpu_time)    wall_clock(cpu1)
  | Time for this iteration                    :        0.032 s           0.032 s
  | Charge density update                      :        0.003 s           0.003 s
  | Density mixing & preconditioning           :        0.002 s           0.002 s
  | Hartree multipole update                   :        0.001 s           0.001 s
  | Hartree multipole summation                :        0.023 s           0.023 s
  | Integration                                :        0.003 s           0.003 s
  | Solution of K.-S. eqns.                    :        0.000 s           0.000 s
  | Total energy evaluation                    :        0.000 s           0.000 s

  Partial memory accounting:
  | Current value for overall tracked memory usage:
  |   Minimum:        0.002 MB (on task 0)
  |   Maximum:        0.002 MB (on task 1)
  |   Average:        0.002 MB
  | Peak value for overall tracked memory usage:
  |   Minimum:        0.053 MB (on task 0 after allocating wave)
  |   Maximum:        0.090 MB (on task 2 after allocating grid_partition)
  |   Average:        0.065 MB
  | Largest tracked array allocation so far:
  |   Minimum:        0.015 MB (all_coords on task 0)
  |   Maximum:        0.059 MB (all_coords on task 2)
  |   Average:        0.033 MB
  Note:  These values currently only include a subset of arrays which are explicitly tracked.
  The "true" memory usage will be greater.
------------------------------------------------------------

------------------------------------------------------------
          Begin self-consistency iteration #    2

  Date     :  20190817, Time     :  153113.989
------------------------------------------------------------
  Evaluating new KS density using the density matrix
  Evaluating density matrix
  Time summed over all CPUs for getting density from density matrix: real work        0.014 s, elapsed        0.017 s
          Density and Forces (densmat)                 :  max(cpu_time)    wall_clock(cpu1)
          | Total time                                 :        0.002 s           0.003 s
          | Fetch Density Variables time               :        0.000 s           0.000 s
  Integration grid: deviation in total charge (<rho> - N_e) =   4.440892E-16
  Pulay mixing of updated and previous charge densities.

  Evaluating partitioned Hartree potential by multipole expansion.
  | Analytical far-field extrapolation by fixed multipoles:
  | Hartree multipole sum: apparent total charge =   0.749052E-03
  Summing up the Hartree potential.
  | Ewald reciprocal-space coefficients, myid =     0 : cpu      0.001 s, wall      0.000 s.
  | Ewald reciprocal-space coefficients, myid =     1 : cpu      0.001 s, wall      0.000 s.
  | Ewald reciprocal-space coefficients, myid =     2 : cpu      0.001 s, wall      0.000 s.
  | Ewald reciprocal-space coefficients, myid =     3 : cpu      0.001 s, wall      0.000 s.
  | Ewald reciprocal-space coefficients, myid =     4 : cpu      0.001 s, wall      0.000 s.
  | Ewald reciprocal-space coefficients, myid =     5 : cpu      0.001 s, wall      0.000 s.
  | Ewald reciprocal-space coefficients, myid =     6 : cpu      0.001 s, wall      0.000 s.
  | Ewald reciprocal-space coefficients, myid =     7 : cpu      0.001 s, wall      0.000 s.
  Time summed over all CPUs for potential: real work        0.156 s, elapsed        0.160 s
  | RMS charge density error from multipole expansion :   0.405034E-02
  | Average real-space part of the electrostatic potential :     -0.00012487 eV

  Integrating Hamiltonian matrix: batch-based integration.
  Time summed over all CPUs for integration: real work        0.019 s, elapsed        0.020 s
          Integrate hamiltonian matrix                 :  max(cpu_time)    wall_clock(cpu1)
          | Total time                                 :        0.003 s           0.003 s

  Updating Kohn-Sham eigenvalues and eigenvectors using ELSI and the (modified) LAPACK eigensolver.

  Obtaining occupation numbers and chemical potential using ELSI.
  | Chemical potential (Fermi level):    -2.04365933 eV
  Writing Kohn-Sham eigenvalues.
  K-point:       1 at    0.000000    0.000000    0.000000 (in units of recip. lattice)

  State    Occupation    Eigenvalue [Ha]    Eigenvalue [eV]
      1       2.00000          -0.563418          -15.33139
      2       0.00000           0.277535            7.55211
      3       0.00000           1.142346           31.08481
      4       0.00000           4.645276          126.40439

  What follows are estimated values for band gap, HOMO, LUMO, etc.
  | They are estimated on a discrete k-point grid and not necessarily exact.
  | For converged numbers, create a DOS and/or band structure plot on a denser k-grid.

  Highest occupied state (VBM) at     -5.47737639 eV (relative to internal zero)
  | Occupation number:      2.00000000
  | K-point:       6 at    0.461538    0.000000    0.000000 (in units of recip. lattice)

  Lowest unoccupied state (CBM) at    -0.01996811 eV (relative to internal zero)
  | Occupation number:      0.00000000
  | K-point:       6 at    0.461538    0.000000    0.000000 (in units of recip. lattice)

  ESTIMATED overall HOMO-LUMO gap:      5.45740828 eV between HOMO at k-point 6 and LUMO at k-point 6
  | This appears to be a direct band gap.
  The gap value is above 0.2 eV. Unless you are using a very sparse k-point grid,
  this system is most likely an insulator or a semiconductor.

  Checking to see if s.c.f. parameters should be adjusted.

  Total energy components:
  | Sum of eigenvalues            :          -0.83688202 Ha         -22.77271854 eV
  | XC energy correction          :          -0.70165141 Ha         -19.09290623 eV
  | XC potential correction       :           0.91633865 Ha          24.93484337 eV
  | Free-atom electrostatic energy:          -0.18197782 Ha          -4.95186848 eV
  | Hartree energy correction     :          -0.30454193 Ha          -8.28700759 eV
  | Entropy correction            :           0.00000000 Ha           0.00000000 eV
  | ---------------------------
  | Total energy                  :          -1.10871453 Ha         -30.16965747 eV
  | Total energy, T -> 0          :          -1.10871453 Ha         -30.16965747 eV  <-- do not rely on this value for anything but (periodic) metals
  | Electronic free energy        :          -1.10871453 Ha         -30.16965747 eV

  Derived energy quantities:
  | Kinetic energy                :           1.26004969 Ha          34.28769649 eV
  | Electrostatic energy          :          -1.66711281 Ha         -45.36444773 eV
  | Energy correction for multipole
  | error in Hartree potential    :          -0.00094610 Ha          -0.02574471 eV
  | Sum of eigenvalues per atom                           :         -11.38635927 eV
  | Total energy (T->0) per atom                          :         -15.08482873 eV  <-- do not rely on this value for anything but (periodic) metals
  | Electronic free energy per atom                       :         -15.08482873 eV

  Self-consistency convergence accuracy:
  | Change of charge density      :  0.8565E-01
  | Change of sum of eigenvalues  :  0.4402E+01 eV
  | Change of total energy        :  0.2246E+00 eV

  End self-consistency iteration #     2       :  max(cpu_time)    wall_clock(cpu1)
  | Time for this iteration                    :        0.031 s           0.032 s
  | Charge density update                      :        0.002 s           0.003 s
  | Density mixing & preconditioning           :        0.002 s           0.002 s
  | Hartree multipole update                   :        0.001 s           0.000 s
  | Hartree multipole summation                :        0.023 s           0.023 s
  | Integration                                :        0.003 s           0.003 s
  | Solution of K.-S. eqns.                    :        0.000 s           0.000 s
  | Total energy evaluation                    :        0.000 s           0.001 s

  Partial memory accounting:
  | Current value for overall tracked memory usage:
  |   Minimum:        0.003 MB (on task 0)
  |   Maximum:        0.003 MB (on task 1)
  |   Average:        0.003 MB
  | Peak value for overall tracked memory usage:
  |   Minimum:        0.054 MB (on task 0 after allocating wave)
  |   Maximum:        0.090 MB (on task 2 after allocating grid_partition)
  |   Average:        0.065 MB
  | Largest tracked array allocation so far:
  |   Minimum:        0.015 MB (all_coords on task 0)
  |   Maximum:        0.059 MB (all_coords on task 2)
  |   Average:        0.033 MB
  Note:  These values currently only include a subset of arrays which are explicitly tracked.
  The "true" memory usage will be greater.
------------------------------------------------------------

------------------------------------------------------------
          Begin self-consistency iteration #    3

  Date     :  20190817, Time     :  153114.021
------------------------------------------------------------
  Evaluating new KS density using the density matrix
  Evaluating density matrix
  Time summed over all CPUs for getting density from density matrix: real work        0.013 s, elapsed        0.016 s
          Density and Forces (densmat)                 :  max(cpu_time)    wall_clock(cpu1)
          | Total time                                 :        0.002 s           0.002 s
          | Fetch Density Variables time               :        0.000 s           0.000 s
  Integration grid: deviation in total charge (<rho> - N_e) =   0.000000E+00
  Pulay mixing of updated and previous charge densities.

  Evaluating partitioned Hartree potential by multipole expansion.
  | Analytical far-field extrapolation by fixed multipoles:
  | Hartree multipole sum: apparent total charge =   0.716829E-03
  Summing up the Hartree potential.
  | Ewald reciprocal-space coefficients, myid =     0 : cpu      0.001 s, wall      0.000 s.
  | Ewald reciprocal-space coefficients, myid =     1 : cpu      0.001 s, wall      0.000 s.
  | Ewald reciprocal-space coefficients, myid =     2 : cpu      0.001 s, wall      0.000 s.
  | Ewald reciprocal-space coefficients, myid =     3 : cpu      0.001 s, wall      0.000 s.
  | Ewald reciprocal-space coefficients, myid =     4 : cpu      0.001 s, wall      0.000 s.
  | Ewald reciprocal-space coefficients, myid =     5 : cpu      0.001 s, wall      0.000 s.
  | Ewald reciprocal-space coefficients, myid =     6 : cpu      0.001 s, wall      0.000 s.
  | Ewald reciprocal-space coefficients, myid =     7 : cpu      0.001 s, wall      0.000 s.
  Time summed over all CPUs for potential: real work        0.153 s, elapsed        0.155 s
  | RMS charge density error from multipole expansion :   0.413760E-02
  | Average real-space part of the electrostatic potential :     -0.00022337 eV

  Integrating Hamiltonian matrix: batch-based integration.
  Time summed over all CPUs for integration: real work        0.020 s, elapsed        0.023 s
          Integrate hamiltonian matrix                 :  max(cpu_time)    wall_clock(cpu1)
          | Total time                                 :        0.003 s           0.003 s

  Updating Kohn-Sham eigenvalues and eigenvectors using ELSI and the (modified) LAPACK eigensolver.

  Obtaining occupation numbers and chemical potential using ELSI.
  | Chemical potential (Fermi level):    -1.76833876 eV
  Writing Kohn-Sham eigenvalues.
  K-point:       1 at    0.000000    0.000000    0.000000 (in units of recip. lattice)

  State    Occupation    Eigenvalue [Ha]    Eigenvalue [eV]
      1       2.00000          -0.553400          -15.05879
      2       0.00000           0.286898            7.80688
      3       0.00000           1.153331           31.38374
      4       0.00000           4.656360          126.70599

  What follows are estimated values for band gap, HOMO, LUMO, etc.
  | They are estimated on a discrete k-point grid and not necessarily exact.
  | For converged numbers, create a DOS and/or band structure plot on a denser k-grid.

  Highest occupied state (VBM) at     -5.20777957 eV (relative to internal zero)
  | Occupation number:      2.00000000
  | K-point:       6 at    0.461538    0.000000    0.000000 (in units of recip. lattice)

  Lowest unoccupied state (CBM) at     0.25553319 eV (relative to internal zero)
  | Occupation number:      0.00000000
  | K-point:       6 at    0.461538    0.000000    0.000000 (in units of recip. lattice)

  ESTIMATED overall HOMO-LUMO gap:      5.46331277 eV between HOMO at k-point 6 and LUMO at k-point 6
  | This appears to be a direct band gap.
  The gap value is above 0.2 eV. Unless you are using a very sparse k-point grid,
  this system is most likely an insulator or a semiconductor.

  Total energy components:
  | Sum of eigenvalues            :          -0.81690015 Ha         -22.22898403 eV
  | XC energy correction          :          -0.70619099 Ha         -19.21643465 eV
  | XC potential correction       :           0.92225644 Ha          25.09587451 eV
  | Free-atom electrostatic energy:          -0.18197782 Ha          -4.95186848 eV
  | Hartree energy correction     :          -0.32586892 Ha          -8.86734457 eV
  | Entropy correction            :           0.00000000 Ha           0.00000000 eV
  | ---------------------------
  | Total energy                  :          -1.10868145 Ha         -30.16875721 eV
  | Total energy, T -> 0          :          -1.10868145 Ha         -30.16875721 eV  <-- do not rely on this value for anything but (periodic) metals
  | Electronic free energy        :          -1.10868145 Ha         -30.16875721 eV

  Derived energy quantities:
  | Kinetic energy                :           1.25191652 Ha          34.06638169 eV
  | Electrostatic energy          :          -1.65440697 Ha         -45.01870425 eV
  | Energy correction for multipole
  | error in Hartree potential    :          -0.00125482 Ha          -0.03414548 eV
  | Sum of eigenvalues per atom                           :         -11.11449201 eV
  | Total energy (T->0) per atom                          :         -15.08437860 eV  <-- do not rely on this value for anything but (periodic) metals
  | Electronic free energy per atom                       :         -15.08437860 eV

  Self-consistency convergence accuracy:
  | Change of charge density      :  0.9988E-02
  | Change of sum of eigenvalues  :  0.5437E+00 eV
  | Change of total energy        :  0.9003E-03 eV

  End self-consistency iteration #     3       :  max(cpu_time)    wall_clock(cpu1)
  | Time for this iteration                    :        0.031 s           0.031 s
  | Charge density update                      :        0.002 s           0.002 s
  | Density mixing & preconditioning           :        0.002 s           0.002 s
  | Hartree multipole update                   :        0.001 s           0.001 s
  | Hartree multipole summation                :        0.022 s           0.022 s
  | Integration                                :        0.003 s           0.003 s
  | Solution of K.-S. eqns.                    :        0.000 s           0.000 s
  | Total energy evaluation                    :        0.000 s           0.000 s

  Partial memory accounting:
  | Current value for overall tracked memory usage:
  |   Minimum:        0.003 MB (on task 0)
  |   Maximum:        0.003 MB (on task 1)
  |   Average:        0.003 MB
  | Peak value for overall tracked memory usage:
  |   Minimum:        0.054 MB (on task 0 after allocating wave)
  |   Maximum:        0.090 MB (on task 2 after allocating grid_partition)
  |   Average:        0.065 MB
  | Largest tracked array allocation so far:
  |   Minimum:        0.015 MB (all_coords on task 0)
  |   Maximum:        0.059 MB (all_coords on task 2)
  |   Average:        0.033 MB
  Note:  These values currently only include a subset of arrays which are explicitly tracked.
  The "true" memory usage will be greater.
------------------------------------------------------------

------------------------------------------------------------
          Begin self-consistency iteration #    4

  Date     :  20190817, Time     :  153114.052
------------------------------------------------------------
  Evaluating new KS density using the density matrix
  Evaluating density matrix
  Time summed over all CPUs for getting density from density matrix: real work        0.013 s, elapsed        0.016 s
          Density and Forces (densmat)                 :  max(cpu_time)    wall_clock(cpu1)
          | Total time                                 :        0.002 s           0.002 s
          | Fetch Density Variables time               :        0.000 s           0.000 s
  Integration grid: deviation in total charge (<rho> - N_e) =   8.881784E-16
  Pulay mixing of updated and previous charge densities.

  Evaluating partitioned Hartree potential by multipole expansion.
  | Analytical far-field extrapolation by fixed multipoles:
  | Hartree multipole sum: apparent total charge =   0.543449E-03
  Summing up the Hartree potential.
  | Ewald reciprocal-space coefficients, myid =     0 : cpu      0.001 s, wall      0.001 s.
  | Ewald reciprocal-space coefficients, myid =     1 : cpu      0.001 s, wall      0.001 s.
  | Ewald reciprocal-space coefficients, myid =     2 : cpu      0.001 s, wall      0.001 s.
  | Ewald reciprocal-space coefficients, myid =     3 : cpu      0.001 s, wall      0.001 s.
  | Ewald reciprocal-space coefficients, myid =     4 : cpu      0.001 s, wall      0.001 s.
  | Ewald reciprocal-space coefficients, myid =     5 : cpu      0.001 s, wall      0.001 s.
  | Ewald reciprocal-space coefficients, myid =     6 : cpu      0.001 s, wall      0.001 s.
  | Ewald reciprocal-space coefficients, myid =     7 : cpu      0.001 s, wall      0.001 s.
  Time summed over all CPUs for potential: real work        0.156 s, elapsed        0.159 s
  | RMS charge density error from multipole expansion :   0.431380E-02
  | Average real-space part of the electrostatic potential :     -0.00022144 eV

  Integrating Hamiltonian matrix: batch-based integration.
  Time summed over all CPUs for integration: real work        0.020 s, elapsed        0.021 s
          Integrate hamiltonian matrix                 :  max(cpu_time)    wall_clock(cpu1)
          | Total time                                 :        0.003 s           0.003 s

  Updating Kohn-Sham eigenvalues and eigenvectors using ELSI and the (modified) LAPACK eigensolver.

  Obtaining occupation numbers and chemical potential using ELSI.
  | Chemical potential (Fermi level):    -1.58366194 eV
  Writing Kohn-Sham eigenvalues.
  K-point:       1 at    0.000000    0.000000    0.000000 (in units of recip. lattice)

  State    Occupation    Eigenvalue [Ha]    Eigenvalue [eV]
      1       2.00000          -0.546635          -14.87469
      2       0.00000           0.292119            7.94895
      3       0.00000           1.160743           31.58542
      4       0.00000           4.663352          126.89626

  What follows are estimated values for band gap, HOMO, LUMO, etc.
  | They are estimated on a discrete k-point grid and not necessarily exact.
  | For converged numbers, create a DOS and/or band structure plot on a denser k-grid.

  Highest occupied state (VBM) at     -5.01729927 eV (relative to internal zero)
  | Occupation number:      2.00000000
  | K-point:       6 at    0.461538    0.000000    0.000000 (in units of recip. lattice)

  Lowest unoccupied state (CBM) at     0.42898138 eV (relative to internal zero)
  | Occupation number:      0.00000000
  | K-point:       6 at    0.461538    0.000000    0.000000 (in units of recip. lattice)

  ESTIMATED overall HOMO-LUMO gap:      5.44628065 eV between HOMO at k-point 6 and LUMO at k-point 6
  | This appears to be a direct band gap.
  The gap value is above 0.2 eV. Unless you are using a very sparse k-point grid,
  this system is most likely an insulator or a semiconductor.

  Total energy components:
  | Sum of eigenvalues            :          -0.80326625 Ha         -21.85798666 eV
  | XC energy correction          :          -0.71092272 Ha         -19.34519144 eV
  | XC potential correction       :           0.92846834 Ha          25.26490910 eV
  | Free-atom electrostatic energy:          -0.18197782 Ha          -4.95186848 eV
  | Hartree energy correction     :          -0.34096837 Ha          -9.27822130 eV
  | Entropy correction            :           0.00000000 Ha           0.00000000 eV
  | ---------------------------
  | Total energy                  :          -1.10866681 Ha         -30.16835877 eV
  | Total energy, T -> 0          :          -1.10866681 Ha         -30.16835877 eV  <-- do not rely on this value for anything but (periodic) metals
  | Electronic free energy        :          -1.10866681 Ha         -30.16835877 eV

  Derived energy quantities:
  | Kinetic energy                :           1.26697279 Ha          34.47608381 eV
  | Electrostatic energy          :          -1.66471688 Ha         -45.29925115 eV
  | Energy correction for multipole
  | error in Hartree potential    :          -0.00133965 Ha          -0.03645382 eV
  | Sum of eigenvalues per atom                           :         -10.92899333 eV
  | Total energy (T->0) per atom                          :         -15.08417939 eV  <-- do not rely on this value for anything but (periodic) metals
  | Electronic free energy per atom                       :         -15.08417939 eV

  Self-consistency convergence accuracy:
  | Change of charge density      :  0.2731E-02
  | Change of sum of eigenvalues  :  0.3710E+00 eV
  | Change of total energy        :  0.3984E-03 eV

  End self-consistency iteration #     4       :  max(cpu_time)    wall_clock(cpu1)
  | Time for this iteration                    :        0.031 s           0.030 s
  | Charge density update                      :        0.002 s           0.002 s
  | Density mixing & preconditioning           :        0.001 s           0.001 s
  | Hartree multipole update                   :        0.001 s           0.001 s
  | Hartree multipole summation                :        0.023 s           0.023 s
  | Integration                                :        0.003 s           0.003 s
  | Solution of K.-S. eqns.                    :        0.000 s           0.000 s
  | Total energy evaluation                    :        0.000 s           0.000 s

  Partial memory accounting:
  | Current value for overall tracked memory usage:
  |   Minimum:        0.003 MB (on task 0)
  |   Maximum:        0.003 MB (on task 1)
  |   Average:        0.003 MB
  | Peak value for overall tracked memory usage:
  |   Minimum:        0.054 MB (on task 0 after allocating wave)
  |   Maximum:        0.090 MB (on task 2 after allocating grid_partition)
  |   Average:        0.065 MB
  | Largest tracked array allocation so far:
  |   Minimum:        0.015 MB (all_coords on task 0)
  |   Maximum:        0.059 MB (all_coords on task 2)
  |   Average:        0.033 MB
  Note:  These values currently only include a subset of arrays which are explicitly tracked.
  The "true" memory usage will be greater.
------------------------------------------------------------

------------------------------------------------------------
          Begin self-consistency iteration #    5

  Date     :  20190817, Time     :  153114.083
------------------------------------------------------------
  Evaluating new KS density using the density matrix
  Evaluating density matrix
  Time summed over all CPUs for getting density from density matrix: real work        0.014 s, elapsed        0.017 s
          Density and Forces (densmat)                 :  max(cpu_time)    wall_clock(cpu1)
          | Total time                                 :        0.002 s           0.002 s
          | Fetch Density Variables time               :        0.000 s           0.000 s
  Integration grid: deviation in total charge (<rho> - N_e) =   8.881784E-16
  Pulay mixing of updated and previous charge densities.

  Evaluating partitioned Hartree potential by multipole expansion.
  | Analytical far-field extrapolation by fixed multipoles:
  | Hartree multipole sum: apparent total charge =   0.264486E-03
  Summing up the Hartree potential.
  | Ewald reciprocal-space coefficients, myid =     0 : cpu      0.001 s, wall      0.001 s.
  | Ewald reciprocal-space coefficients, myid =     1 : cpu      0.001 s, wall      0.001 s.
  | Ewald reciprocal-space coefficients, myid =     2 : cpu      0.001 s, wall      0.001 s.
  | Ewald reciprocal-space coefficients, myid =     3 : cpu      0.001 s, wall      0.001 s.
  | Ewald reciprocal-space coefficients, myid =     4 : cpu      0.001 s, wall      0.001 s.
  | Ewald reciprocal-space coefficients, myid =     5 : cpu      0.001 s, wall      0.001 s.
  | Ewald reciprocal-space coefficients, myid =     6 : cpu      0.001 s, wall      0.001 s.
  | Ewald reciprocal-space coefficients, myid =     7 : cpu      0.001 s, wall      0.001 s.
  Time summed over all CPUs for potential: real work        0.156 s, elapsed        0.160 s
  | RMS charge density error from multipole expansion :   0.422450E-02
  | Average real-space part of the electrostatic potential :     -0.00018726 eV

  Integrating Hamiltonian matrix: batch-based integration.
  Time summed over all CPUs for integration: real work        0.019 s, elapsed        0.020 s
          Integrate hamiltonian matrix                 :  max(cpu_time)    wall_clock(cpu1)
          | Total time                                 :        0.003 s           0.003 s

  Updating Kohn-Sham eigenvalues and eigenvectors using ELSI and the (modified) LAPACK eigensolver.

  Obtaining occupation numbers and chemical potential using ELSI.
  | Chemical potential (Fermi level):    -1.66620224 eV
  Writing Kohn-Sham eigenvalues.
  K-point:       1 at    0.000000    0.000000    0.000000 (in units of recip. lattice)

  State    Occupation    Eigenvalue [Ha]    Eigenvalue [eV]
      1       2.00000          -0.549647          -14.95666
      2       0.00000           0.290146            7.89527
      3       0.00000           1.157382           31.49396
      4       0.00000           4.660116          126.80822

  What follows are estimated values for band gap, HOMO, LUMO, etc.
  | They are estimated on a discrete k-point grid and not necessarily exact.
  | For converged numbers, create a DOS and/or band structure plot on a denser k-grid.

  Highest occupied state (VBM) at     -5.10286947 eV (relative to internal zero)
  | Occupation number:      2.00000000
  | K-point:       6 at    0.461538    0.000000    0.000000 (in units of recip. lattice)

  Lowest unoccupied state (CBM) at     0.35289880 eV (relative to internal zero)
  | Occupation number:      0.00000000
  | K-point:       6 at    0.461538    0.000000    0.000000 (in units of recip. lattice)

  ESTIMATED overall HOMO-LUMO gap:      5.45576827 eV between HOMO at k-point 6 and LUMO at k-point 6
  | This appears to be a direct band gap.
  The gap value is above 0.2 eV. Unless you are using a very sparse k-point grid,
  this system is most likely an insulator or a semiconductor.

  Total energy components:
  | Sum of eigenvalues            :          -0.80934845 Ha         -22.02349188 eV
  | XC energy correction          :          -0.70834795 Ha         -19.27512833 eV
  | XC potential correction       :           0.92508347 Ha          25.17280187 eV
  | Free-atom electrostatic energy:          -0.18197782 Ha          -4.95186848 eV
  | Hartree energy correction     :          -0.33407947 Ha          -9.09076490 eV
  | Entropy correction            :           0.00000000 Ha           0.00000000 eV
  | ---------------------------
  | Total energy                  :          -1.10867022 Ha         -30.16845172 eV
  | Total energy, T -> 0          :          -1.10867022 Ha         -30.16845172 eV  <-- do not rely on this value for anything but (periodic) metals
  | Electronic free energy        :          -1.10867022 Ha         -30.16845172 eV

  Derived energy quantities:
  | Kinetic energy                :           1.25753466 Ha          34.21925920 eV
  | Electrostatic energy          :          -1.65785694 Ha         -45.11258259 eV
  | Energy correction for multipole
  | error in Hartree potential    :          -0.00131980 Ha          -0.03591359 eV
  | Sum of eigenvalues per atom                           :         -11.01174594 eV
  | Total energy (T->0) per atom                          :         -15.08422586 eV  <-- do not rely on this value for anything but (periodic) metals
  | Electronic free energy per atom                       :         -15.08422586 eV

  Self-consistency convergence accuracy:
  | Change of charge density      :  0.2830E-02
  | Change of sum of eigenvalues  : -0.1655E+00 eV
  | Change of total energy        : -0.9294E-04 eV

  End self-consistency iteration #     5       :  max(cpu_time)    wall_clock(cpu1)
  | Time for this iteration                    :        0.031 s           0.030 s
  | Charge density update                      :        0.002 s           0.002 s
  | Density mixing & preconditioning           :        0.001 s           0.001 s
  | Hartree multipole update                   :        0.001 s           0.001 s
  | Hartree multipole summation                :        0.023 s           0.023 s
  | Integration                                :        0.003 s           0.003 s
  | Solution of K.-S. eqns.                    :        0.000 s           0.000 s
  | Total energy evaluation                    :        0.000 s           0.000 s

  Partial memory accounting:
  | Current value for overall tracked memory usage:
  |   Minimum:        0.003 MB (on task 0)
  |   Maximum:        0.003 MB (on task 1)
  |   Average:        0.003 MB
  | Peak value for overall tracked memory usage:
  |   Minimum:        0.054 MB (on task 0 after allocating wave)
  |   Maximum:        0.090 MB (on task 2 after allocating grid_partition)
  |   Average:        0.065 MB
  | Largest tracked array allocation so far:
  |   Minimum:        0.015 MB (all_coords on task 0)
  |   Maximum:        0.059 MB (all_coords on task 2)
  |   Average:        0.033 MB
  Note:  These values currently only include a subset of arrays which are explicitly tracked.
  The "true" memory usage will be greater.
------------------------------------------------------------

------------------------------------------------------------
          Begin self-consistency iteration #    6

  Date     :  20190817, Time     :  153114.114
------------------------------------------------------------
  Evaluating new KS density using the density matrix
  Evaluating density matrix
  Time summed over all CPUs for getting density from density matrix: real work        0.013 s, elapsed        0.016 s
          Density and Forces (densmat)                 :  max(cpu_time)    wall_clock(cpu1)
          | Total time                                 :        0.002 s           0.002 s
          | Fetch Density Variables time               :        0.000 s           0.000 s
  Integration grid: deviation in total charge (<rho> - N_e) =  -4.440892E-16
  Pulay mixing of updated and previous charge densities.

  Evaluating partitioned Hartree potential by multipole expansion.
  | Analytical far-field extrapolation by fixed multipoles:
  | Hartree multipole sum: apparent total charge =  -0.413911E-04
  Summing up the Hartree potential.
  | Ewald reciprocal-space coefficients, myid =     0 : cpu      0.001 s, wall      0.001 s.
  | Ewald reciprocal-space coefficients, myid =     1 : cpu      0.001 s, wall      0.001 s.
  | Ewald reciprocal-space coefficients, myid =     2 : cpu      0.001 s, wall      0.001 s.
  | Ewald reciprocal-space coefficients, myid =     3 : cpu      0.001 s, wall      0.001 s.
  | Ewald reciprocal-space coefficients, myid =     4 : cpu      0.001 s, wall      0.001 s.
  | Ewald reciprocal-space coefficients, myid =     5 : cpu      0.001 s, wall      0.001 s.
  | Ewald reciprocal-space coefficients, myid =     6 : cpu      0.001 s, wall      0.001 s.
  | Ewald reciprocal-space coefficients, myid =     7 : cpu      0.001 s, wall      0.001 s.
  Time summed over all CPUs for potential: real work        0.158 s, elapsed        0.161 s
  | RMS charge density error from multipole expansion :   0.423961E-02
  | Average real-space part of the electrostatic potential :     -0.00015337 eV

  Integrating Hamiltonian matrix: batch-based integration.
  Time summed over all CPUs for integration: real work        0.019 s, elapsed        0.020 s
          Integrate hamiltonian matrix                 :  max(cpu_time)    wall_clock(cpu1)
          | Total time                                 :        0.003 s           0.003 s

  Updating Kohn-Sham eigenvalues and eigenvectors using ELSI and the (modified) LAPACK eigensolver.

  Obtaining occupation numbers and chemical potential using ELSI.
  | Chemical potential (Fermi level):    -1.63543313 eV
  Writing Kohn-Sham eigenvalues.
  K-point:       1 at    0.000000    0.000000    0.000000 (in units of recip. lattice)

  State    Occupation    Eigenvalue [Ha]    Eigenvalue [eV]
      1       2.00000          -0.548519          -14.92597
      2       0.00000           0.291007            7.91870
      3       0.00000           1.158592           31.52690
      4       0.00000           4.661274          126.83971

  What follows are estimated values for band gap, HOMO, LUMO, etc.
  | They are estimated on a discrete k-point grid and not necessarily exact.
  | For converged numbers, create a DOS and/or band structure plot on a denser k-grid.

  Highest occupied state (VBM) at     -5.07146440 eV (relative to internal zero)
  | Occupation number:      2.00000000
  | K-point:       6 at    0.461538    0.000000    0.000000 (in units of recip. lattice)

  Lowest unoccupied state (CBM) at     0.38237919 eV (relative to internal zero)
  | Occupation number:      0.00000000
  | K-point:       6 at    0.461538    0.000000    0.000000 (in units of recip. lattice)

  ESTIMATED overall HOMO-LUMO gap:      5.45384359 eV between HOMO at k-point 6 and LUMO at k-point 6
  | This appears to be a direct band gap.
  The gap value is above 0.2 eV. Unless you are using a very sparse k-point grid,
  this system is most likely an insulator or a semiconductor.

  Total energy components:
  | Sum of eigenvalues            :          -0.80708171 Ha         -21.96181067 eV
  | XC energy correction          :          -0.70895175 Ha         -19.29155864 eV
  | XC potential correction       :           0.92587584 Ha          25.19436340 eV
  | Free-atom electrostatic energy:          -0.18197782 Ha          -4.95186848 eV
  | Hartree energy correction     :          -0.33653253 Ha          -9.15751603 eV
  | Entropy correction            :           0.00000000 Ha           0.00000000 eV
  | ---------------------------
  | Total energy                  :          -1.10866797 Ha         -30.16839042 eV
  | Total energy, T -> 0          :          -1.10866797 Ha         -30.16839042 eV  <-- do not rely on this value for anything but (periodic) metals
  | Electronic free energy        :          -1.10866797 Ha         -30.16839042 eV

  Derived energy quantities:
  | Kinetic energy                :           1.25945291 Ha          34.27145730 eV
  | Electrostatic energy          :          -1.65916913 Ha         -45.14828907 eV
  | Energy correction for multipole
  | error in Hartree potential    :          -0.00132572 Ha          -0.03607460 eV
  | Sum of eigenvalues per atom                           :         -10.98090533 eV
  | Total energy (T->0) per atom                          :         -15.08419521 eV  <-- do not rely on this value for anything but (periodic) metals
  | Electronic free energy per atom                       :         -15.08419521 eV

  Self-consistency convergence accuracy:
  | Change of charge density      :  0.7108E-03
  | Change of sum of eigenvalues  :  0.6168E-01 eV
  | Change of total energy        :  0.6130E-04 eV

  End self-consistency iteration #     6       :  max(cpu_time)    wall_clock(cpu1)
  | Time for this iteration                    :        0.031 s           0.031 s
  | Charge density update                      :        0.002 s           0.002 s
  | Density mixing & preconditioning           :        0.001 s           0.001 s
  | Hartree multipole update                   :        0.001 s           0.001 s
  | Hartree multipole summation                :        0.023 s           0.023 s
  | Integration                                :        0.003 s           0.003 s
  | Solution of K.-S. eqns.                    :        0.000 s           0.000 s
  | Total energy evaluation                    :        0.000 s           0.000 s

  Partial memory accounting:
  | Current value for overall tracked memory usage:
  |   Minimum:        0.003 MB (on task 0)
  |   Maximum:        0.003 MB (on task 1)
  |   Average:        0.003 MB
  | Peak value for overall tracked memory usage:
  |   Minimum:        0.054 MB (on task 0 after allocating wave)
  |   Maximum:        0.090 MB (on task 2 after allocating grid_partition)
  |   Average:        0.065 MB
  | Largest tracked array allocation so far:
  |   Minimum:        0.015 MB (all_coords on task 0)
  |   Maximum:        0.059 MB (all_coords on task 2)
  |   Average:        0.033 MB
  Note:  These values currently only include a subset of arrays which are explicitly tracked.
  The "true" memory usage will be greater.
------------------------------------------------------------

------------------------------------------------------------
          Begin self-consistency iteration #    7

  Date     :  20190817, Time     :  153114.145
------------------------------------------------------------
  Evaluating new KS density using the density matrix
  Evaluating density matrix
  Time summed over all CPUs for getting density from density matrix: real work        0.014 s, elapsed        0.016 s
          Density and Forces (densmat)                 :  max(cpu_time)    wall_clock(cpu1)
          | Total time                                 :        0.002 s           0.002 s
          | Fetch Density Variables time               :        0.000 s           0.000 s
  Integration grid: deviation in total charge (<rho> - N_e) =   8.881784E-16
  Pulay mixing of updated and previous charge densities.

  Evaluating partitioned Hartree potential by multipole expansion.
  | Analytical far-field extrapolation by fixed multipoles:
  | Hartree multipole sum: apparent total charge =  -0.143789E-03
  Summing up the Hartree potential.
  | Ewald reciprocal-space coefficients, myid =     0 : cpu      0.001 s, wall      0.000 s.
  | Ewald reciprocal-space coefficients, myid =     1 : cpu      0.001 s, wall      0.001 s.
  | Ewald reciprocal-space coefficients, myid =     2 : cpu      0.001 s, wall      0.001 s.
  | Ewald reciprocal-space coefficients, myid =     3 : cpu      0.001 s, wall      0.000 s.
  | Ewald reciprocal-space coefficients, myid =     4 : cpu      0.001 s, wall      0.001 s.
  | Ewald reciprocal-space coefficients, myid =     5 : cpu      0.001 s, wall      0.000 s.
  | Ewald reciprocal-space coefficients, myid =     6 : cpu      0.001 s, wall      0.001 s.
  | Ewald reciprocal-space coefficients, myid =     7 : cpu      0.001 s, wall      0.000 s.
  Time summed over all CPUs for potential: real work        0.155 s, elapsed        0.159 s
  | RMS charge density error from multipole expansion :   0.424009E-02
  | Average real-space part of the electrostatic potential :     -0.00014130 eV

  Integrating Hamiltonian matrix: batch-based integration.
  Time summed over all CPUs for integration: real work        0.020 s, elapsed        0.022 s
          Integrate hamiltonian matrix                 :  max(cpu_time)    wall_clock(cpu1)
          | Total time                                 :        0.003 s           0.003 s

  Updating Kohn-Sham eigenvalues and eigenvectors using ELSI and the (modified) LAPACK eigensolver.

  Obtaining occupation numbers and chemical potential using ELSI.
  | Chemical potential (Fermi level):    -1.63091185 eV
  Writing Kohn-Sham eigenvalues.
  K-point:       1 at    0.000000    0.000000    0.000000 (in units of recip. lattice)

  State    Occupation    Eigenvalue [Ha]    Eigenvalue [eV]
      1       2.00000          -0.548353          -14.92145
      2       0.00000           0.291128            7.92200
      3       0.00000           1.158765           31.53161
      4       0.00000           4.661442          126.84428

  What follows are estimated values for band gap, HOMO, LUMO, etc.
  | They are estimated on a discrete k-point grid and not necessarily exact.
  | For converged numbers, create a DOS and/or band structure plot on a denser k-grid.

  Highest occupied state (VBM) at     -5.06687913 eV (relative to internal zero)
  | Occupation number:      2.00000000
  | K-point:       6 at    0.461538    0.000000    0.000000 (in units of recip. lattice)

  Lowest unoccupied state (CBM) at     0.38678525 eV (relative to internal zero)
[...]
  Summing up the Hartree potential.
  Time summed over all CPUs for potential: real work        0.131 s, elapsed        0.136 s
  | RMS delta_rho error from multipole expansion :   0.864023E-03

 i_center and i_coord:          15           1

  Evaluating partitioned Hartree potential by multipole expansion.
  Summing up the Hartree potential.
  Time summed over all CPUs for potential: real work        0.131 s, elapsed        0.136 s
  | RMS delta_rho error from multipole expansion :   0.116788E-02

 i_center and i_coord:          15           2

  Evaluating partitioned Hartree potential by multipole expansion.
  Summing up the Hartree potential.
  Time summed over all CPUs for potential: real work        0.132 s, elapsed        0.137 s
  | RMS delta_rho error from multipole expansion :   0.577654E-03

 i_center and i_coord:          15           3

  Evaluating partitioned Hartree potential by multipole expansion.
  Summing up the Hartree potential.
  Time summed over all CPUs for potential: real work        0.132 s, elapsed        0.136 s
  | RMS delta_rho error from multipole expansion :   0.577654E-03

 i_center and i_coord:          16           1

  Evaluating partitioned Hartree potential by multipole expansion.
  Summing up the Hartree potential.
  Time summed over all CPUs for potential: real work        0.131 s, elapsed        0.136 s
  | RMS delta_rho error from multipole expansion :   0.102928E-02

 i_center and i_coord:          16           2

  Evaluating partitioned Hartree potential by multipole expansion.
  Summing up the Hartree potential.
  Time summed over all CPUs for potential: real work        0.131 s, elapsed        0.135 s
  | RMS delta_rho error from multipole expansion :   0.682317E-03

 i_center and i_coord:          16           3

  Evaluating partitioned Hartree potential by multipole expansion.
  Summing up the Hartree potential.
  Time summed over all CPUs for potential: real work        0.131 s, elapsed        0.136 s
  | RMS delta_rho error from multipole expansion :   0.682317E-03

 i_center and i_coord:          17           1

  Evaluating partitioned Hartree potential by multipole expansion.
  Summing up the Hartree potential.
  Time summed over all CPUs for potential: real work        0.131 s, elapsed        0.135 s
  | RMS delta_rho error from multipole expansion :   0.816836E-03

 i_center and i_coord:          17           2

  Evaluating partitioned Hartree potential by multipole expansion.
  Summing up the Hartree potential.
  Time summed over all CPUs for potential: real work        0.131 s, elapsed        0.136 s
  | RMS delta_rho error from multipole expansion :   0.187143E-02

 i_center and i_coord:          17           3

  Evaluating partitioned Hartree potential by multipole expansion.
  Summing up the Hartree potential.
  Time summed over all CPUs for potential: real work        0.131 s, elapsed        0.136 s
  | RMS delta_rho error from multipole expansion :   0.187143E-02

 i_center and i_coord:          18           1

  Evaluating partitioned Hartree potential by multipole expansion.
  Summing up the Hartree potential.
  Time summed over all CPUs for potential: real work        0.131 s, elapsed        0.136 s
  | RMS delta_rho error from multipole expansion :   0.108523E-02

 i_center and i_coord:          18           2

  Evaluating partitioned Hartree potential by multipole expansion.
  Summing up the Hartree potential.
  Time summed over all CPUs for potential: real work        0.131 s, elapsed        0.135 s
  | RMS delta_rho error from multipole expansion :   0.207565E-02

 i_center and i_coord:          18           3

  Evaluating partitioned Hartree potential by multipole expansion.
  Summing up the Hartree potential.
  Time summed over all CPUs for potential: real work        0.131 s, elapsed        0.135 s
  | RMS delta_rho error from multipole expansion :   0.207565E-02

 i_center and i_coord:          19           1

  Evaluating partitioned Hartree potential by multipole expansion.
  Summing up the Hartree potential.
  Time summed over all CPUs for potential: real work        0.132 s, elapsed        0.136 s
  | RMS delta_rho error from multipole expansion :   0.806541E-03

 i_center and i_coord:          19           2

  Evaluating partitioned Hartree potential by multipole expansion.
  Summing up the Hartree potential.
  Time summed over all CPUs for potential: real work        0.131 s, elapsed        0.136 s
  | RMS delta_rho error from multipole expansion :   0.378396E-02

 i_center and i_coord:          19           3

  Evaluating partitioned Hartree potential by multipole expansion.
  Summing up the Hartree potential.
  Time summed over all CPUs for potential: real work        0.131 s, elapsed        0.135 s
  | RMS delta_rho error from multipole expansion :   0.378396E-02

 i_center and i_coord:          20           1

  Evaluating partitioned Hartree potential by multipole expansion.
  Summing up the Hartree potential.
  Time summed over all CPUs for potential: real work        0.131 s, elapsed        0.136 s
  | RMS delta_rho error from multipole expansion :   0.210961E-02

 i_center and i_coord:          20           2

  Evaluating partitioned Hartree potential by multipole expansion.
  Summing up the Hartree potential.
  Time summed over all CPUs for potential: real work        0.131 s, elapsed        0.136 s
  | RMS delta_rho error from multipole expansion :   0.356253E-02

 i_center and i_coord:          20           3

  Evaluating partitioned Hartree potential by multipole expansion.
  Summing up the Hartree potential.
  Time summed over all CPUs for potential: real work        0.131 s, elapsed        0.135 s
  | RMS delta_rho error from multipole expansion :   0.356253E-02

 i_center and i_coord:          21           1

  Evaluating partitioned Hartree potential by multipole expansion.
  Summing up the Hartree potential.
  Time summed over all CPUs for potential: real work        0.131 s, elapsed        0.136 s
  | RMS delta_rho error from multipole expansion :   0.188476E-02

 i_center and i_coord:          21           2

  Evaluating partitioned Hartree potential by multipole expansion.
  Summing up the Hartree potential.
  Time summed over all CPUs for potential: real work        0.132 s, elapsed        0.138 s
  | RMS delta_rho error from multipole expansion :   0.438558E-02

 i_center and i_coord:          21           3

  Evaluating partitioned Hartree potential by multipole expansion.
  Summing up the Hartree potential.
  Time summed over all CPUs for potential: real work        0.132 s, elapsed        0.137 s
  | RMS delta_rho error from multipole expansion :   0.438558E-02

 i_center and i_coord:          22           1

  Evaluating partitioned Hartree potential by multipole expansion.
  Summing up the Hartree potential.
  Time summed over all CPUs for potential: real work        0.131 s, elapsed        0.135 s
  | RMS delta_rho error from multipole expansion :   0.618442E-03

 i_center and i_coord:          22           2

  Evaluating partitioned Hartree potential by multipole expansion.
  Summing up the Hartree potential.
  Time summed over all CPUs for potential: real work        0.131 s, elapsed        0.135 s
  | RMS delta_rho error from multipole expansion :   0.462646E-02

 i_center and i_coord:          22           3

  Evaluating partitioned Hartree potential by multipole expansion.
  Summing up the Hartree potential.
  Time summed over all CPUs for potential: real work        0.132 s, elapsed        0.139 s
  | RMS delta_rho error from multipole expansion :   0.462646E-02

  trans_circle_to_cubic: batch-based integration.
  Time summed over all CPUs for trans_circle_to_cubic: real work        0.001 s, elapsed        0.001 s
  Integrating first-order-Hamiltonian matrix: batch-based integration.
  Time summed over all CPUs for integration: real work        0.382 s, elapsed        0.394 s
 @@@@@@@@time for CPSCF@@@@@@@@@@@@@@@@@@   1.25828300000000     

 @@@@@@@@time for CPSCF@@@@@@@@@@@@@@@@@@   1.25858400000000     
 @@@@@@@@time for CPSCF@@@@@@@@@@@@@@@@@@   1.25860200000000     
 @@@@@@@@time for CPSCF@@@@@@@@@@@@@@@@@@   1.25858400000000     
 @@@@@@@@time for CPSCF@@@@@@@@@@@@@@@@@@   1.25860000000000     
 @@@@@@@@time for CPSCF@@@@@@@@@@@@@@@@@@   1.25859200000000     
 @@@@@@@@time for CPSCF@@@@@@@@@@@@@@@@@@   1.25860200000000     
  CP-self-consistency cycle converged.

  End CPSCF iteration #     3                  :  max(cpu_time)    wall_clock(cpu1)
  | Time for this iteration                    :        1.259 s           1.259 s
  | first_order_DM                             :        0.005 s           0.005 s
  | first_order_density                        :        0.016 s           0.017 s
  | first_order_potential                      :        1.186 s           1.187 s
  | first_order_H                              :        0.050 s           0.050 s
------------------------------------------------------------
 @@@@@@@@time for CPSCF@@@@@@@@@@@@@@@@@@   1.25853700000000     
  Time summed over all CPUs for free_atom_hessian: real work        0.000 s, elapsed        0.000 s

  Integrating first_order_rho: batch-based integration.
  Time summed over all CPUs for integration: real work        0.120 s, elapsed        0.125 s
  trans_circle_to_cubic: batch-based integration.
  Time summed over all CPUs for trans_circle_to_cubic: real work        0.001 s, elapsed        0.001 s => Consider using load balancing!

  Evaluating partitioned Hartree potential by multipole expansion.
  integrate_delta_hellman_hessian.
  Time summed over all CPUs for potential: real work        1.788 s, elapsed        1.845 s


  Evaluating partitioned Hartree potential by multipole expansion.
  integrate_delta_hellman_hessian.
  Time summed over all CPUs for potential: real work        1.775 s, elapsed        1.838 s


  Evaluating partitioned Hartree potential by multipole expansion.
  integrate_delta_hellman_hessian.
  Time summed over all CPUs for potential: real work        1.787 s, elapsed        1.889 s


  Evaluating partitioned Hartree potential by multipole expansion.
  integrate_delta_hellman_hessian.
  Time summed over all CPUs for potential: real work        1.794 s, elapsed        1.921 s


  Evaluating partitioned Hartree potential by multipole expansion.
  integrate_delta_hellman_hessian.
  Time summed over all CPUs for potential: real work        1.801 s, elapsed        1.883 s


  Evaluating partitioned Hartree potential by multipole expansion.
  integrate_delta_hellman_hessian.
  Time summed over all CPUs for potential: real work        1.800 s, elapsed        1.898 s

  Integrating first_order_rho: batch-based integration.
  Time summed over all CPUs for integration: real work        0.122 s, elapsed        0.130 s
  Integrating Pulay-Hessian: batch-based integration.
  Time summed over all CPUs for integration: real work        2.237 s, elapsed        2.237 s

                                               :  max(cpu_time)    wall_clock(cpu1)
  | Time for Hessian of this pertubation       :        1.747 s           1.748 s
===========================================================================
 
 Total_hessian(ev/Ang*Ang) in cpscf.f90:
 
 Make Acoustic sum rule in cpscf.f90:
 
 
 # output Hessian (ev/Ang*Ang), like phonopy-FHI-aims-Hessian.dat
 
 
 Get frequencies in cpscf.f90:
 Solving eigenvalue system for Dynamical Matrix
 =============================================
 DFPT-Results: for q1=  0.000000000000000E+000  0.000000000000000E+000
  0.000000000000000E+000
 =============================================
 
 List of all frequencies found:
  Mode number      Frequency [cm^(-1)]
            1           -1009.53093699
            2           -1009.53093699
            3              -0.00013204
            4              -0.00010205
            5              -0.00001101
            6            9938.51170253
  |------------------------------------------------------
  | Final ELSI Output
  |------------------------------------------------------
  |
  | Physical Properties
  |   Number of electrons       :        0.20000000E+01
  |   Number of states          :                     4
  |
  | Matrix Properties
  |   Matrix format             :           BLACS_DENSE
  |   Number of basis functions :                     4
  |
  | Computational Details
  |   Parallel mode             :           SINGLE_PROC
  |   Solver requested          :                LAPACK
  |   Number of ELSI calls      :                     0
  |
  |------------------------------------------------------
  | ELSI Project (c)  elsi-interchange.org
  |------------------------------------------------------

------------------------------------------------------------------------------
  Final output of selected total energy values:

  The following output summarizes some interesting total energy values
  at the end of a run (AFTER all relaxation, molecular dynamics, etc.).

  | Total energy of the DFT / Hartree-Fock s.c.f. calculation      :            -30.168388799 eV
  | Final zero-broadening corrected energy (caution - metals only) :            -30.168388799 eV
  | For reference only, the value of 1 Hartree used in FHI-aims is :             27.211384500 eV
  | For reference only, the overall average (free atom contribution
  | + realspace contribution) of the electrostatic potential after
  | s.c.f. convergence is                                          :             -0.022763465 eV

  Before relying on these values, please be sure to understand exactly which
  total energy value is referred to by a given number. Different objects may
  all carry the same name 'total energy'. Definitions:

  Total energy of the DFT / Hartree-Fock s.c.f. calculation:
  | Note that this energy does not include ANY quantities calculated after the
  | s.c.f. cycle, in particular not ANY RPA, MP2, etc. many-body perturbation terms.

  Final zero-broadening corrected energy:
  | For metallic systems only, a broadening of the occupation numbers at the Fermi
  | level can be extrapolated back to zero broadening by an electron-gas inspired
  | formula. For all systems that are not real metals, this value can be
  | meaningless and should be avoided.

------------------------------------------------------------------------------
  Methods described in the following list of references were used in this FHI-aims run.
  If you publish the results, please make sure to cite these reference if they apply.
  FHI-aims is an academic code, and for our developers (often, Ph.D. students
  and postdocs), scientific credit in the community is essential.
  Thank you for helping us!

  For any use of FHI-aims, please cite:

    Volker Blum, Ralf Gehrke, Felix Hanke, Paula Havu, Ville Havu,
    Xinguo Ren, Karsten Reuter, and Matthias Scheffler
    'Ab initio molecular simulations with numeric atom-centered orbitals'
    Computer Physics Communications 180, 2175-2196 (2009)
    http://dx.doi.org/10.1016/j.cpc.2009.06.022


  The provided symmetry information was generated with SPGlib:

    Atsushi Togo, Yusuke Seto, Dimitar Pashov
    SPGlib 1.7.3 obtained from http://spglib.sourceforge.net
    Copyright (C) 2008 Atsushi Togo


  The DFPT (perturbation by an atomic displacement) part of the code was used.
  Here is the corresponding reference:

    Honghui Shang, Christian Carbogno, Patrick Rinke and Matthias Scheffler
    'Lattice dynamics calculations based on density-functional
    perturbation theory in real space'
    Computer Physics Communications 215, 26-46 (2017)
    https://doi.org/10.1016/j.cpc.2017.02.001


  The ELSI infrastructure was used in your run to solve the Kohn-Sham electronic structure.
  Please check out http://elsi-interchange.org to learn more.
  If scalability is important for your project, please acknowledge ELSI by citing:

    V. W-z. Yu, F. Corsetti, A. Garcia, W. P. Huhn, M. Jacquelin, W. Jia,
    B. Lange, L. Lin, J. Lu, W. Mi, A. Seifitokaldani, A. Vazquez-Mayagoitia,
    C. Yang, H. Yang, and V. Blum
    'ELSI: A unified software interface for Kohn-Sham electronic structure solvers'
    Computer Physics Communications 222, 267-285 (2018).
    http://dx.doi.org/10.1016/j.cpc.2017.09.007


  For the real-space grid partitioning and parallelization used in this calculation, please cite:

    Ville Havu, Volker Blum, Paula Havu, and Matthias Scheffler,
    'Efficient O(N) integration for all-electron electronic structure calculation'
    'using numerically tabulated basis functions'
    Journal of Computational Physics 228, 8367-8379 (2009).
    http://dx.doi.org/10.1016/j.jcp.2009.08.008

  Of course, there are many other important community references, e.g., those cited in the
  above references. Our list is limited to references that describe implementations in the
  FHI-aims code. The reason is purely practical (length of this list) - please credit others as well.

 * A warning was issued further up regarding the CPU load.
   Some CPUs do not participate in the eigenvalue solution.
   In corner cases, this may be the correct behavior. Otherwise,
   consider using a scalapack/elpa version of the code for a parallel treatment.

------------------------------------------------------------
          Leaving FHI-aims.
          Date     :  20190817, Time     :  153120.100

          Computational steps:
          | Number of self-consistency cycles          :           11
          | Number of SCF (re)initializations          :            1

          Detailed time accounting                     :  max(cpu_time)    wall_clock(cpu1)
          | Total time                                 :        6.203 s           6.309 s
          | Preparation time                           :        0.043 s           0.043 s
          | Boundary condition initalization           :        0.049 s           0.049 s
          | Grid partitioning                          :        0.006 s           0.006 s
          | Preloading free-atom quantities on grid    :        0.001 s           0.001 s
          | Free-atom superposition energy             :        0.001 s           0.002 s
          | Total time for integrations                :        0.036 s           0.038 s
          | Transforming ovlp_3fn to ovlp_3KS          :        0.000 s           0.000 s
          | Total time for solution of K.-S. equations :        0.004 s           0.002 s
          | Total time for density & force components  :        0.036 s           0.037 s
          | Total time for mixing & preconditioning    :        0.014 s           0.014 s
          | Total time for Hartree multipole update    :        0.009 s           0.008 s
          | Total time for Hartree multipole sum       :        0.327 s           0.327 s
          | Total time for total energy evaluation     :        0.002 s           0.003 s

          Partial memory accounting:
          | Residual value for overall tracked memory usage across tasks:     0.000000 MB (should be 0.000000 MB)
          | Peak values for overall tracked memory usage:
          |   Minimum:        0.226 MB (on task 0 after allocating DFPT_pulay_mixing::initialize_pulay_mixing::residuals)
          |   Maximum:        0.226 MB (on task 1 after allocating DFPT_pulay_mixing::initialize_pulay_mixing::residuals)
          |   Average:        0.226 MB
          | Largest tracked array allocation:
          |   Minimum:        0.111 MB (DFPT_pulay_mixing::initialize_pulay_mixing::X_in on task 0)
          |   Maximum:        0.111 MB (DFPT_pulay_mixing::initialize_pulay_mixing::X_in on task 0)
          |   Average:        0.111 MB
          Note:  These values currently only include a subset of arrays which are explicitly tracked.
          The "true" memory usage will be greater.

          Have a nice day.
------------------------------------------------------------
