  MPI-parallelism will be employed.
------------------------------------------------------------
          Invoking FHI-aims ...
          Version 180101-
          Git rev. (modified): fa29f3a Merge branch master of fhiaims.rzberlin.mp[...]
          Compiled on 2018/01/19 at 14:47:46 on host theobook132.

          When using FHI-aims, please cite the following reference:

          Volker Blum, Ralf Gehrke, Felix Hanke, Paula Havu,
          Ville Havu, Xinguo Ren, Karsten Reuter, and Matthias Scheffler,
          'Ab Initio Molecular Simulations with Numeric Atom-Centered Orbitals',
          Computer Physics Communications 180, 2175-2196 (2009)

          For any questions about FHI-aims, please visit the aimsclub website
          with its forums and wiki. Contributions to both the forums and the
          wiki are warmly encouraged - they are for you, and everyone is welcome there.

------------------------------------------------------------



  Date     :  20180215, Time     :  214310.240
  Time zero on CPU 1             :   0.360000000000000E-01  s.
  Internal wall clock time zero  :           287962990.240  s.

  FHI-aims created a unique identifier for this run for later identification
  aims_uuid : 714862F9-0C05-4E7D-A407-60089A080272

  Using        8 parallel tasks.
  Task        0 on host theobook132 reporting.
  Task        1 on host theobook132 reporting.
  Task        2 on host theobook132 reporting.
  Task        3 on host theobook132 reporting.
  Task        4 on host theobook132 reporting.
  Task        5 on host theobook132 reporting.
  Task        6 on host theobook132 reporting.
  Task        7 on host theobook132 reporting.

  Performing system and environment tests:
  *** Environment variable OMP_NUM_THREADS is not set
  *** For performance reasons you might want to set it to 1
  | Stacksize not measured: no C compiler
  | Checking for scalapack...
  | No scalapack compiled in.

  Obtaining array dimensions for all initial allocations:
  
  -----------------------------------------------------------------------
  Parsing control.in (first pass over file, find array dimensions only).
  The contents of control.in will be repeated verbatim below
  unless switched off by setting 'verbatim_writeout .false.' .
  in the first line of control.in .
  -----------------------------------------------------------------------
  
  ################################################################################
  #
  #		Control.in generated by mkcontrol
  #
  ################################################################################
  xc			pbe
  vdw_correction_hirshfeld
  relativistic		none
  sc_accuracy_rho		1E-5
  sc_accuracy_eev		1E-3
  sc_accuracy_etot	1E-6
  sc_iter_limit		1000	
  
  compute_forces .true.
  final_forces_cleaned .true.
  
  ################################################################################
  #
  #  FHI-aims code project
  #  VB, Fritz-Haber Institut, 2009
  #
  #  Suggested "light" defaults for H atom (to be pasted into control.in file)
  #  Be sure to double-check any results obtained with these settings for post-processing,
  #  e.g., with the "tight" defaults and larger basis sets.
  #
  ################################################################################
    species        H
  #     global species definitions
      nucleus             1
      mass                1.00794
  #
      l_hartree           4
  #
      cut_pot             3.5  1.5  1.0
      basis_dep_cutoff    1e-4
  #
      radial_base         24 5.0
      radial_multiplier   1
      angular_grids       specified
        division   0.2421   50
        division   0.3822  110
        division   0.4799  194
        division   0.5341  302
  #      division   0.5626  434
  #      division   0.5922  590
  #      division   0.6542  770
  #      division   0.6868 1202
  #      outer_grid  770
        outer_grid  302
  ################################################################################
  #
  #  Definition of "minimal" basis
  #
  ################################################################################
  #     valence basis states
      valence      1  s   1.
  #     ion occupancy
      ion_occ      1  s   0.5
  ################################################################################
  #
  #  Suggested additional basis functions. For production calculations,
  #  uncomment them one after another (the most important basis functions are
  #  listed first).
  #
  #  Basis constructed for dimers: 0.5 A, 0.7 A, 1.0 A, 1.5 A, 2.5 A
  #
  ################################################################################
  #  "First tier" - improvements: -1014.90 meV to -62.69 meV
       hydro 2 s 2.1
       hydro 2 p 3.5
  #  "Second tier" - improvements: -12.89 meV to -1.83 meV
  #     hydro 1 s 0.85
  #     hydro 2 p 3.7
  #     hydro 2 s 1.2
  #     hydro 3 d 7
  #  "Third tier" - improvements: -0.25 meV to -0.12 meV
  #     hydro 4 f 11.2
  #     hydro 3 p 4.8
  #     hydro 4 d 9
  #     hydro 3 s 3.2
  
  ################################################################################
  #
  #  FHI-aims code project
  #  VB, Fritz-Haber Institut, 2009
  #
  #  Suggested "light" defaults for C atom (to be pasted into control.in file)
  #  Be sure to double-check any results obtained with these settings forpost-processing,
  #  e.g., with the "tight" defaults and larger basis sets.
  #
  ################################################################################
    species        C
  #     global species definitions
      nucleus             6
      mass                12.0107
  #
      l_hartree           4
  #
      cut_pot             3.5  1.5  1.0
      basis_dep_cutoff    1e-4
  #
      radial_base         34 5.0
      radial_multiplier   1
      angular_grids specified
        division   0.3326   50
        division   0.5710  110
        division   0.7727  194
        division   0.8772  302
  #      division   0.9334  434
  #      division   0.9625  590
  #      division   0.9924  770
  #      division   1.0230  974
  #      division   1.4589 1202
  #     outer_grid  974
       outer_grid 302
  ################################################################################
  #
  #  Definition of "minimal" basis
  #
  ################################################################################
  #     valence basis states
      valence      2  s   2.
      valence      2  p   2.
  #     ion occupancy
      ion_occ      2  s   1.
      ion_occ      2  p   1.
  ################################################################################
  #
  #  Suggested additional basis functions. For production calculations,
  #  uncomment them one after another (the most important basis functions are
  #  listed first).
  #
  #  Constructed for dimers: 1.0 A, 1.25 A, 1.5 A, 2.0 A, 3.0 A
  #
  ################################################################################
  #  "First tier" - improvements: -1214.57 meV to -155.61 meV
       hydro 2 p 1.7
       hydro 3 d 6
       hydro 2 s 4.9
  #  "Second tier" - improvements: -67.75 meV to -5.23 meV
  #     hydro 4 f 9.8
  #     hydro 3 p 5.2
  #     hydro 3 s 4.3
  #     hydro 5 g 14.4
  #     hydro 3 d 6.2
  #  "Third tier" - improvements: -2.43 meV to -0.60 meV
  #     hydro 2 p 5.6
  #     hydro 2 s 1.4
  #     hydro 3 d 4.9
  #     hydro 4 f 11.2
  #  "Fourth tier" - improvements: -0.39 meV to -0.18 meV
  #     hydro 2 p 2.1
  #     hydro 5 g 16.4
  #     hydro 4 d 13.2
  #     hydro 3 s 13.6
  #     hydro 4 f 17.6
  #  Further basis functions - improvements: -0.08 meV and below
  #     hydro 3 s 2
  #     hydro 3 p 6
  #     hydro 4 d 20
  
  -----------------------------------------------------------------------
  Completed first pass over input file control.in .
  -----------------------------------------------------------------------
  
  
  -----------------------------------------------------------------------
  Parsing geometry.in (first pass over file, find array dimensions only).
  The contents of geometry.in will be repeated verbatim below
  unless switched off by setting 'verbatim_writeout .false.' .
  in the first line of geometry.in .
  -----------------------------------------------------------------------
  
  #=======================================#
  # iterations/iteration0037/aims-chain-node-0.35679/geometry.in
  #=======================================#
  atom -1.5544811791274391 -1.1505867081649330 -0.0556305253826108 C
  atom -0.6704705060951465 0.0207606526888579 0.2968065051620482 C
  atom 0.6704704870843055 -0.0207605763178219 0.2968067963762994 C
  atom 1.5544811479565053 1.1505866928001454 -0.0556306177029019 C
  atom -1.1581206862943469 -1.5906933429798404 -0.9834856863446036 H
  atom -2.5691955502671568 -0.7992094008559468 -0.2827591043702034 H
  atom -1.6307602400059527 -1.9614943214350855 0.6826787123618474 H
  atom -1.1633468644688176 0.9996345942946403 0.3423896724208275 H
  atom 1.1633468951563124 -0.9996344543752841 0.3423908085405681 H
  atom 1.1581199925493630 1.5906939006286178 -0.9834852108381895 H
  atom 1.6307613371761749 1.9614939216564031 0.6826789305941151 H
  atom 2.5691951663361947 0.7992090420602463 -0.2827602808171977 H
  
  -----------------------------------------------------------------------
  Completed first pass over input file geometry.in .
  -----------------------------------------------------------------------
  

  Basic array size parameters:
  | Number of species                 :        2
  | Number of atoms                   :       12
  | Max. basis fn. angular momentum   :        2
  | Max. atomic/ionic basis occupied n:        2
  | Max. number of basis fn. types    :        2
  | Max. radial fns per species/type  :        3
  | Max. logarithmic grid size        :     1277
  | Max. radial integration grid size :       34
  | Max. angular integration grid size:      302
  | Max. angular grid division number :        8
  | Radial grid for Hartree potential :     1277
  | Number of spin channels           :        1

------------------------------------------------------------
          Reading file control.in.
------------------------------------------------------------
  XC: Using PBE gradient-corrected functionals.
  Non-relativistic treatment of kinetic energy.
  Convergence accuracy of self-consistent charge density:  0.1000E-04
  Convergence accuracy of sum of eigenvalues:  0.1000E-02
  Convergence accuracy of total energy:  0.1000E-05
  Maximum number of s.-c. iterations  :  1000
  Forces will be computed.
  Cleaning forces before final output.
 
  Reading configuration options for species H                   .
  | Found nuclear charge :   1.0000
  | Found atomic mass :    1.00794000000000      amu
  | Found l_max for Hartree potential  :   4
  | Found cutoff potl. onset [A], width [A], scale factor :    3.50000    1.50000    1.00000
  | Threshold for basis-dependent cutoff potential is   0.100000E-03
  | Found data for basic radial integration grid :    24 points, outermost radius =    5.000 A
  | Found multiplier for basic radial grid :   1
  | Found angular grid specification: user-specified.
  | Specified grid contains     5 separate shells.
  | Check grid settings after all constraints further below.
  | Found free-atom valence shell :  1 s   1.000
  | No ionic wave fns used. Skipping ion_occ.
  | Found hydrogenic basis function :  2 s   2.100
  | Found hydrogenic basis function :  2 p   3.500
  Species H                   : Missing cutoff potential type.
  Defaulting to exp(1/x)/(1-x)^2 type cutoff potential.
  Species H : No 'logarithmic' tag. Using default grid for free atom:
  | Default logarithmic grid data [bohr] : 0.1000E-03 0.1000E+03 0.1012E+01
  Species H : On-site basis accuracy parameter (for Gram-Schmidt orthonormalisation) not specified.
  Using default value basis_acc =  0.1000000E-03.
  Species H                   : Using default innermost maximum threshold i_radial=  2 for radial functions.
  Species H                   : Default cutoff onset for free atom density etc. : 0.35000000E+01 AA.
  Species H                   : Basic radial grid will be enhanced according to radial_multiplier =   1, to contain    24 grid points.
 
  Reading configuration options for species C                   .
  | Found nuclear charge :   6.0000
  | Found atomic mass :    12.0107000000000      amu
  | Found l_max for Hartree potential  :   4
  | Found cutoff potl. onset [A], width [A], scale factor :    3.50000    1.50000    1.00000
  | Threshold for basis-dependent cutoff potential is   0.100000E-03
  | Found data for basic radial integration grid :    34 points, outermost radius =    5.000 A
  | Found multiplier for basic radial grid :   1
  | Found angular grid specification: user-specified.
  | Specified grid contains     5 separate shells.
  | Check grid settings after all constraints further below.
  | Found free-atom valence shell :  2 s   2.000
  | Found free-atom valence shell :  2 p   2.000
  | No ionic wave fns used. Skipping ion_occ.
  | No ionic wave fns used. Skipping ion_occ.
  | Found hydrogenic basis function :  2 p   1.700
  | Found hydrogenic basis function :  3 d   6.000
  | Found hydrogenic basis function :  2 s   4.900
  Species C                   : Missing cutoff potential type.
  Defaulting to exp(1/x)/(1-x)^2 type cutoff potential.
  Species C : No 'logarithmic' tag. Using default grid for free atom:
  | Default logarithmic grid data [bohr] : 0.1000E-03 0.1000E+03 0.1012E+01
  Species C : On-site basis accuracy parameter (for Gram-Schmidt orthonormalisation) not specified.
  Using default value basis_acc =  0.1000000E-03.
  Species C                   : Using default innermost maximum threshold i_radial=  2 for radial functions.
  Species C                   : Default cutoff onset for free atom density etc. : 0.35000000E+01 AA.
  Species C                   : Basic radial grid will be enhanced according to radial_multiplier =   1, to contain    34 grid points.
 
  Finished reading input file 'control.in'. Consistency checks are next.
 
  MPI_IN_PLACE appears to work with this MPI implementation.
  | Keeping use_mpi_in_place .true. (see manual).
  Target number of points in a grid batch is not set. Defaulting to  100
  Method for grid partitioning is not set. Defaulting to parallel hash+maxmin partitioning.
  Batch size limit is not set. Defaulting to    200
  By default, will store active basis functions for each batch.
  If in need of memory, prune_basis_once .false. can be used to disable this option.
  communication_type for Hartree potential was not specified.
  Defaulting to calc_hartree .
  Defaulting to Pulay charge density mixer.
  Pulay mixer: Number of relevant iterations not set.
  Defaulting to    8 iterations.
  Pulay mixer: Number of initial linear mixing iterations not set.
  Defaulting to    0 iterations.
  Work space size for distributed Hartree potential not set.
  Defaulting to   0.200000E+03 MB.
  Mixing parameter for charge density mixing has not been set.
  Using default: charge_mix_param =     0.0500.
  The mixing parameter will be adjusted in iteration number     2 of the first full s.c.f. cycle only.
  Algorithm-dependent basis array size parameters:
  | n_max_pulay                         :        8
  Presetting        40 iterations before the initial mixing cycle
  is restarted anyway using the sc_init_iter criterion / keyword.
  Presetting a factor      1.000 between actual scf density residual
  and density convergence criterion sc_accuracy_rho below which sc_init_iter
  takes no effect.
  Geometry relaxation not requested: no relaxation will be performed.
  Force calculation: scf convergence accuracy of forces not set.
  Defaulting to 'sc_accuracy_forces not_checked'.
  Handling of forces: Unphysical translation and rotation will be removed from forces.
  No accuracy limit for integral partition fn. given. Defaulting to  0.1000E-14.
  No threshold value for u(r) in integrations given. Defaulting to  0.1000E-05.
  No occupation type (smearing scheme) given. Defaulting to Gaussian broadening, width =  0.1000E-01 eV.
  The width will be adjusted in iteration number     2 of the first full s.c.f. cycle only.
  S.C.F. convergence parameters will be adjusted in iteration number     2 of the first full s.c.f. cycle only.
  No accuracy for occupation numbers given. Defaulting to  0.1000E-12.
  No threshold value for occupation numbers given. Defaulting to  0.0000E+00.
  No accuracy for fermi level given. Defaulting to  0.1000E-19.
  Maximum # of iterations to find E_F not set. Defaulting to  200.
  Preferred method for the eigenvalue solver ('KS_method') not specified in 'control.in'.
  Calling BLACS routine to test compilation state
  The best choice would be 'elsi', but your version of FHI-aims is compiled without ScaLAPACK support.
  Defaulting to 'lapack_fast' instead (serial solution, time will not improve with more CPUs).
  Will not use alltoall communication since running on < 1024 CPUs.
  Threshold for basis singularities not set.
  Default threshold for basis singularities:  0.1000E-04
  partition_type (choice of integration weights) for integrals was not specified.
  | Using a version of the partition function of Stratmann and coworkers ('stratmann_smoother').
  | At each grid point, the set of atoms used to build the partition table is smoothly restricted to
  | only those atoms whose free-atom density would be non-zero at that grid point.
  Partitioning for Hartree potential was not defined. Using partition_type for integrals.
  | Adjusted default value of keyword multip_moments_threshold to:       0.10000000E-11
  | This value may affect high angular momentum components of the Hartree potential in periodic systems.
  Spin handling was not defined in control.in. Defaulting to unpolarized case.
  No q(lm)/r^(l+1) cutoff set for long-range Hartree potential.
  | Using default value of  0.100000E-09 .
  | Verify using the multipole_threshold keyword.
  Defaulting to new monopole extrapolation.
  Density update method: automatic selection selected.
------------------------------------------------------------


------------------------------------------------------------
          Reading geometry description geometry.in.
------------------------------------------------------------
  Input structure read successfully.
  The structure contains       12 atoms,  and a total of         32.000 electrons.

  Input geometry:
  | No unit cell requested.
  | Atomic structure:
  |       Atom                x [A]            y [A]            z [A]
  |    1: Species C            -1.55448118       -1.15058671       -0.05563053
  |    2: Species C            -0.67047051        0.02076065        0.29680651
  |    3: Species C             0.67047049       -0.02076058        0.29680680
  |    4: Species C             1.55448115        1.15058669       -0.05563062
  |    5: Species H            -1.15812069       -1.59069334       -0.98348569
  |    6: Species H            -2.56919555       -0.79920940       -0.28275910
  |    7: Species H            -1.63076024       -1.96149432        0.68267871
  |    8: Species H            -1.16334686        0.99963459        0.34238967
  |    9: Species H             1.16334690       -0.99963445        0.34239081
  |   10: Species H             1.15811999        1.59069390       -0.98348521
  |   11: Species H             1.63076134        1.96149392        0.68267893
  |   12: Species H             2.56919517        0.79920904       -0.28276028
  |

  | The smallest distance between any two atoms is         1.09690434 AA.
  |
  | The first atom of this pair is atom number                      2 .
  | The second atom of this pair is atom number                     8 .

  Number of empty states per atom not set in control.in - providing a guess from actual geometry.
  | Total number of empty states used during s.c.f. cycle:       24
  If you use a very high smearing, use empty_states (per atom!) in control.in to increase this value.

  Structure-dependent array size parameters: 
  | Maximum number of distinct radial functions  :        9
  | Maximum number of basis functions            :       96
  | Number of Kohn-Sham states (occupied + empty):       40
------------------------------------------------------------

------------------------------------------------------------
          Preparing all fixed parts of the calculation.
------------------------------------------------------------
  Determining machine precision:
    2.225073858507201E-308
  Setting up grids for atomic and cluster calculations.

  Creating wave function, potential, and density for free atoms.

  Species: H

  List of occupied orbitals and eigenvalues:
    n    l              occ      energy [Ha]    energy [eV]
    1    0           1.0000        -0.237589        -6.4651


  Species: C

  List of occupied orbitals and eigenvalues:
    n    l              occ      energy [Ha]    energy [eV]
    1    0           2.0000       -10.038835      -273.1706
    2    0           2.0000        -0.502696       -13.6791
    2    1           2.0000        -0.191971        -5.2238

  Creating fixed part of basis set: Ionic, confined, hydrogenic.
 
  H                    hydrogenic:
 
  List of hydrogenic basis orbitals: 
    n    l      effective z      eigenvalue [eV]  inner max. [A]     outer max. [A]     outer radius [A]   
    2    0         2.100000       -14.9728           0.193243           1.317208           4.583499
    2    1         3.500000       -41.6669           0.602369           0.602369           3.723403
 
 
  C                    hydrogenic:
 
  List of hydrogenic basis orbitals: 
    n    l      effective z      eigenvalue [eV]  inner max. [A]     outer max. [A]     outer radius [A]   
    2    1         1.700000        -9.7616           1.230570           1.230570           4.607917
    3    2         6.000000       -54.4224           0.792453           0.792453           3.883070
    2    0         4.900000       -81.6679           0.082559           0.562749           3.078220
 

  Adding cutoff potential to free-atom effective potential.
  Creating atomic-like basis functions for current effective potential.

  Species H                   :

  List of atomic basis orbitals and eigenvalues:
    n    l      energy [Ha]    energy [eV]    outer radius [A]
    1    0        -0.237589        -6.4651       4.527807


  Species C                   :

  List of atomic basis orbitals and eigenvalues:
    n    l      energy [Ha]    energy [eV]    outer radius [A]
    1    0       -10.038835      -273.1706       1.934409
    2    0        -0.502696       -13.6791       4.496620
    2    1        -0.191971        -5.2238       4.551928

  Assembling full basis from fixed parts.
  | Species H :   atomic orbital   1 s accepted.
  | Species H :    hydro orbital   2 s accepted.
  | Species H :    hydro orbital   2 p accepted.
  | Species C :   atomic orbital   1 s accepted.
  | Species C :    hydro orbital   2 s accepted.
  | Species C :   atomic orbital   2 s accepted.
  | Species C :   atomic orbital   2 p accepted.
  | Species C :    hydro orbital   2 p accepted.
  | Species C :    hydro orbital   3 d accepted.
 
  Basis size parameters after reduction:
  | Total number of radial functions:        9
  | Total number of basis functions :       96
 
  Per-task memory consumption for arrays in subroutine allocate_ext:
  |           2.209696MB.
  Testing on-site integration grid accuracy.
  |  Species  Function  <phi|h_atom|phi> (log., in eV)  <phi|h_atom|phi> (rad., in eV)
           1        1                 -6.4663192853                 -6.4651273558
           1        2                 13.7111246313                 13.7170609718
           1        3                 25.2673269279                 25.2674696378
           2        4               -273.1705927641               -273.1705631568
           2        5                -10.7109323383                -10.7107120029
           2        6                 17.4381822266                 17.4352413244
           2        7                 -5.2255326521                 -5.2270484734
           2        8                  8.6835629259                  8.6603288385
           2        9                 27.4952418996                 27.4953360207

  Preparing densities etc. for the partition functions (integrals / Hartree potential).

  Preparations completed.
  max(cpu_time)          :      0.128 s.
  Wall clock time (cpu1) :      0.130 s.
------------------------------------------------------------

------------------------------------------------------------
          Begin self-consistency loop: Initialization.

          Date     :  20180215, Time     :  214310.389
------------------------------------------------------------

  Initializing index lists of integration centers etc. from given atomic structure:
  | Number of centers in hartree potential         :        12
  | Number of centers in hartree multipole         :        12
  | Number of centers in electron density summation:        12
  | Number of centers in basis integrals           :        12
  | Number of centers in integrals                 :        12
  | Number of centers in hamiltonian               :        12
  Partitioning the integration grid into batches with parallel hashing+maxmin method.
  | Number of batches:      770
  | Maximal batch size:     175
  | Minimal batch size:      49
  | Average batch size:      79.148
  | Standard deviation of batch sizes:      21.971

  Integration load balanced across     8 MPI tasks.
  Work distribution over tasks is as follows:
  Task     0 has       7660 integration points.
  Task     1 has       7571 integration points.
  Task     2 has       7611 integration points.
  Task     3 has       7655 integration points.
  Task     4 has       7654 integration points.
  Task     5 has       7584 integration points.
  Task     6 has       7584 integration points.
  Task     7 has       7625 integration points.
  Initializing partition tables, free-atom densities, potentials, etc. across the integration grid (initialize_grid_storage).
  | initialize_grid_storage: Actual outermost partition radius vs. multipole_radius_free
  | (-- VB: in principle, multipole_radius_free should be larger, hence this output)
  | Species        1: Confinement radius =              4.999999999999999 AA, multipole_radius_free =              5.054417573612229 AA.
  | Species        1: outer_partition_radius set to              5.054417573612229 AA .
  | Species        2: Confinement radius =              4.999999999999999 AA, multipole_radius_free =              5.019602836301480 AA.
  | Species        2: outer_partition_radius set to              5.019602836301480 AA .
  | Original list of interatomic distances with          12 x         12 entries is created.
  | Net number of integration points:    60944
  | of which are non-zero points    :    52370
  Renormalizing the initial density to the exact electron count on the 3D integration grid.
  | Initial density: Formal number of electrons (from input files) :      32.0000000000
  | Integrated number of electrons on 3D grid     :      31.9998486173
  | Charge integration error                      :      -0.0001513827
  | Normalization factor for density and gradient :       1.0000047307
  Obtaining max. number of non-zero basis functions in each batch (get_n_compute_maxes).
  | Maximal number of non-zero basis functions:       96 in task     0
  | Maximal number of non-zero basis functions:       96 in task     1
  | Maximal number of non-zero basis functions:       96 in task     2
  | Maximal number of non-zero basis functions:       96 in task     3
  | Maximal number of non-zero basis functions:       96 in task     4
  | Maximal number of non-zero basis functions:       96 in task     5
  | Maximal number of non-zero basis functions:       96 in task     6
  | Maximal number of non-zero basis functions:       96 in task     7
  Selecting the method for density update.
  Loop over occupied states selected for charge density update.
  Allocating        0.031 MB for KS_eigenvector
  Integrating Hamiltonian matrix: batch-based integration.
  Time summed over all CPUs for integration: real work        1.259 s, elapsed        1.301 s
  Integrating overlap matrix.
  Time summed over all CPUs for integration: real work        0.480 s, elapsed        0.502 s

  Updating Kohn-Sham eigenvalues, eigenvectors, occupation numbers, and Fermi level.
  Solving generalized eigenproblem
  Updating Kohn-Sham eigenvalues and eigenfunctions.
  Transforming overlap matrix and checking for singularities.
  Overlap matrix is nonsingular:
  | Lowest eigenvalue:  0.340423E-02
  Solving real generalised eigenvalue problem by standard LAPACK (fast)

  Obtaining occupation numbers and chemical potential using ELSI.
  | Chemical potential (Fermi level):    -8.67128271eV
  Writing Kohn-Sham eigenvalues.

  State    Occupation    Eigenvalue [Ha]    Eigenvalue [eV]
      1       2.00000         -10.166374         -276.64112
      2       2.00000         -10.166374         -276.64112
      3       2.00000         -10.150560         -276.21080
      4       2.00000         -10.149912         -276.19315
      5       2.00000          -0.928128          -25.25566
      6       2.00000          -0.853678          -23.22975
      7       2.00000          -0.784437          -21.34561
      8       2.00000          -0.667652          -18.16775
      9       2.00000          -0.589419          -16.03891
     10       2.00000          -0.585083          -15.92093
     11       2.00000          -0.549773          -14.96009
     12       2.00000          -0.534575          -14.54652
     13       2.00000          -0.515864          -14.03736
     14       2.00000          -0.512319          -13.94092
     15       2.00000          -0.474999          -12.92538
     16       2.00000          -0.378385          -10.29639
     17       0.00000          -0.193333           -5.26085
     18       0.00000          -0.035471           -0.96522
     19       0.00000          -0.033824           -0.92039
     20       0.00000          -0.012063           -0.32825
     21       0.00000          -0.007480           -0.20355
     22       0.00000           0.011534            0.31385
     23       0.00000           0.022082            0.60089
     24       0.00000           0.047594            1.29511
     25       0.00000           0.053561            1.45746
     26       0.00000           0.058597            1.59451
     27       0.00000           0.133558            3.63430
     28       0.00000           0.177761            4.83711
     29       0.00000           0.192849            5.24770
     30       0.00000           0.202931            5.52203
     31       0.00000           0.223733            6.08810
     32       0.00000           0.234601            6.38382
     33       0.00000           0.243729            6.63220
     34       0.00000           0.265188            7.21614
     35       0.00000           0.338736            9.21747
     36       0.00000           0.363481            9.89082
     37       0.00000           0.400756           10.90511
     38       0.00000           0.427816           11.64146
     39       0.00000           0.499538           13.59311
     40       0.00000           0.515888           14.03803

  Highest occupied state (VBM) at    -10.29638982 eV
  | Occupation number:      2.00000000

  Lowest unoccupied state (CBM) at    -5.26085463 eV
  | Occupation number:      0.00000000

  Overall HOMO-LUMO gap:      5.03553519 eV.
  Calculating total energy contributions from superposition of free atom densities.

  Total energy components:
  | Sum of eigenvalues            :         -96.01506779 Ha       -2612.70292747 eV
  | XC energy correction          :         -23.65473165 Ha        -643.67799814 eV
  | XC potential correction       :          30.38617182 Ha         826.84980481 eV
  | Free-atom electrostatic energy:         -68.02973084 Ha       -1851.18316321 eV
  | Hartree energy correction     :           0.00000000 Ha           0.00000000 eV
  | vdW energy correction         :           0.00000000 Ha           0.00000000 eV
  | Entropy correction            :           0.00000000 Ha           0.00000000 eV
  | ---------------------------
  | Total energy                  :        -157.31335846 Ha       -4280.71428401 eV
  | Total energy, T -> 0          :        -157.31335846 Ha       -4280.71428401 eV  <-- do not rely on this value for anything but (periodic) metals
  | Electronic free energy        :        -157.31335846 Ha       -4280.71428401 eV

  Derived energy quantities:
  | Kinetic energy                :         154.19407885 Ha        4195.83436725 eV
  | Electrostatic energy          :        -287.85270566 Ha       -7832.87065312 eV
  | Energy correction for multipole
  | error in Hartree potential    :           0.00000000 Ha           0.00000000 eV
  | Sum of eigenvalues per atom                           :        -217.72524396 eV
  | Total energy (T->0) per atom                          :        -356.72619033 eV  <-- do not rely on this value for anything but (periodic) metals
  | Electronic free energy per atom                       :        -356.72619033 eV
  Initialize hartree_potential_storage
  Max. number of atoms included in rho_multipole:           12

  End scf initialization - timings             :  max(cpu_time)    wall_clock(cpu1)
  | Time for scf. initialization               :        0.420 s           0.425 s
  | Boundary condition initialization          :        0.004 s           0.003 s
  | Integration                                :        0.240 s           0.240 s
  | Solution of K.-S. eqns.                    :        0.012 s           0.011 s
  | Grid partitioning                          :        0.064 s           0.063 s
  | Preloading free-atom quantities on grid    :        0.004 s           0.003 s
  | Free-atom superposition energy             :        0.024 s           0.022 s
  | Total energy evaluation                    :        0.000 s           0.001 s

  Partial memory accounting:
  | Current value for overall tracked memory usage on task 0  :           0.179 MB
  | Peak value for overall tracked memory usage on task 0     :           0.585 MB after allocating wave
  | Largest tracked array allocation on task 0 so far         :           0.134 MB  when allocating H_times_psi
  Note:  These values currently only include a subset of arrays which are explicitly tracked.
  The "true" memory usage will be greater.
------------------------------------------------------------

------------------------------------------------------------
          Begin self-consistency iteration #    1

  Date     :  20180215, Time     :  214310.815
------------------------------------------------------------
  Evaluating new KS density.
  Integration grid: deviation in total charge (<rho> - N_e) =   2.131628E-14
  Pulay mixing of updated and previous charge densities.

  Evaluating partitioned Hartree potential by multipole expansion.
  | Analytical far-field extrapolation by fixed multipoles:
  | Hartree multipole sum: apparent total charge =  -0.182209E-03
  Summing up the Hartree potential.
  Time summed over all CPUs for potential: real work        1.299 s, elapsed        1.382 s
  | RMS charge density error from multipole expansion :   0.131634E-02

  Integrating Hamiltonian matrix: batch-based integration.
  Time summed over all CPUs for integration: real work        1.398 s, elapsed        1.736 s

  Updating Kohn-Sham eigenvalues, eigenvectors, occupation numbers, and Fermi level.
  Solving generalized eigenproblem
  Updating Kohn-Sham eigenvalues and eigenfunctions.
  Solving real generalised eigenvalue problem by standard LAPACK (fast)

  Obtaining occupation numbers and chemical potential using ELSI.
  | Chemical potential (Fermi level):    -8.28885988eV
  Writing Kohn-Sham eigenvalues.

  State    Occupation    Eigenvalue [Ha]    Eigenvalue [eV]
      1       2.00000         -10.131674         -275.69689
      2       2.00000         -10.131674         -275.69689
      3       2.00000         -10.121177         -275.41125
      4       2.00000         -10.120528         -275.39359
      5       2.00000          -0.907796          -24.70240
      6       2.00000          -0.834753          -22.71478
      7       2.00000          -0.765124          -20.82008
      8       2.00000          -0.651412          -17.72583
      9       2.00000          -0.570675          -15.52885
     10       2.00000          -0.567011          -15.42915
     11       2.00000          -0.533118          -14.50689
     12       2.00000          -0.518129          -14.09900
     13       2.00000          -0.497135          -13.52772
     14       2.00000          -0.495877          -13.49350
     15       2.00000          -0.458769          -12.48373
     16       2.00000          -0.361209           -9.82900
     17       0.00000          -0.177322           -4.82517
     18       0.00000          -0.024608           -0.66962
     19       0.00000          -0.023899           -0.65033
     20       0.00000          -0.003984           -0.10842
     21       0.00000           0.001735            0.04720
     22       0.00000           0.025438            0.69220
     23       0.00000           0.032309            0.87917
     24       0.00000           0.058185            1.58330
     25       0.00000           0.064461            1.75407
     26       0.00000           0.070790            1.92629
     27       0.00000           0.146136            3.97655
     28       0.00000           0.190164            5.17461
     29       0.00000           0.202375            5.50689
     30       0.00000           0.213148            5.80004
     31       0.00000           0.237525            6.46337
     32       0.00000           0.246723            6.71368
     33       0.00000           0.254166            6.91621
     34       0.00000           0.277535            7.55210
     35       0.00000           0.349929            9.52205
     36       0.00000           0.374701           10.19614
     37       0.00000           0.411487           11.19713
     38       0.00000           0.440137           11.97673
     39       0.00000           0.510983           13.90455
     40       0.00000           0.528192           14.37284

  Highest occupied state (VBM) at     -9.82900116 eV
  | Occupation number:      2.00000000

  Lowest unoccupied state (CBM) at    -4.82516941 eV
  | Occupation number:      0.00000000

  Overall HOMO-LUMO gap:      5.00383175 eV.

  Total energy components:
  | Sum of eigenvalues            :         -95.33212447 Ha       -2594.11909415 eV
  | XC energy correction          :         -23.71533692 Ha        -645.32715157 eV
  | XC potential correction       :          30.46472052 Ha         828.98722388 eV
  | Free-atom electrostatic energy:         -68.02973084 Ha       -1851.18316321 eV
  | Hartree energy correction     :          -0.65156608 Ha         -17.73001521 eV
  | vdW energy correction         :           0.00000000 Ha           0.00000000 eV
  | Entropy correction            :           0.00000000 Ha           0.00000000 eV
  | ---------------------------
  | Total energy                  :        -157.26403779 Ha       -4279.37220026 eV
  | Total energy, T -> 0          :        -157.26403779 Ha       -4279.37220026 eV  <-- do not rely on this value for anything but (periodic) metals
  | Electronic free energy        :        -157.26403779 Ha       -4279.37220026 eV

  Derived energy quantities:
  | Kinetic energy                :         154.52260811 Ha        4204.77410327 eV
  | Electrostatic energy          :        -288.07130898 Ha       -7838.81915196 eV
  | Energy correction for multipole
  | error in Hartree potential    :           0.00225565 Ha           0.06137929 eV
  | Sum of eigenvalues per atom                           :        -216.17659118 eV
  | Total energy (T->0) per atom                          :        -356.61435002 eV  <-- do not rely on this value for anything but (periodic) metals
  | Electronic free energy per atom                       :        -356.61435002 eV

  Self-consistency convergence accuracy:
  | Change of charge density      :  0.4892E+00
  | Change of sum of eigenvalues  :  0.1858E+02 eV
  | Change of total energy        :  0.1342E+01 eV

  End self-consistency iteration #     1       :  max(cpu_time)    wall_clock(cpu1)
  | Time for this iteration                    :        0.608 s           0.607 s
  | Charge density update                      :        0.176 s           0.176 s
  | Density mixing                             :        0.004 s           0.001 s
  | Hartree multipole update                   :        0.012 s           0.010 s
  | Hartree multipole summation                :        0.184 s           0.184 s
  | Integration                                :        0.232 s           0.231 s
  | Solution of K.-S. eqns.                    :        0.004 s           0.002 s
  | Total energy evaluation                    :        0.000 s           0.000 s

  Partial memory accounting:
  | Current value for overall tracked memory usage on task 0  :           0.179 MB
  | Peak value for overall tracked memory usage on task 0     :           0.717 MB after allocating gradient_basis_wave
  | Largest tracked array allocation on task 0 so far         :           0.403 MB  when allocating gradient_basis_wave
  Note:  These values currently only include a subset of arrays which are explicitly tracked.
  The "true" memory usage will be greater.
------------------------------------------------------------

------------------------------------------------------------
          Begin self-consistency iteration #    2

  Date     :  20180215, Time     :  214311.423
------------------------------------------------------------
  Evaluating new KS density.
  Integration grid: deviation in total charge (<rho> - N_e) =   1.421085E-14
  Pulay mixing of updated and previous charge densities.

  Evaluating partitioned Hartree potential by multipole expansion.
  | Analytical far-field extrapolation by fixed multipoles:
  | Hartree multipole sum: apparent total charge =  -0.453166E-03
  Summing up the Hartree potential.
  Time summed over all CPUs for potential: real work        1.275 s, elapsed        1.306 s
  | RMS charge density error from multipole expansion :   0.129742E-01

  Integrating Hamiltonian matrix: batch-based integration.
  Time summed over all CPUs for integration: real work        1.259 s, elapsed        1.394 s

  Updating Kohn-Sham eigenvalues, eigenvectors, occupation numbers, and Fermi level.
  Solving generalized eigenproblem
  Updating Kohn-Sham eigenvalues and eigenfunctions.
  Solving real generalised eigenvalue problem by standard LAPACK (fast)

  Obtaining occupation numbers and chemical potential using ELSI.
  | Chemical potential (Fermi level):    -4.98024386eV
  Highest occupied state (VBM) at     -5.96492372 eV
  | Occupation number:      2.00000000

  Lowest unoccupied state (CBM) at    -1.30323537 eV
  | Occupation number:      0.00000000

  Overall HOMO-LUMO gap:      4.66168835 eV.

  Checking to see if s.c.f. parameters should be adjusted.
  The system likely has a gap. Increased the default Pulay mixing parameter (charge_mix_param). Value:   0.200000 .
  Kept the default occupation width. Value:   0.010000 eV.

  Total energy components:
  | Sum of eigenvalues            :         -89.61516795 Ha       -2438.55279224 eV
  | XC energy correction          :         -24.27523502 Ha        -660.56275396 eV
  | XC potential correction       :          31.19006124 Ha         848.72474898 eV
  | Free-atom electrostatic energy:         -68.02973084 Ha       -1851.18316321 eV
  | Hartree energy correction     :          -6.33052855 Ha        -172.26244654 eV
  | vdW energy correction         :           0.00000000 Ha           0.00000000 eV
  | Entropy correction            :           0.00000000 Ha           0.00000000 eV
  | ---------------------------
  | Total energy                  :        -157.06060112 Ha       -4273.83640697 eV
  | Total energy, T -> 0          :        -157.06060112 Ha       -4273.83640697 eV  <-- do not rely on this value for anything but (periodic) metals
  | Electronic free energy        :        -157.06060112 Ha       -4273.83640697 eV

  Derived energy quantities:
  | Kinetic energy                :         156.95124909 Ha        4270.86078688 eV
  | Electrostatic energy          :        -289.73661520 Ha       -7884.13443989 eV
  | Energy correction for multipole
  | error in Hartree potential    :           0.02140952 Ha           0.58258265 eV
  | Sum of eigenvalues per atom                           :        -203.21273269 eV
  | Total energy (T->0) per atom                          :        -356.15303391 eV  <-- do not rely on this value for anything but (periodic) metals
  | Electronic free energy per atom                       :        -356.15303391 eV

  Self-consistency convergence accuracy:
  | Change of charge density      :  0.4501E+00
  | Change of sum of eigenvalues  :  0.1556E+03 eV
  | Change of total energy        :  0.5536E+01 eV

  End self-consistency iteration #     2       :  max(cpu_time)    wall_clock(cpu1)
  | Time for this iteration                    :        0.548 s           0.550 s
  | Charge density update                      :        0.176 s           0.174 s
  | Density mixing                             :        0.004 s           0.002 s
  | Hartree multipole update                   :        0.012 s           0.010 s
  | Hartree multipole summation                :        0.176 s           0.174 s
  | Integration                                :        0.188 s           0.186 s
  | Solution of K.-S. eqns.                    :        0.004 s           0.002 s
  | Total energy evaluation                    :        0.000 s           0.001 s

  Partial memory accounting:
  | Current value for overall tracked memory usage on task 0  :           0.180 MB
  | Peak value for overall tracked memory usage on task 0     :           0.717 MB after allocating gradient_basis_wave
  | Largest tracked array allocation on task 0 so far         :           0.403 MB  when allocating gradient_basis_wave
  Note:  These values currently only include a subset of arrays which are explicitly tracked.
  The "true" memory usage will be greater.
------------------------------------------------------------

------------------------------------------------------------
          Begin self-consistency iteration #    3

  Date     :  20180215, Time     :  214311.974
------------------------------------------------------------
  Evaluating new KS density.
  Integration grid: deviation in total charge (<rho> - N_e) =   2.131628E-14
  Pulay mixing of updated and previous charge densities.

  Evaluating partitioned Hartree potential by multipole expansion.
  | Analytical far-field extrapolation by fixed multipoles:
  | Hartree multipole sum: apparent total charge =  -0.450205E-03
  Summing up the Hartree potential.
  Time summed over all CPUs for potential: real work        1.264 s, elapsed        1.283 s
  | RMS charge density error from multipole expansion :   0.160499E-01

  Integrating Hamiltonian matrix: batch-based integration.
  Time summed over all CPUs for integration: real work        1.427 s, elapsed        2.079 s => Consider using load balancing!

  Updating Kohn-Sham eigenvalues, eigenvectors, occupation numbers, and Fermi level.
  Solving generalized eigenproblem
  Updating Kohn-Sham eigenvalues and eigenfunctions.
  Solving real generalised eigenvalue problem by standard LAPACK (fast)

  Obtaining occupation numbers and chemical potential using ELSI.
  | Chemical potential (Fermi level):    -5.36517872eV
  Highest occupied state (VBM) at     -6.62302308 eV
  | Occupation number:      2.00000000

  Lowest unoccupied state (CBM) at    -1.90272609 eV
  | Occupation number:      0.00000000

  Overall HOMO-LUMO gap:      4.72029699 eV.

  Total energy components:
  | Sum of eigenvalues            :         -90.55855119 Ha       -2464.22355617 eV
  | XC energy correction          :         -24.23043548 Ha        -659.34369643 eV
  | XC potential correction       :          31.12844647 Ha         847.04812580 eV
  | Free-atom electrostatic energy:         -68.02973084 Ha       -1851.18316321 eV
  | Hartree energy correction     :          -5.36475342 Ha        -145.98236812 eV
  | vdW energy correction         :           0.00000000 Ha           0.00000000 eV
  | Entropy correction            :           0.00000000 Ha           0.00000000 eV
  | ---------------------------
  | Total energy                  :        -157.05502446 Ha       -4273.68465811 eV
  | Total energy, T -> 0          :        -157.05502446 Ha       -4273.68465811 eV  <-- do not rely on this value for anything but (periodic) metals
  | Electronic free energy        :        -157.05502446 Ha       -4273.68465811 eV

  Derived energy quantities:
  | Kinetic energy                :         156.29141565 Ha        4252.90580522 eV
  | Electrostatic energy          :        -289.11600462 Ha       -7867.24676691 eV
  | Energy correction for multipole
  | error in Hartree potential    :           0.02585123 Ha           0.70344768 eV
  | Sum of eigenvalues per atom                           :        -205.35196301 eV
  | Total energy (T->0) per atom                          :        -356.14038818 eV  <-- do not rely on this value for anything but (periodic) metals
  | Electronic free energy per atom                       :        -356.14038818 eV

  Self-consistency convergence accuracy:
  | Change of charge density      :  0.2094E+00
  | Change of sum of eigenvalues  : -0.2567E+02 eV
  | Change of total energy        :  0.1517E+00 eV

  End self-consistency iteration #     3       :  max(cpu_time)    wall_clock(cpu1)
  | Time for this iteration                    :        0.648 s           0.650 s
  | Charge density update                      :        0.180 s           0.178 s
  | Density mixing                             :        0.004 s           0.006 s
  | Hartree multipole update                   :        0.012 s           0.010 s
  | Hartree multipole summation                :        0.172 s           0.171 s
  | Integration                                :        0.272 s           0.277 s
  | Solution of K.-S. eqns.                    :        0.004 s           0.005 s
  | Total energy evaluation                    :        0.000 s           0.001 s

  Partial memory accounting:
  | Current value for overall tracked memory usage on task 0  :           0.180 MB
  | Peak value for overall tracked memory usage on task 0     :           0.717 MB after allocating gradient_basis_wave
  | Largest tracked array allocation on task 0 so far         :           0.403 MB  when allocating gradient_basis_wave
  Note:  These values currently only include a subset of arrays which are explicitly tracked.
  The "true" memory usage will be greater.
------------------------------------------------------------

------------------------------------------------------------
          Begin self-consistency iteration #    4

  Date     :  20180215, Time     :  214312.625
------------------------------------------------------------
  Evaluating new KS density.
  Integration grid: deviation in total charge (<rho> - N_e) =  -7.105427E-15
  Pulay mixing of updated and previous charge densities.

  Evaluating partitioned Hartree potential by multipole expansion.
  | Analytical far-field extrapolation by fixed multipoles:
  | Hartree multipole sum: apparent total charge =  -0.533090E-03
  Summing up the Hartree potential.
  Time summed over all CPUs for potential: real work        1.275 s, elapsed        1.408 s
  | RMS charge density error from multipole expansion :   0.218130E-01

  Integrating Hamiltonian matrix: batch-based integration.
  Time summed over all CPUs for integration: real work        1.262 s, elapsed        1.330 s

  Updating Kohn-Sham eigenvalues, eigenvectors, occupation numbers, and Fermi level.
  Solving generalized eigenproblem
  Updating Kohn-Sham eigenvalues and eigenfunctions.
  Solving real generalised eigenvalue problem by standard LAPACK (fast)

  Obtaining occupation numbers and chemical potential using ELSI.
  | Chemical potential (Fermi level):    -4.65587553eV
  Highest occupied state (VBM) at     -5.95854164 eV
  | Occupation number:      2.00000000

  Lowest unoccupied state (CBM) at    -1.31037108 eV
  | Occupation number:      0.00000000

  Overall HOMO-LUMO gap:      4.64817056 eV.

  Total energy components:
  | Sum of eigenvalues            :         -89.62949807 Ha       -2438.94273445 eV
  | XC energy correction          :         -24.37214612 Ha        -663.19983903 eV
  | XC potential correction       :          31.30968456 Ha         851.97986520 eV
  | Free-atom electrostatic energy:         -68.02973084 Ha       -1851.18316321 eV
  | Hartree energy correction     :          -6.32256926 Ha        -172.04586329 eV
  | vdW energy correction         :           0.00000000 Ha           0.00000000 eV
  | Entropy correction            :           0.00000000 Ha           0.00000000 eV
  | ---------------------------
  | Total energy                  :        -157.04425972 Ha       -4273.39173478 eV
  | Total energy, T -> 0          :        -157.04425972 Ha       -4273.39173478 eV  <-- do not rely on this value for anything but (periodic) metals
  | Electronic free energy        :        -157.04425972 Ha       -4273.39173478 eV

  Derived energy quantities:
  | Kinetic energy                :         156.36235571 Ha        4254.83618266 eV
  | Electrostatic energy          :        -289.03446932 Ha       -7865.02807840 eV
  | Energy correction for multipole
  | error in Hartree potential    :           0.03357304 Ha           0.91356891 eV
  | Sum of eigenvalues per atom                           :        -203.24522787 eV
  | Total energy (T->0) per atom                          :        -356.11597790 eV  <-- do not rely on this value for anything but (periodic) metals
  | Electronic free energy per atom                       :        -356.11597790 eV

  Self-consistency convergence accuracy:
  | Change of charge density      :  0.1267E+00
  | Change of sum of eigenvalues  :  0.2528E+02 eV
  | Change of total energy        :  0.2929E+00 eV

  End self-consistency iteration #     4       :  max(cpu_time)    wall_clock(cpu1)
  | Time for this iteration                    :        0.604 s           0.601 s
  | Charge density update                      :        0.220 s           0.218 s
  | Density mixing                             :        0.008 s           0.005 s
  | Hartree multipole update                   :        0.012 s           0.010 s
  | Hartree multipole summation                :        0.188 s           0.188 s
  | Integration                                :        0.180 s           0.177 s
  | Solution of K.-S. eqns.                    :        0.004 s           0.002 s
  | Total energy evaluation                    :        0.004 s           0.001 s

  Partial memory accounting:
  | Current value for overall tracked memory usage on task 0  :           0.180 MB
  | Peak value for overall tracked memory usage on task 0     :           0.717 MB after allocating gradient_basis_wave
  | Largest tracked array allocation on task 0 so far         :           0.403 MB  when allocating gradient_basis_wave
  Note:  These values currently only include a subset of arrays which are explicitly tracked.
  The "true" memory usage will be greater.
------------------------------------------------------------

------------------------------------------------------------
          Begin self-consistency iteration #    5

  Date     :  20180215, Time     :  214313.227
------------------------------------------------------------
  Evaluating new KS density.
  Integration grid: deviation in total charge (<rho> - N_e) =   7.105427E-15
  Pulay mixing of updated and previous charge densities.

  Evaluating partitioned Hartree potential by multipole expansion.
  | Analytical far-field extrapolation by fixed multipoles:
  | Hartree multipole sum: apparent total charge =  -0.558403E-03
  Summing up the Hartree potential.
  Time summed over all CPUs for potential: real work        1.269 s, elapsed        1.293 s
  | RMS charge density error from multipole expansion :   0.223136E-01

  Integrating Hamiltonian matrix: batch-based integration.
  Time summed over all CPUs for integration: real work        1.275 s, elapsed        1.332 s

  Updating Kohn-Sham eigenvalues, eigenvectors, occupation numbers, and Fermi level.
  Solving generalized eigenproblem
  Updating Kohn-Sham eigenvalues and eigenfunctions.
  Solving real generalised eigenvalue problem by standard LAPACK (fast)

  Obtaining occupation numbers and chemical potential using ELSI.
  | Chemical potential (Fermi level):    -4.47523619eV
  Highest occupied state (VBM) at     -5.71837986 eV
  | Occupation number:      2.00000000

  Lowest unoccupied state (CBM) at    -1.08443966 eV
  | Occupation number:      0.00000000

  Overall HOMO-LUMO gap:      4.63394019 eV.

  Total energy components:
  | Sum of eigenvalues            :         -89.39730320 Ha       -2432.62439057 eV
  | XC energy correction          :         -24.39152136 Ha        -663.72706633 eV
  | XC potential correction       :          31.33491537 Ha         852.66643051 eV
  | Free-atom electrostatic energy:         -68.02973084 Ha       -1851.18316321 eV
  | Hartree energy correction     :          -6.55961687 Ha        -178.49625686 eV
  | vdW energy correction         :           0.00000000 Ha           0.00000000 eV
  | Entropy correction            :           0.00000000 Ha           0.00000000 eV
  | ---------------------------
  | Total energy                  :        -157.04325689 Ha       -4273.36444645 eV
  | Total energy, T -> 0          :        -157.04325689 Ha       -4273.36444645 eV  <-- do not rely on this value for anything but (periodic) metals
  | Electronic free energy        :        -157.04325689 Ha       -4273.36444645 eV

  Derived energy quantities:
  | Kinetic energy                :         156.34033949 Ha        4254.23709065 eV
  | Electrostatic energy          :        -288.99207502 Ha       -7863.87447077 eV
  | Energy correction for multipole
  | error in Hartree potential    :           0.03295184 Ha           0.89666527 eV
  | Sum of eigenvalues per atom                           :        -202.71869921 eV
  | Total energy (T->0) per atom                          :        -356.11370387 eV  <-- do not rely on this value for anything but (periodic) metals
  | Electronic free energy per atom                       :        -356.11370387 eV

  Self-consistency convergence accuracy:
  | Change of charge density      :  0.3013E-01
  | Change of sum of eigenvalues  :  0.6318E+01 eV
  | Change of total energy        :  0.2729E-01 eV

  End self-consistency iteration #     5       :  max(cpu_time)    wall_clock(cpu1)
  | Time for this iteration                    :        0.544 s           0.542 s
  | Charge density update                      :        0.168 s           0.168 s
  | Density mixing                             :        0.008 s           0.007 s
  | Hartree multipole update                   :        0.012 s           0.011 s
  | Hartree multipole summation                :        0.172 s           0.172 s
  | Integration                                :        0.176 s           0.177 s
  | Solution of K.-S. eqns.                    :        0.004 s           0.005 s
  | Total energy evaluation                    :        0.000 s           0.000 s

  Partial memory accounting:
  | Current value for overall tracked memory usage on task 0  :           0.180 MB
  | Peak value for overall tracked memory usage on task 0     :           0.718 MB after allocating gradient_basis_wave
  | Largest tracked array allocation on task 0 so far         :           0.403 MB  when allocating gradient_basis_wave
  Note:  These values currently only include a subset of arrays which are explicitly tracked.
  The "true" memory usage will be greater.
------------------------------------------------------------

------------------------------------------------------------
          Begin self-consistency iteration #    6

  Date     :  20180215, Time     :  214313.770
------------------------------------------------------------
  Evaluating new KS density.
  Integration grid: deviation in total charge (<rho> - N_e) =  -3.552714E-15
  Pulay mixing of updated and previous charge densities.

  Evaluating partitioned Hartree potential by multipole expansion.
  | Analytical far-field extrapolation by fixed multipoles:
  | Hartree multipole sum: apparent total charge =  -0.577308E-03
  Summing up the Hartree potential.
  Time summed over all CPUs for potential: real work        1.260 s, elapsed        1.297 s
  | RMS charge density error from multipole expansion :   0.226274E-01

  Integrating Hamiltonian matrix: batch-based integration.
  Time summed over all CPUs for integration: real work        1.247 s, elapsed        1.304 s

  Updating Kohn-Sham eigenvalues, eigenvectors, occupation numbers, and Fermi level.
  Solving generalized eigenproblem
  Updating Kohn-Sham eigenvalues and eigenfunctions.
  Solving real generalised eigenvalue problem by standard LAPACK (fast)

  Obtaining occupation numbers and chemical potential using ELSI.
  | Chemical potential (Fermi level):    -4.38689502eV
  Highest occupied state (VBM) at     -5.62693942 eV
  | Occupation number:      2.00000000

  Lowest unoccupied state (CBM) at    -0.99798704 eV
  | Occupation number:      0.00000000

  Overall HOMO-LUMO gap:      4.62895239 eV.

  Total energy components:
  | Sum of eigenvalues            :         -89.29267019 Ha       -2429.77718165 eV
  | XC energy correction          :         -24.40283943 Ha        -664.03504673 eV
  | XC potential correction       :          31.34960267 Ha         853.06609226 eV
  | Free-atom electrostatic energy:         -68.02973084 Ha       -1851.18316321 eV
  | Hartree energy correction     :          -6.66738396 Ha        -181.42874853 eV
  | vdW energy correction         :           0.00000000 Ha           0.00000000 eV
  | Entropy correction            :           0.00000000 Ha           0.00000000 eV
  | ---------------------------
  | Total energy                  :        -157.04302175 Ha       -4273.35804785 eV
  | Total energy, T -> 0          :        -157.04302175 Ha       -4273.35804785 eV  <-- do not rely on this value for anything but (periodic) metals
  | Electronic free energy        :        -157.04302175 Ha       -4273.35804785 eV

  Derived energy quantities:
  | Kinetic energy                :         156.29769631 Ha        4253.07671088 eV
  | Electrostatic energy          :        -288.93787863 Ha       -7862.39971200 eV
  | Energy correction for multipole
  | error in Hartree potential    :           0.03220925 Ha           0.87645831 eV
  | Sum of eigenvalues per atom                           :        -202.48143180 eV
  | Total energy (T->0) per atom                          :        -356.11317065 eV  <-- do not rely on this value for anything but (periodic) metals
  | Electronic free energy per atom                       :        -356.11317065 eV

  Self-consistency convergence accuracy:
  | Change of charge density      :  0.1571E-01
  | Change of sum of eigenvalues  :  0.2847E+01 eV
  | Change of total energy        :  0.6399E-02 eV

  End self-consistency iteration #     6       :  max(cpu_time)    wall_clock(cpu1)
  | Time for this iteration                    :        0.540 s           0.540 s
  | Charge density update                      :        0.172 s           0.171 s
  | Density mixing                             :        0.012 s           0.009 s
  | Hartree multipole update                   :        0.012 s           0.010 s
  | Hartree multipole summation                :        0.176 s           0.173 s
  | Integration                                :        0.176 s           0.173 s
  | Solution of K.-S. eqns.                    :        0.004 s           0.002 s
  | Total energy evaluation                    :        0.000 s           0.001 s

  Partial memory accounting:
  | Current value for overall tracked memory usage on task 0  :           0.180 MB
  | Peak value for overall tracked memory usage on task 0     :           0.718 MB after allocating gradient_basis_wave
  | Largest tracked array allocation on task 0 so far         :           0.403 MB  when allocating gradient_basis_wave
  Note:  These values currently only include a subset of arrays which are explicitly tracked.
  The "true" memory usage will be greater.
------------------------------------------------------------

------------------------------------------------------------
          Begin self-consistency iteration #    7

  Date     :  20180215, Time     :  214314.311
------------------------------------------------------------
  Evaluating new KS density.
  Integration grid: deviation in total charge (<rho> - N_e) =  -1.421085E-14
  Pulay mixing of updated and previous charge densities.

  Evaluating partitioned Hartree potential by multipole expansion.
  | Analytical far-field extrapolation by fixed multipoles:
  | Hartree multipole sum: apparent total charge =  -0.581273E-03
  Summing up the Hartree potential.
  Time summed over all CPUs for potential: real work        1.291 s, elapsed        1.456 s
  | RMS charge density error from multipole expansion :   0.226048E-01

  Integrating Hamiltonian matrix: batch-based integration.
  Time summed over all CPUs for integration: real work        1.296 s, elapsed        1.526 s

  Updating Kohn-Sham eigenvalues, eigenvectors, occupation numbers, and Fermi level.
  Solving generalized eigenproblem
  Updating Kohn-Sham eigenvalues and eigenfunctions.
  Solving real generalised eigenvalue problem by standard LAPACK (fast)

  Obtaining occupation numbers and chemical potential using ELSI.
  | Chemical potential (Fermi level):    -4.36423123eV
  Highest occupied state (VBM) at     -5.59572930 eV
  | Occupation number:      2.00000000

  Lowest unoccupied state (CBM) at    -0.96862042 eV
  | Occupation number:      0.00000000

  Overall HOMO-LUMO gap:      4.62710888 eV.

  Total energy components:
  | Sum of eigenvalues            :         -89.26147100 Ha       -2428.92820837 eV
  | XC energy correction          :         -24.40474443 Ha        -664.08688418 eV
  | XC potential correction       :          31.35214569 Ha         853.13529125 eV
  | Free-atom electrostatic energy:         -68.02973084 Ha       -1851.18316321 eV
  | Hartree energy correction     :          -6.69917562 Ha        -182.29384367 eV
  | vdW energy correction         :           0.00000000 Ha           0.00000000 eV
  | Entropy correction            :           0.00000000 Ha           0.00000000 eV
  | ---------------------------
  | Total energy                  :        -157.04297619 Ha       -4273.35680817 eV
  | Total energy, T -> 0          :        -157.04297619 Ha       -4273.35680817 eV  <-- do not rely on this value for anything but (periodic) metals
  | Electronic free energy        :        -157.04297619 Ha       -4273.35680817 eV

  Derived energy quantities:
  | Kinetic energy                :         156.29629257 Ha        4253.03851313 eV
  | Electrostatic energy          :        -288.93452434 Ha       -7862.30843712 eV
  | Energy correction for multipole
  | error in Hartree potential    :           0.03190315 Ha           0.86812894 eV
  | Sum of eigenvalues per atom                           :        -202.41068403 eV
  | Total energy (T->0) per atom                          :        -356.11306735 eV  <-- do not rely on this value for anything but (periodic) metals
  | Electronic free energy per atom                       :        -356.11306735 eV

  Self-consistency convergence accuracy:
  | Change of charge density      :  0.6464E-02
  | Change of sum of eigenvalues  :  0.8490E+00 eV
  | Change of total energy        :  0.1240E-02 eV

  End self-consistency iteration #     7       :  max(cpu_time)    wall_clock(cpu1)
  | Time for this iteration                    :        0.588 s           0.588 s
  | Charge density update                      :        0.168 s           0.166 s
  | Density mixing                             :        0.012 s           0.012 s
  | Hartree multipole update                   :        0.012 s           0.010 s
  | Hartree multipole summation                :        0.196 s           0.194 s
  | Integration                                :        0.204 s           0.203 s
  | Solution of K.-S. eqns.                    :        0.004 s           0.002 s
  | Total energy evaluation                    :        0.000 s           0.001 s

  Partial memory accounting:
  | Current value for overall tracked memory usage on task 0  :           0.180 MB
  | Peak value for overall tracked memory usage on task 0     :           0.718 MB after allocating gradient_basis_wave
  | Largest tracked array allocation on task 0 so far         :           0.403 MB  when allocating gradient_basis_wave
  Note:  These values currently only include a subset of arrays which are explicitly tracked.
  The "true" memory usage will be greater.
------------------------------------------------------------

------------------------------------------------------------
          Begin self-consistency iteration #    8

  Date     :  20180215, Time     :  214314.900
------------------------------------------------------------
  Evaluating new KS density.
  Integration grid: deviation in total charge (<rho> - N_e) =   7.105427E-15
  Pulay mixing of updated and previous charge densities.

  Evaluating partitioned Hartree potential by multipole expansion.
  | Analytical far-field extrapolation by fixed multipoles:
  | Hartree multipole sum: apparent total charge =  -0.589630E-03
  Summing up the Hartree potential.
  Time summed over all CPUs for potential: real work        1.260 s, elapsed        1.271 s
  | RMS charge density error from multipole expansion :   0.226460E-01

  Integrating Hamiltonian matrix: batch-based integration.
  Time summed over all CPUs for integration: real work        1.286 s, elapsed        1.495 s

  Updating Kohn-Sham eigenvalues, eigenvectors, occupation numbers, and Fermi level.
  Solving generalized eigenproblem
  Updating Kohn-Sham eigenvalues and eigenfunctions.
  Solving real generalised eigenvalue problem by standard LAPACK (fast)

  Obtaining occupation numbers and chemical potential using ELSI.
  | Chemical potential (Fermi level):    -4.31521948eV
  Highest occupied state (VBM) at     -5.53483837 eV
  | Occupation number:      2.00000000

  Lowest unoccupied state (CBM) at    -0.91291037 eV
  | Occupation number:      0.00000000

  Overall HOMO-LUMO gap:      4.62192800 eV.

  Total energy components:
  | Sum of eigenvalues            :         -89.19650576 Ha       -2427.16041433 eV
  | XC energy correction          :         -24.41104371 Ha        -664.25829635 eV
  | XC potential correction       :          31.36038745 Ha         853.35956094 eV
  | Free-atom electrostatic energy:         -68.02973084 Ha       -1851.18316321 eV
  | Hartree energy correction     :          -6.76604705 Ha        -184.11350776 eV
  | vdW energy correction         :           0.00000000 Ha           0.00000000 eV
  | Entropy correction            :           0.00000000 Ha           0.00000000 eV
  | ---------------------------
  | Total energy                  :        -157.04293990 Ha       -4273.35582072 eV
  | Total energy, T -> 0          :        -157.04293990 Ha       -4273.35582072 eV  <-- do not rely on this value for anything but (periodic) metals
  | Electronic free energy        :        -157.04293990 Ha       -4273.35582072 eV

  Derived energy quantities:
  | Kinetic energy                :         156.29943118 Ha        4253.12391889 eV
  | Electrostatic energy          :        -288.93132737 Ha       -7862.22144325 eV
  | Energy correction for multipole
  | error in Hartree potential    :           0.03150168 Ha           0.85720441 eV
  | Sum of eigenvalues per atom                           :        -202.26336786 eV
  | Total energy (T->0) per atom                          :        -356.11298506 eV  <-- do not rely on this value for anything but (periodic) metals
  | Electronic free energy per atom                       :        -356.11298506 eV

  Self-consistency convergence accuracy:
  | Change of charge density      :  0.4695E-02
  | Change of sum of eigenvalues  :  0.1768E+01 eV
  | Change of total energy        :  0.9875E-03 eV

  End self-consistency iteration #     8       :  max(cpu_time)    wall_clock(cpu1)
  | Time for this iteration                    :        0.568 s           0.565 s
  | Charge density update                      :        0.168 s           0.167 s
  | Density mixing                             :        0.012 s           0.014 s
  | Hartree multipole update                   :        0.012 s           0.011 s
  | Hartree multipole summation                :        0.172 s           0.169 s
  | Integration                                :        0.200 s           0.201 s
  | Solution of K.-S. eqns.                    :        0.004 s           0.002 s
  | Total energy evaluation                    :        0.000 s           0.001 s

  Partial memory accounting:
  | Current value for overall tracked memory usage on task 0  :           0.180 MB
  | Peak value for overall tracked memory usage on task 0     :           0.718 MB after allocating gradient_basis_wave
  | Largest tracked array allocation on task 0 so far         :           0.403 MB  when allocating gradient_basis_wave
  Note:  These values currently only include a subset of arrays which are explicitly tracked.
  The "true" memory usage will be greater.
------------------------------------------------------------

------------------------------------------------------------
          Begin self-consistency iteration #    9

  Date     :  20180215, Time     :  214315.466
------------------------------------------------------------
  Evaluating new KS density.
  Integration grid: deviation in total charge (<rho> - N_e) =  -3.552714E-15
  Pulay mixing of updated and previous charge densities.

  Evaluating partitioned Hartree potential by multipole expansion.
  | Analytical far-field extrapolation by fixed multipoles:
  | Hartree multipole sum: apparent total charge =  -0.590825E-03
  Summing up the Hartree potential.
  Time summed over all CPUs for potential: real work        1.288 s, elapsed        1.386 s
  | RMS charge density error from multipole expansion :   0.226536E-01

  Integrating Hamiltonian matrix: batch-based integration.
  Time summed over all CPUs for integration: real work        1.360 s, elapsed        1.549 s

  Updating Kohn-Sham eigenvalues, eigenvectors, occupation numbers, and Fermi level.
  Solving generalized eigenproblem
  Updating Kohn-Sham eigenvalues and eigenfunctions.
  Solving real generalised eigenvalue problem by standard LAPACK (fast)

  Obtaining occupation numbers and chemical potential using ELSI.
  | Chemical potential (Fermi level):    -4.30759404eV
  Highest occupied state (VBM) at     -5.52598963 eV
  | Occupation number:      2.00000000

  Lowest unoccupied state (CBM) at    -0.90471297 eV
  | Occupation number:      0.00000000

  Overall HOMO-LUMO gap:      4.62127666 eV.

  Total energy components:
  | Sum of eigenvalues            :         -89.18622745 Ha       -2426.88072734 eV
  | XC energy correction          :         -24.41222407 Ha        -664.29041580 eV
  | XC potential correction       :          31.36192182 Ha         853.40131342 eV
  | Free-atom electrostatic energy:         -68.02973084 Ha       -1851.18316321 eV
  | Hartree energy correction     :          -6.77668000 Ha        -184.40284519 eV
  | vdW energy correction         :           0.00000000 Ha           0.00000000 eV
  | Entropy correction            :           0.00000000 Ha           0.00000000 eV
  | ---------------------------
  | Total energy                  :        -157.04294054 Ha       -4273.35583812 eV
  | Total energy, T -> 0          :        -157.04294054 Ha       -4273.35583812 eV  <-- do not rely on this value for anything but (periodic) metals
  | Electronic free energy        :        -157.04294054 Ha       -4273.35583812 eV

  Derived energy quantities:
  | Kinetic energy                :         156.30204819 Ha        4253.19513149 eV
  | Electrostatic energy          :        -288.93276466 Ha       -7862.26055381 eV
  | Energy correction for multipole
  | error in Hartree potential    :           0.03146637 Ha           0.85624351 eV
  | Sum of eigenvalues per atom                           :        -202.24006061 eV
  | Total energy (T->0) per atom                          :        -356.11298651 eV  <-- do not rely on this value for anything but (periodic) metals
  | Electronic free energy per atom                       :        -356.11298651 eV

  Self-consistency convergence accuracy:
  | Change of charge density      :  0.6684E-03
  | Change of sum of eigenvalues  :  0.2797E+00 eV
  | Change of total energy        : -0.1740E-04 eV

  End self-consistency iteration #     9       :  max(cpu_time)    wall_clock(cpu1)
  | Time for this iteration                    :        0.616 s           0.622 s
  | Charge density update                      :        0.204 s           0.202 s
  | Density mixing                             :        0.016 s           0.015 s
  | Hartree multipole update                   :        0.016 s           0.012 s
  | Hartree multipole summation                :        0.184 s           0.185 s
  | Integration                                :        0.208 s           0.206 s
  | Solution of K.-S. eqns.                    :        0.004 s           0.002 s
  | Total energy evaluation                    :        0.000 s           0.000 s

  Partial memory accounting:
  | Current value for overall tracked memory usage on task 0  :           0.180 MB
  | Peak value for overall tracked memory usage on task 0     :           0.718 MB after allocating gradient_basis_wave
  | Largest tracked array allocation on task 0 so far         :           0.403 MB  when allocating gradient_basis_wave
  Note:  These values currently only include a subset of arrays which are explicitly tracked.
  The "true" memory usage will be greater.
------------------------------------------------------------

------------------------------------------------------------
          Begin self-consistency iteration #   10

  Date     :  20180215, Time     :  214316.089
------------------------------------------------------------
  Evaluating new KS density.
  Integration grid: deviation in total charge (<rho> - N_e) =  -7.105427E-15
  Pulay mixing of updated and previous charge densities.

  Evaluating partitioned Hartree potential by multipole expansion.
  | Analytical far-field extrapolation by fixed multipoles:
  | Hartree multipole sum: apparent total charge =  -0.590781E-03
  Summing up the Hartree potential.
  Time summed over all CPUs for potential: real work        1.284 s, elapsed        1.339 s
  | RMS charge density error from multipole expansion :   0.226540E-01

  Integrating Hamiltonian matrix: batch-based integration.
[...]
  |   Hirshfeld dipole moment :      0.08881206
  |   Hirshfeld second moments:      0.10818014      -0.00332738       0.00035382
  |                                 -0.00332738       0.09593628       0.00939650
  |                                  0.00035382       0.00939650       0.09868904
  ----------------------------------------------------------------------
  | Atom     8: H
  |   Hirshfeld charge        :      0.03725246
  |   Free atom volume        :      9.95071624
  |   Hirshfeld volume        :      6.45022887
  |   Hirshfeld dipole vector :     -0.04403161       0.07735879       0.00262488
  |   Hirshfeld dipole moment :      0.08905086
  |   Hirshfeld second moments:      0.09759045       0.00637304      -0.00158104
  |                                  0.00637304       0.09001485       0.00043166
  |                                 -0.00158104       0.00043166       0.09894071
  ----------------------------------------------------------------------
  | Atom     9: H
  |   Hirshfeld charge        :      0.03725246
  |   Free atom volume        :      9.95071624
  |   Hirshfeld volume        :      6.45022877
  |   Hirshfeld dipole vector :      0.04403162      -0.07735879       0.00262494
  |   Hirshfeld dipole moment :      0.08905086
  |   Hirshfeld second moments:      0.09759045       0.00637304       0.00158104
  |                                  0.00637304       0.09001485      -0.00043165
  |                                  0.00158104      -0.00043165       0.09894071
  ----------------------------------------------------------------------
  | Atom    10: H
  |   Hirshfeld charge        :      0.04116211
  |   Free atom volume        :      9.95071624
  |   Hirshfeld volume        :      6.26599432
  |   Hirshfeld dipole vector :     -0.02933297       0.03693392      -0.07461565
  |   Hirshfeld dipole moment :      0.08827249
  |   Hirshfeld second moments:      0.10114995      -0.00147931      -0.00516153
  |                                 -0.00147931       0.10048961       0.00919967
  |                                 -0.00516153       0.00919967       0.09365410
  ----------------------------------------------------------------------
  | Atom    11: H
  |   Hirshfeld charge        :      0.04310125
  |   Free atom volume        :      9.95071624
  |   Hirshfeld volume        :      6.16072959
  |   Hirshfeld dipole vector :      0.00774590       0.06775566       0.05689247
  |   Hirshfeld dipole moment :      0.08881206
  |   Hirshfeld second moments:      0.10818014      -0.00332740      -0.00035384
  |                                 -0.00332740       0.09593629      -0.00939650
  |                                 -0.00035384      -0.00939650       0.09868903
  ----------------------------------------------------------------------
  | Atom    12: H
  |   Hirshfeld charge        :      0.04179273
  |   Free atom volume        :      9.95071624
  |   Hirshfeld volume        :      6.07574990
  |   Hirshfeld dipole vector :      0.08261811      -0.02896428      -0.01911097
  |   Hirshfeld dipole moment :      0.08960977
  |   Hirshfeld second moments:      0.08921389       0.00373965       0.00460059
  |                                  0.00373965       0.10861825      -0.00118587
  |                                  0.00460059      -0.00118587       0.11013788
  ----------------------------------------------------------------------


  Total energy components:
  | Sum of eigenvalues            :         -89.18633054 Ha       -2426.88353238 eV
  | XC energy correction          :         -24.41228278 Ha        -664.29201312 eV
  | XC potential correction       :          31.36199543 Ha         853.40331632 eV
  | Free-atom electrostatic energy:         -68.02973084 Ha       -1851.18316321 eV
  | Hartree energy correction     :          -6.77659224 Ha        -184.40045707 eV
  | vdW energy correction         :          -0.00219363 Ha          -0.05969171 eV
  | Entropy correction            :           0.00000000 Ha           0.00000000 eV
  | ---------------------------
  | Total energy                  :        -157.04513459 Ha       -4273.41554116 eV
  | Total energy, T -> 0          :        -157.04513459 Ha       -4273.41554116 eV  <-- do not rely on this value for anything but (periodic) metals
  | Electronic free energy        :        -157.04513459 Ha       -4273.41554116 eV

  Derived energy quantities:
  | Kinetic energy                :         156.30233529 Ha        4253.20294377 eV
  | Electrostatic energy          :        -288.93299347 Ha       -7862.26678010 eV
  | Energy correction for multipole
  | error in Hartree potential    :           0.03147093 Ha           0.85636767 eV
  | Sum of eigenvalues per atom                           :        -202.24029436 eV
  | Total energy (T->0) per atom                          :        -356.11796176 eV  <-- do not rely on this value for anything but (periodic) metals
  | Electronic free energy per atom                       :        -356.11796176 eV

  atomic forces [eV/Ang]:
  -----------------------
  atom #    1
   Hellmann-Feynman              :  0.513611E-01  0.890101E-02 -0.180682E+00
   Ionic forces                  :  0.000000E+00  0.000000E+00  0.000000E+00
   Multipole                     : -0.375516E+00 -0.432870E+00 -0.139981E+00
   Pulay + GGA                   :  0.290208E+00  0.397468E+00  0.361989E+00
   Van der Waals                 : -0.102931E-02  0.392431E-02 -0.188494E-02
   ----------------------------------------------------------------
   Total forces(   1)            : -0.349767E-01 -0.225765E-01  0.394406E-01
  atom #    2
   Hellmann-Feynman              :  0.228857E+01  0.645779E+00 -0.916006E+00
   Ionic forces                  :  0.000000E+00  0.000000E+00  0.000000E+00
   Multipole                     : -0.217457E+00 -0.961314E-01  0.142427E+00
   Pulay + GGA                   : -0.206494E+01 -0.527541E+00  0.623249E+00
   Van der Waals                 : -0.380916E-02 -0.384919E-02  0.255766E-02
   ----------------------------------------------------------------
   Total forces(   2)            :  0.236663E-02  0.182574E-01 -0.147773E+00
  atom #    3
   Hellmann-Feynman              : -0.228857E+01 -0.645779E+00 -0.916006E+00
   Ionic forces                  :  0.000000E+00  0.000000E+00  0.000000E+00
   Multipole                     :  0.217457E+00  0.961316E-01  0.142427E+00
   Pulay + GGA                   :  0.206494E+01  0.527541E+00  0.623249E+00
   Van der Waals                 :  0.380918E-02  0.384921E-02  0.255767E-02
   ----------------------------------------------------------------
   Total forces(   3)            : -0.236661E-02 -0.182574E-01 -0.147772E+00
  atom #    4
   Hellmann-Feynman              : -0.513613E-01 -0.890080E-02 -0.180683E+00
   Ionic forces                  :  0.000000E+00  0.000000E+00  0.000000E+00
   Multipole                     :  0.375516E+00  0.432870E+00 -0.139981E+00
   Pulay + GGA                   : -0.290207E+00 -0.397469E+00  0.361990E+00
   Van der Waals                 :  0.102931E-02 -0.392431E-02 -0.188494E-02
   ----------------------------------------------------------------
   Total forces(   4)            :  0.349767E-01  0.225765E-01  0.394407E-01
  atom #    5
   Hellmann-Feynman              : -0.899273E-01 -0.140815E+00  0.571531E-01
   Ionic forces                  :  0.000000E+00  0.000000E+00  0.000000E+00
   Multipole                     : -0.153355E-01 -0.705392E-01 -0.950022E-01
   Pulay + GGA                   : -0.915282E-02  0.691482E-01  0.873536E-01
   Van der Waals                 : -0.314043E-02 -0.226922E-03 -0.269948E-02
   ----------------------------------------------------------------
   Total forces(   5)            : -0.117556E+00 -0.142433E+00  0.468050E-01
  atom #    6
   Hellmann-Feynman              : -0.303590E-01  0.120111E-02  0.132129E+00
   Ionic forces                  :  0.000000E+00  0.000000E+00  0.000000E+00
   Multipole                     : -0.135740E+00 -0.330216E-01 -0.485637E-01
   Pulay + GGA                   :  0.980253E-01 -0.374087E-01  0.173868E-01
   Van der Waals                 :  0.252182E-02 -0.155372E-02 -0.432424E-03
   ----------------------------------------------------------------
   Total forces(   6)            : -0.655514E-01 -0.707829E-01  0.100520E+00
  atom #    7
   Hellmann-Feynman              :  0.776634E-01  0.742540E-01  0.195033E+00
   Ionic forces                  :  0.000000E+00  0.000000E+00  0.000000E+00
   Multipole                     : -0.521306E-01 -0.110385E+00  0.419924E-01
   Pulay + GGA                   :  0.211671E-01  0.977699E-01 -0.691148E-01
   Van der Waals                 :  0.100827E-02  0.123923E-02  0.203603E-03
   ----------------------------------------------------------------
   Total forces(   7)            :  0.477082E-01  0.628777E-01  0.168115E+00
  atom #    8
   Hellmann-Feynman              : -0.424849E-02 -0.263699E-01 -0.245100E+00
   Ionic forces                  :  0.000000E+00  0.000000E+00  0.000000E+00
   Multipole                     : -0.963753E-02  0.164557E+00  0.275482E-01
   Pulay + GGA                   :  0.481450E-01 -0.965273E-01  0.927187E-02
   Van der Waals                 : -0.563810E-03 -0.243239E-02  0.225559E-02
   ----------------------------------------------------------------
   Total forces(   8)            :  0.336951E-01  0.392271E-01 -0.206024E+00
  atom #    9
   Hellmann-Feynman              :  0.424857E-02  0.263698E-01 -0.245099E+00
   Ionic forces                  :  0.000000E+00  0.000000E+00  0.000000E+00
   Multipole                     :  0.963755E-02 -0.164557E+00  0.275482E-01
   Pulay + GGA                   : -0.481450E-01  0.965273E-01  0.927175E-02
   Van der Waals                 :  0.563785E-03  0.243239E-02  0.225557E-02
   ----------------------------------------------------------------
   Total forces(   9)            : -0.336951E-01 -0.392271E-01 -0.206023E+00
  atom #   10
   Hellmann-Feynman              :  0.899269E-01  0.140815E+00  0.571534E-01
   Ionic forces                  :  0.000000E+00  0.000000E+00  0.000000E+00
   Multipole                     :  0.153355E-01  0.705393E-01 -0.950023E-01
   Pulay + GGA                   :  0.915294E-02 -0.691483E-01  0.873535E-01
   Van der Waals                 :  0.314046E-02  0.226922E-03 -0.269949E-02
   ----------------------------------------------------------------
   Total forces(  10)            :  0.117556E+00  0.142433E+00  0.468052E-01
  atom #   11
   Hellmann-Feynman              : -0.776630E-01 -0.742541E-01  0.195034E+00
   Ionic forces                  :  0.000000E+00  0.000000E+00  0.000000E+00
   Multipole                     :  0.521307E-01  0.110385E+00  0.419924E-01
   Pulay + GGA                   : -0.211673E-01 -0.977698E-01 -0.691148E-01
   Van der Waals                 : -0.100829E-02 -0.123925E-02  0.203601E-03
   ----------------------------------------------------------------
   Total forces(  11)            : -0.477080E-01 -0.628778E-01  0.168115E+00
  atom #   12
   Hellmann-Feynman              :  0.303591E-01 -0.120106E-02  0.132129E+00
   Ionic forces                  :  0.000000E+00  0.000000E+00  0.000000E+00
   Multipole                     :  0.135739E+00  0.330216E-01 -0.485638E-01
   Pulay + GGA                   : -0.980253E-01  0.374087E-01  0.173869E-01
   Van der Waals                 : -0.252182E-02  0.155372E-02 -0.432427E-03
   ----------------------------------------------------------------
   Total forces(  12)            :  0.655514E-01  0.707829E-01  0.100519E+00

  Timings for VdW correction (Tkatchenko-Scheffler 2009 or later):
  | CPU time:        0.036 s, Wall clock time:        0.039 s.
  Removing unitary transformations (pure translations, rotations) from forces on atoms.
  Atomic forces before filtering:
  | Net force on center of mass :   0.812760E-08  0.977211E-08  0.216732E-02 eV/A
  | Net torque on center of mass:  -0.328772E-08  0.461636E-08  0.341837E-02 eV
  Atomic forces after filtering:
  | Net force on center of mass :   0.669023E-16  0.223008E-16 -0.334511E-16 eV/A
  | Net torque on center of mass:  -0.383534E-16  0.000000E+00  0.118011E-16 eV

  Energy and forces in a compact form:
  | Total energy uncorrected      :         -0.427341554115699E+04 eV
  | Total energy corrected        :         -0.427341554115699E+04 eV  <-- do not rely on this value for anything but (periodic) metals
  | Electronic free energy        :         -0.427341554115699E+04 eV
  Total atomic forces (unitary forces cleaned) [eV/Ang]:
  |   1         -0.350580552725763E-01         -0.224665614489504E-01          0.392600376193883E-01
  |   2          0.236809996299528E-02          0.183048045663521E-01         -0.147953143066727E+00
  |   3         -0.236808276166342E-02         -0.183048291315478E-01         -0.147953018107878E+00
  |   4          0.350580445886182E-01          0.224665634522212E-01          0.392600501788227E-01
  |   5         -0.117668554828929E+00         -0.142351089041842E+00          0.466243956912161E-01
  |   6         -0.656079448380590E-01         -0.706011630771599E-01          0.100338956478846E+00
  |   7          0.475694168187966E-01          0.629930293661382E-01          0.167933981799887E+00
  |   8          0.337658344166900E-01          0.393093562496172E-01         -0.206204526171554E+00
  |   9         -0.337657847325419E-01         -0.393093755878877E-01         -0.206204060261431E+00
  |  10          0.117668296254723E+00          0.142351187745108E+00          0.466245672344988E-01
  |  11         -0.475692104052046E-01         -0.629931180809420E-01          0.167934137212522E+00
  |  12          0.656079407971506E-01          0.706011949888927E-01          0.100338621392410E+00

  ------------------------------------ 
  Start decomposition of the XC Energy 
  ------------------------------------ 
  X and C from original XC functional choice 
  Hartree-Fock Energy :          0.000000000 Ha              0.000000000 eV
  X Energy            :        -23.396479846 Ha           -636.650609048 eV
  C Energy            :         -1.015802929 Ha            -27.641404076 eV
  Total XC Energy     :        -24.412282775 Ha           -664.292013124 eV
  ------------------------------------ 
  LDA X and C from self-consistent density 
  X Energy LDA        :        -21.148777707 Ha           -575.487521893 eV
  C Energy LDA        :         -1.974398887 Ha            -53.726127278 eV
  ------------------------------------ 
  End decomposition of the XC Energy 
  ------------------------------------ 

------------------------------------------------------------

------------------------------------------------------------------------------
  Final output of selected total energy values:

  The following output summarizes some interesting total energy values
  at the end of a run (AFTER all relaxation, molecular dynamics, etc.).

  | Total energy of the DFT / Hartree-Fock s.c.f. calculation      :          -4273.415541157 eV
  | Final zero-broadening corrected energy (caution - metals only) :          -4273.415541157 eV
  | For reference only, the value of 1 Hartree used in FHI-aims is :             27.211384500 eV

  Before relying on these values, please be sure to understand exactly which
  total energy value is referred to by a given number. Different objects may
  all carry the same name 'total energy'. Definitions:

  Total energy of the DFT / Hartree-Fock s.c.f. calculation:
  | Note that this energy does not include ANY quantities calculated after the
  | s.c.f. cycle, in particular not ANY RPA, MP2, etc. many-body perturbation terms.

  Final zero-broadening corrected energy:
  | For metallic systems only, a broadening of the occupation numbers at the Fermi
  | level can be extrapolated back to zero broadening by an electron-gas inspired
  | formula. For all systems that are not real metals, this value can be
  | meaningless and should be avoided.

------------------------------------------------------------------------------
  Methods described in the following list of references were used in this FHI-aims run.
  If you publish the results, please make sure to cite these reference if they apply.
  FHI-aims is an academic code, and for our developers (often, Ph.D. students
  and postdocs), scientific credit in the community is essential.
  Thank you for helping us!

  For any use of FHI-aims, please cite:

    Volker Blum, Ralf Gehrke, Felix Hanke, Paula Havu, Ville Havu,
    Xinguo Ren, Karsten Reuter, and Matthias Scheffler
    'Ab initio molecular simulations with numeric atom-centered orbitals'
    Computer Physics Communications 180, 2175-2196 (2009)
    http://dx.doi.org/10.1016/j.cpc.2009.06.022


  For the real-space grid partitioning and parallelization used in this calculation, please cite:

    Ville Havu, Volker Blum, Paula Havu, and Matthias Scheffler,
    'Efficient O(N) integration for all-electron electronic structure calculation'
    'using numerically tabulated basis functions'
    Journal of Computational Physics 228, 8367-8379 (2009).
    http://dx.doi.org/10.1016/j.jcp.2009.08.008

  Of course, there are many other important community references, e.g., those cited in the
  above references. Our list is limited to references that describe implementations in the
  FHI-aims code. The reason is purely practical (length of this list) - please credit others as well.

------------------------------------------------------------
          Leaving FHI-aims.
          Date     :  20180215, Time     :  214320.428

          Computational steps:
          | Number of self-consistency cycles          :           15
          | Number of SCF (re)initializations          :            1

          Detailed time accounting                     :  max(cpu_time)    wall_clock(cpu1)
          | Total time                                 :        9.980 s          10.188 s
          | Preparation time                           :        0.128 s           0.130 s
          | Boundary condition initalization           :        0.004 s           0.003 s
          | Grid partitioning                          :        0.064 s           0.063 s
          | Preloading free-atom quantities on grid    :        0.004 s           0.003 s
          | Free-atom superposition energy             :        0.024 s           0.022 s
          | Total time for integrations                :        3.188 s           3.181 s
          | Total time for solution of K.-S. equations :        0.072 s           0.049 s
          | Total time for density & force components  :        3.108 s           3.090 s
          | Total time for mixing                      :        0.176 s           0.156 s
          | Total time for Hartree multipole update    :        0.188 s           0.166 s
          | Total time for Hartree multipole sum       :        3.144 s           3.126 s
          | Total time for total energy evaluation     :        0.008 s           0.013 s
          | Total time for vdW correction              :        0.036 s           0.039 s

          Partial memory accounting:
          | Residual value for overall tracked memory usage across tasks :           0.000 MB (should be 0.000 MB)
          | Peak values for overall tracked memory usage (after allocating hessian_basis_wave):
          |   Minimum:        1.658 MB (on task 1)
          |   Maximum:        1.658 MB (on task 1)
          |   Average:        1.658 MB
          | Largest tracked array allocation (hessian_basis_wave):
          |   Minimum:        0.806 MB (on task 1)
          |   Maximum:        0.806 MB (on task 1)
          |   Average:        0.806 MB
          Note:  These values currently only include a subset of arrays which are explicitly tracked.
          The "true" memory usage will be greater.

          Have a nice day.
------------------------------------------------------------
