  MPI-parallelism will be employed.
------------------------------------------------------------
          Invoking FHI-aims ...

          When using FHI-aims, please cite the following reference:

          Volker Blum, Ralf Gehrke, Felix Hanke, Paula Havu,
          Ville Havu, Xinguo Ren, Karsten Reuter, and Matthias Scheffler,
          'Ab Initio Molecular Simulations with Numeric Atom-Centered Orbitals',
          Computer Physics Communications 180, 2175-2196 (2009)

          For any questions about FHI-aims, please visit the aimsclub website
          with its forums and wiki. Contributions to both the forums and the
          wiki are warmly encouraged - they are for you, and everyone is welcome there.

------------------------------------------------------------



  Date     :  20190817, Time     :  153559.091
  Time zero on CPU 1             :   0.275910000000000E-01  s.
  Internal wall clock time zero  :           335288159.091  s.

  FHI-aims created a unique identifier for this run for later identification
  aims_uuid : 923C6961-F332-4BE5-AF98-F92B39E7DF77

  Build configuration of the current instance of FHI-aims
  -------------------------------------------------------
  FHI-aims version      : 190813
  Commit number         : 3da7baeb3
  CMake host system     : Linux-4.4.180-94.97-default
  CMake version         : 3.5.2
  Fortran compiler      : /mpcdf/soft/SLE_12_SP3/packages/x86_64/intel_parallel_studio/2018.4/compilers_and_libraries_2018.5.274/linux/mpi/bin64/mpiifort (Intel) version 18.0.5.20180823
  Fortran compiler flags: -O3 -ip -fp-model precise
  C compiler            : /mpcdf/soft/SLE_12_SP3/packages/skylake/intel/18.0.5/bin/icc (Intel) version 18.0.5.20180823
  C compiler flags      : -O3 -ip -fp-model precise
  Architecture          :
  Using MPI
  Using Scalapack
  Using C files
  Using SPGlib
  Using i-PI
  Linking against: /mpcdf/soft/SLE_12_SP3/packages/x86_64/anaconda/3.5.1.0/lib/libmkl_intel_lp64.so
                   /mpcdf/soft/SLE_12_SP3/packages/x86_64/anaconda/3.5.1.0/lib/libmkl_sequential.so
                   /mpcdf/soft/SLE_12_SP3/packages/x86_64/anaconda/3.5.1.0/lib/libmkl_core.so
                   /mpcdf/soft/SLE_12_SP3/packages/x86_64/anaconda/3.5.1.0/lib/libmkl_blacs_intelmpi_lp64.so
                   /mpcdf/soft/SLE_12_SP3/packages/x86_64/anaconda/3.5.1.0/lib/libmkl_scalapack_lp64.so

  Using        8 parallel tasks.
  Task        0 on host co1631 reporting.
  Task        1 on host co1631 reporting.
  Task        2 on host co1631 reporting.
  Task        3 on host co1631 reporting.
  Task        4 on host co1631 reporting.
  Task        5 on host co1631 reporting.
  Task        6 on host co1631 reporting.
  Task        7 on host co1631 reporting.

  Performing system and environment tests:
  | Environment variable OMP_NUM_THREADS correctly set to 1.
  | Maximum stacksize for task 0: unlimited
  | Maximum stacksize for task 1: unlimited
  | Maximum stacksize for task 2: unlimited
  | Maximum stacksize for task 3: unlimited
  | Maximum stacksize for task 4: unlimited
  | Maximum stacksize for task 5: unlimited
  | Maximum stacksize for task 6: unlimited
  | Maximum stacksize for task 7: unlimited
  | Current stacksize for task 0: unlimited
  | Current stacksize for task 1: unlimited
  | Current stacksize for task 2: unlimited
  | Current stacksize for task 3: unlimited
  | Current stacksize for task 4: unlimited
  | Current stacksize for task 5: unlimited
  | Current stacksize for task 6: unlimited
  | Current stacksize for task 7: unlimited
  | Checking for scalapack...
  | Testing pdtran()...
  | All pdtran() tests passed.

  Obtaining array dimensions for all initial allocations:
  
  -----------------------------------------------------------------------
  Parsing control.in (first pass over file, find array dimensions only).
  The contents of control.in will be repeated verbatim below
  unless switched off by setting 'verbatim_writeout .false.' .
  in the first line of control.in .
  -----------------------------------------------------------------------
  
  #=====================================================
  #FHI-aims file: ./control.in
  #Created using the Atomic Simulation Environment (ASE)
  #
  #List of parameters used to initialize the calculator:
  #=====================================================
  fo_dft                             fragment
  sc_accuracy_rho                    1E-4
  #KS_method                          lapack
  relativistic                       none
  xc                                 blyp
  charge                             1
  mixer                              pulay
  sc_accuracy_etot                   1E-6
  sc_accuracy_eev                    1E-2
  n_max_pulay                        10
  packed_matrix_format               none
  occupation_type                    gaussian 0.01
  default_initial_moment             1
  spin                               collinear
  charge_mix_param                   0.5
  #=======================================================
  
  ################################################################################
  #
  #  FHI-aims code project
  #  VB, Fritz-Haber Institut, 2009
  #
  #  Suggested "light" defaults for C atom (to be pasted into control.in file)
  #  Be sure to double-check any results obtained with these settings for post-processing,
  #  e.g., with the "tight" defaults and larger basis sets.
  #
  ################################################################################
    species        C
  #     global species definitions
      nucleus             6
      mass                12.0107
  #
      l_hartree           4
  #
      cut_pot             3.5  1.5  1.0
      basis_dep_cutoff    1e-4
  #
      radial_base         34 5.0
      radial_multiplier   1
      angular_grids specified
        division   0.3326   50
        division   0.5710  110
        division   0.7727  194
        division   0.8772  302
  #      division   0.9334  434
  #      division   0.9625  590
  #      division   0.9924  770
  #      division   1.0230  974
  #      division   1.4589 1202
  #     outer_grid  974
       outer_grid 302
  ################################################################################
  #
  #  Definition of "minimal" basis
  #
  ################################################################################
  #     valence basis states
      valence      2  s   2.
      valence      2  p   2.
  #     ion occupancy
      ion_occ      2  s   1.
      ion_occ      2  p   1.
  ################################################################################
  #
  #  Suggested additional basis functions. For production calculations,
  #  uncomment them one after another (the most important basis functions are
  #  listed first).
  #
  #  Constructed for dimers: 1.0 A, 1.25 A, 1.5 A, 2.0 A, 3.0 A
  #
  ################################################################################
  #  "First tier" - improvements: -1214.57 meV to -155.61 meV
       hydro 2 p 1.7
       hydro 3 d 6
       hydro 2 s 4.9
  #  "Second tier" - improvements: -67.75 meV to -5.23 meV
  #     hydro 4 f 9.8
  #     hydro 3 p 5.2
  #     hydro 3 s 4.3
  #     hydro 5 g 14.4
  #     hydro 3 d 6.2
  #  "Third tier" - improvements: -2.43 meV to -0.60 meV
  #     hydro 2 p 5.6
  #     hydro 2 s 1.4
  #     hydro 3 d 4.9
  #     hydro 4 f 11.2
  #  "Fourth tier" - improvements: -0.39 meV to -0.18 meV
  #     hydro 2 p 2.1
  #     hydro 5 g 16.4
  #     hydro 4 d 13.2
  #     hydro 3 s 13.6
  #     hydro 4 f 17.6
  #  Further basis functions - improvements: -0.08 meV and below
  #     hydro 3 s 2
  #     hydro 3 p 6
  #     hydro 4 d 20
  ################################################################################
  #
  #  FHI-aims code project
  #  VB, Fritz-Haber Institut, 2009
  #
  #  Suggested "light" defaults for H atom (to be pasted into control.in file)
  #  Be sure to double-check any results obtained with these settings for post-processing,
  #  e.g., with the "tight" defaults and larger basis sets.
  #
  ################################################################################
    species        H
  #     global species definitions
      nucleus             1
      mass                1.00794
  #
      l_hartree           4
  #
      cut_pot             3.5  1.5  1.0
      basis_dep_cutoff    1e-4
  #
      radial_base         24 5.0
      radial_multiplier   1
      angular_grids       specified
        division   0.2421   50
        division   0.3822  110
        division   0.4799  194
        division   0.5341  302
  #      division   0.5626  434
  #      division   0.5922  590
  #      division   0.6542  770
  #      division   0.6868 1202
  #      outer_grid  770
        outer_grid  302
  ################################################################################
  #
  #  Definition of "minimal" basis
  #
  ################################################################################
  #     valence basis states
      valence      1  s   1.
  #     ion occupancy
      ion_occ      1  s   0.5
  ################################################################################
  #
  #  Suggested additional basis functions. For production calculations,
  #  uncomment them one after another (the most important basis functions are
  #  listed first).
  #
  #  Basis constructed for dimers: 0.5 A, 0.7 A, 1.0 A, 1.5 A, 2.5 A
  #
  ################################################################################
  #  "First tier" - improvements: -1014.90 meV to -62.69 meV
       hydro 2 s 2.1
       hydro 2 p 3.5
  #  "Second tier" - improvements: -12.89 meV to -1.83 meV
  #     hydro 1 s 0.85
  #     hydro 2 p 3.7
  #     hydro 2 s 1.2
  #     hydro 3 d 7
  #  "Third tier" - improvements: -0.25 meV to -0.12 meV
  #     hydro 4 f 11.2
  #     hydro 3 p 4.8
  #     hydro 4 d 9
  #     hydro 3 s 3.2
  
  -----------------------------------------------------------------------
  Completed first pass over input file control.in .
  -----------------------------------------------------------------------
  
  
  -----------------------------------------------------------------------
  Parsing geometry.in (first pass over file, find array dimensions only).
  The contents of geometry.in will be repeated verbatim below
  unless switched off by setting 'verbatim_writeout .false.' .
  in the first line of geometry.in .
  -----------------------------------------------------------------------
  
  #=======================================================
  #FHI-aims file: ./geometry.in
  #Created using the Atomic Simulation Environment (ASE)
  #=======================================================
  atom 0.0000000000000000 0.0000000000000000 0.0000000000000000 C
  atom 1.3320000000000001 0.0000000000000000 0.0000000000000000 C
  atom -0.5743010000000000 0.0000000000000000 -0.9287850000000000 H
  atom -0.5743010000000000 0.0000000000000000 0.9287850000000000 H
  atom 1.9063010000000000 0.0000000000000000 0.9287850000000000 H
  atom 1.9063010000000000 0.0000000000000000 -0.9287850000000000 H
  
  -----------------------------------------------------------------------
  Completed first pass over input file geometry.in .
  -----------------------------------------------------------------------
  

  Basic array size parameters:
  | Number of species                 :        2
  | Number of atoms                   :        6
  | Max. basis fn. angular momentum   :        2
  | Max. atomic/ionic basis occupied n:        2
  | Max. number of basis fn. types    :        2
  | Max. radial fns per species/type  :        3
  | Max. logarithmic grid size        :     1277
  | Max. radial integration grid size :       34
  | Max. angular integration grid size:      302
  | Max. angular grid division number :        8
  | Radial grid for Hartree potential :     1277
  | Number of spin channels           :        2

------------------------------------------------------------
          Reading file control.in.
------------------------------------------------------------
  Convergence accuracy of self-consistent charge density:  0.1000E-03
  Non-relativistic treatment of kinetic energy.
  XC: Using BLYP functional.
  Charged system requested: Charge =   0.100000E+01.
  Using pulay charge density mixing.
  Convergence accuracy of total energy:  0.1000E-05
  Convergence accuracy of sum of eigenvalues:  0.1000E-01
  Pulay mixing - number of memorized iterations:   10
 Using packed matrix format           0
  Occupation type: Gaussian broadening, width =   0.100000E-01 eV.
  Initial spin moment per atom:   1.0000
  Spin treatment: Spin density functional theory - collinear spins.
  Charge density mixing - mixing parameter:     0.5000
 
  Reading configuration options for species C                   .
  | Found nuclear charge :   6.0000
  | Found atomic mass :    12.0107000000000      amu
  | Found l_max for Hartree potential  :   4
  | Found cutoff potl. onset [A], width [A], scale factor :    3.50000    1.50000    1.00000
  | Threshold for basis-dependent cutoff potential is   0.100000E-03
  | Found data for basic radial integration grid :    34 points, outermost radius =    5.000 A
  | Found multiplier for basic radial grid :   1
  | Found angular grid specification: user-specified.
  | Specified grid contains     5 separate shells.
  | Check grid settings after all constraints further below.
  | Found free-atom valence shell :  2 s   2.000
  | Found free-atom valence shell :  2 p   2.000
  | No ionic wave fns used. Skipping ion_occ.
  | No ionic wave fns used. Skipping ion_occ.
  | Found hydrogenic basis function :  2 p   1.700
  | Found hydrogenic basis function :  3 d   6.000
  | Found hydrogenic basis function :  2 s   4.900
  Species C                   : Missing cutoff potential type.
  Defaulting to exp(1/x)/(1-x)^2 type cutoff potential.
  Species C : No 'logarithmic' tag. Using default grid for free atom:
  | Default logarithmic grid data [bohr] : 0.1000E-03 0.1000E+03 0.1012E+01
  Species C : On-site basis accuracy parameter (for Gram-Schmidt orthonormalisation) not specified.
  Using default value basis_acc =  0.1000000E-03.
  Species C                   : Using default innermost maximum threshold i_radial=  2 for radial functions.
  Species C                   : Default cutoff onset for free atom density etc. : 0.35000000E+01 AA.
  Species C                   : Basic radial grid will be enhanced according to radial_multiplier =   1, to contain    34 grid points.
 
  Reading configuration options for species H                   .
  | Found nuclear charge :   1.0000
  | Found atomic mass :    1.00794000000000      amu
  | Found l_max for Hartree potential  :   4
  | Found cutoff potl. onset [A], width [A], scale factor :    3.50000    1.50000    1.00000
  | Threshold for basis-dependent cutoff potential is   0.100000E-03
  | Found data for basic radial integration grid :    24 points, outermost radius =    5.000 A
  | Found multiplier for basic radial grid :   1
  | Found angular grid specification: user-specified.
  | Specified grid contains     5 separate shells.
  | Check grid settings after all constraints further below.
  | Found free-atom valence shell :  1 s   1.000
  | No ionic wave fns used. Skipping ion_occ.
  | Found hydrogenic basis function :  2 s   2.100
  | Found hydrogenic basis function :  2 p   3.500
  Species H                   : Missing cutoff potential type.
  Defaulting to exp(1/x)/(1-x)^2 type cutoff potential.
  Species H : No 'logarithmic' tag. Using default grid for free atom:
  | Default logarithmic grid data [bohr] : 0.1000E-03 0.1000E+03 0.1012E+01
  Species H : On-site basis accuracy parameter (for Gram-Schmidt orthonormalisation) not specified.
  Using default value basis_acc =  0.1000000E-03.
  Species H                   : Using default innermost maximum threshold i_radial=  2 for radial functions.
  Species H                   : Default cutoff onset for free atom density etc. : 0.35000000E+01 AA.
  Species H                   : Basic radial grid will be enhanced according to radial_multiplier =   1, to contain    24 grid points.
 
  Finished reading input file 'control.in'. Consistency checks are next.
 
  MPI_IN_PLACE appears to work with this MPI implementation.
  | Keeping use_mpi_in_place .true. (see manual).
  Target number of points in a grid batch is not set. Defaulting to  100
  Method for grid partitioning is not set. Defaulting to parallel hash+maxmin partitioning.
  Batch size limit is not set. Defaulting to    200
  By default, will store active basis functions for each batch.
  If in need of memory, prune_basis_once .false. can be used to disable this option.
  communication_type for Hartree potential was not specified.
  Defaulting to calc_hartree .
  Pulay mixer: Number of initial linear mixing iterations not set.
  Defaulting to    0 iterations.
  Work space size for distributed Hartree potential not set.
  Defaulting to   0.200000E+03 MB.
  Mixing parameter for spin density mixing has not been set.
  Using charge_mix_param as default:     0.5000.
  Algorithm-dependent basis array size parameters:
  | n_max_pulay                         :       10
  Maximum number of self-consistency iterations not provided.
  Presetting  1000 iterations.
  Presetting      1001 iterations before the initial mixing cycle
  is restarted anyway using the sc_init_iter criterion / keyword.
  Presetting a factor      1.000 between actual scf density residual
  and density convergence criterion sc_accuracy_rho below which sc_init_iter
  takes no effect.
  Calculation of forces was not defined in control.in. No forces will be calculated.
  Geometry relaxation not requested: no relaxation will be performed.
  No accuracy limit for integral partition fn. given. Defaulting to  0.1000E-14.
  No threshold value for u(r) in integrations given. Defaulting to  0.1000E-05.
  No accuracy for occupation numbers given. Defaulting to  0.1000E-12.
  No threshold value for occupation numbers given. Defaulting to  0.0000E+00.
  No accuracy for fermi level given. Defaulting to  0.1000E-19.
  Maximum # of iterations to find E_F not set. Defaulting to  200.
  Preferred method for the eigenvalue solver ('KS_method') not specified in 'control.in'.
  Calling BLACS routine to test compilation state
  Since ScaLAPACK support is enabled, defaulting to ELPA (via ELSI).
  Will not use alltoall communication since running on < 1024 CPUs.
  Threshold for basis singularities not set.
  Default threshold for basis singularities:  0.1000E-04
  partition_type (choice of integration weights) for integrals was not specified.
  | Using a version of the partition function of Stratmann and coworkers ('stratmann_sparse').
  | At each grid point, the set of atoms used to build the partition table is smoothly restricted to
  | only those atoms whose free-atom density would be non-zero at that grid point.
  Partitioning for Hartree potential was not defined. Using partition_type for integrals.
  | Adjusted default value of keyword multip_moments_threshold to:       0.10000000E-11
  | This value may affect high angular momentum components of the Hartree potential in periodic systems.
  No q(lm)/r^(l+1) cutoff set for long-range Hartree potential.
  | Using default value of  0.100000E-09 .
  | Verify using the multipole_threshold keyword.
  Defaulting to new monopole extrapolation.
  Density update method: automatic selection selected.
 * Warning: If the automatic selection of the density update method selects the density matrix based update
            or split updates, a packed matrix format ("index") will be used.
  Charge integration errors on the 3D integration grid will be compensated
  by explicit normalization and distribution of residual charges.
  Use the "compensate_multipole_errors" flag to change this behaviour.
------------------------------------------------------------


------------------------------------------------------------
          Reading geometry description geometry.in.
------------------------------------------------------------
 * Warning: Initial charge and total charge of the system are inconsistent.
 * Selected charge in control.in:     1.0000* Sum of initial charges in geometry.in:     0.0000
  Input structure read successfully.
  The structure contains        6 atoms,  and a total of         15.000 electrons.

  Input geometry:
  | No unit cell requested.
  | Atomic structure:
  |       Atom                x [A]            y [A]            z [A]
  |    1: Species C             0.00000000        0.00000000        0.00000000
  |    2: Species C             1.33200000        0.00000000        0.00000000
  |    3: Species H            -0.57430100        0.00000000       -0.92878500
  |    4: Species H            -0.57430100        0.00000000        0.92878500
  |    5: Species H             1.90630100        0.00000000        0.92878500
  |    6: Species H             1.90630100        0.00000000       -0.92878500
  | The smallest distance between any two atoms is         1.09199964 AA.
  | The first atom of this pair is atom number                      2 .
  | The second atom of this pair is atom number                     5 .

  Initial moments and charges:
  |  Atom   Moment         Charge        Species
  |     1   0.100000E+01   0.000000E+00   C
  |     2   0.100000E+01   0.000000E+00   C
  |     3   0.100000E+01   0.000000E+00   H
  |     4   0.100000E+01   0.000000E+00   H
  |     5   0.100000E+01   0.000000E+00   H
  |     6   0.100000E+01   0.000000E+00   H

  Number of empty states per atom not set in control.in - providing a guess from actual geometry.
  | Total number of empty states used during s.c.f. cycle:       12
  If you use a very high smearing, use empty_states (per atom!) in control.in to increase this value.

  Structure-dependent array size parameters: 
  | Number of distinct atom types in initial rho :        2
  | Maximum number of distinct radial functions  :        9
  | Maximum number of basis functions            :       48
  | Number of Kohn-Sham states (occupied + empty):       20
------------------------------------------------------------

------------------------------------------------------------
          Preparing all fixed parts of the calculation.
------------------------------------------------------------
  Determining machine precision:
    2.225073858507201E-308
  Setting up grids for atomic and cluster calculations.

  Creating wave function, potential, and density for free atoms.

  Species: C

  List of occupied orbitals and eigenvalues:
    n    l              occ      energy [Ha]    energy [eV]
    1    0           2.0000       -10.059074      -273.7213
    2    0           2.0000        -0.497403       -13.5350
    2    1           2.0000        -0.190064        -5.1719


  Species: H

  List of occupied orbitals and eigenvalues:
    n    l              occ      energy [Ha]    energy [eV]
    1    0           1.0000        -0.238986        -6.5031

  Spin-polarized or charged system:
  Charge density initialized according to selected moments and charges.

  Creating spin-polarized density from free atoms.

  Species: C
  Charge:   0.000000
  Moment:   1.000000

  List of occupied orbitals and eigenvalues:
    n    l      energy [Ha]    energy [eV]    occupation
  Spin-up
    1    0       -10.044099      -273.3138     1.00000000
    2    0        -0.512498       -13.9458     1.00000000
    2    1        -0.202304        -5.5050     1.50000000
  Spin-down
    1    0       -10.025503      -272.8078     1.00000000
    2    0        -0.456039       -12.4094     1.00000000
    2    1        -0.151306        -4.1172     0.50000000


  Species: H
  Charge:   0.000000
  Moment:   1.000000

  List of occupied orbitals and eigenvalues:
    n    l      energy [Ha]    energy [eV]    occupation
  Spin-up
    1    0        -0.271617        -7.3911     1.00000000
  Spin-down
    1    0         0.010749         0.2925     0.00000000

  Creating fixed part of basis set: Ionic, confined, hydrogenic.
 
  C                    hydrogenic:
 
  List of hydrogenic basis orbitals: 
    n    l      effective z      eigenvalue [eV]  inner max. [A]     outer max. [A]     outer radius [A]   
    2    1         1.700000        -9.7616           1.230570           1.230570           4.607917
    3    2         6.000000       -54.4224           0.792453           0.792453           3.883070
    2    0         4.900000       -81.6679           0.082559           0.562749           3.078220
 
 
  H                    hydrogenic:
 
  List of hydrogenic basis orbitals: 
    n    l      effective z      eigenvalue [eV]  inner max. [A]     outer max. [A]     outer radius [A]   
    2    0         2.100000       -14.9728           0.193243           1.317208           4.583499
    2    1         3.500000       -41.6669           0.602369           0.602369           3.723403
 

  Adding cutoff potential to free-atom effective potential.
  Creating atomic-like basis functions for current effective potential.

  Species C                   :

  List of atomic basis orbitals and eigenvalues:
    n    l      energy [Ha]    energy [eV]    outer radius [A]
    1    0       -10.059074      -273.7213       1.934409
    2    0        -0.497403       -13.5350       4.496620
    2    1        -0.190064        -5.1719       4.551928


  Species H                   :

  List of atomic basis orbitals and eigenvalues:
    n    l      energy [Ha]    energy [eV]    outer radius [A]
    1    0        -0.238986        -6.5031       4.527807

  Assembling full basis from fixed parts.
  | Species C :   atomic orbital   1 s accepted.
  | Species C :    hydro orbital   2 s accepted.
  | Species C :   atomic orbital   2 s accepted.
  | Species C :   atomic orbital   2 p accepted.
  | Species C :    hydro orbital   2 p accepted.
  | Species C :    hydro orbital   3 d accepted.
  | Species H :   atomic orbital   1 s accepted.
  | Species H :    hydro orbital   2 s accepted.
  | Species H :    hydro orbital   2 p accepted.
 
  Basis size parameters after reduction:
  | Total number of radial functions:        9
  | Total number of basis functions :       48
 
  Per-task memory consumption for arrays in subroutine allocate_ext:
  |           2.208472MB.
  Testing on-site integration grid accuracy.
  |  Species  Function  <phi|h_atom|phi> (log., in eV)  <phi|h_atom|phi> (rad., in eV)
           1        1               -273.7213210004               -273.7212876255
           1        2                -10.6053284287                -10.6054495351
           1        3                 17.0293579067                 17.0255083670
           1        4                 -5.1737559347                 -5.1753546213
           1        5                  8.7489378160                  8.7261914901
           1        6                 27.7012746399                 27.7012884208
           2        7                 -6.5043476601                 -6.5031260092
           2        8                 13.5140490794                 13.5199100086
           2        9                 25.3329411271                 25.3330836091

  Preparing densities etc. for the partition functions (integrals / Hartree potential).

  Preparations completed.
  max(cpu_time)          :      0.188 s.
  Wall clock time (cpu1) :      0.219 s.
------------------------------------------------------------

------------------------------------------------------------
          Begin self-consistency loop: Initialization.

          Date     :  20190817, Time     :  153559.383
------------------------------------------------------------

  Initializing index lists of integration centers etc. from given atomic structure:
  | Number of centers in hartree potential         :         6
  | Number of centers in hartree multipole         :         6
  | Number of centers in electron density summation:         6
  | Number of centers in basis integrals           :         6
  | Number of centers in integrals                 :         6
  | Number of centers in hamiltonian               :         6
  * Using 8 tasks for Scalapack Eigenvalue solver.
  Detailed listing of tasks and assigned k-points:
  (for non-periodic systems, the "k-point" denotes an internal label only)
   Task     0 k-point     1 on co1631
   Task     1 k-point     1 on co1631
   Task     2 k-point     1 on co1631
   Task     3 k-point     1 on co1631
   Task     4 k-point     1 on co1631
   Task     5 k-point     1 on co1631
   Task     6 k-point     1 on co1631
   Task     7 k-point     1 on co1631
  Tasks:     8 split into      4 X      2 BLACS grid
  Calculating block size based on n_basis =           48  max_nprow =            4  max_npcol =            2
  ScaLAPACK block size set to:            8
  Allocating        0.003 MB for ovlp
  Allocating        0.006 MB for ham
  Allocating        0.006 MB for eigenvec
  Required Scalapack workspace - INTEGER:            1  REAL:             1
  Partitioning the integration grid into batches with parallel hashing+maxmin method.
  | Number of batches:      495
  | Maximal batch size:     131
  | Minimal batch size:      51
  | Average batch size:      61.560
  | Standard deviation of batch sizes:      11.739

  Integration load balanced across     8 MPI tasks.
  Work distribution over tasks is as follows:
  Task     0 has       3810 integration points.
  Task     1 has       3797 integration points.
  Task     2 has       3822 integration points.
  Task     3 has       3795 integration points.
  Task     4 has       3813 integration points.
  Task     5 has       3827 integration points.
  Task     6 has       3831 integration points.
  Task     7 has       3777 integration points.
  Initializing partition tables, free-atom densities, potentials, etc. across the integration grid (initialize_grid_storage).
  | initialize_grid_storage: Actual outermost partition radius vs. multipole_radius_free
  | (-- VB: in principle, multipole_radius_free should be larger, hence this output)
  | Species        1: Confinement radius =              4.999999999999999 AA, multipole_radius_free =              5.019602836301480 AA.
  | Species        1: outer_partition_radius set to              5.019602836301480 AA .
  | Species        2: Confinement radius =              4.999999999999999 AA, multipole_radius_free =              5.054417573612229 AA.
  | Species        2: outer_partition_radius set to              5.054417573612229 AA .
  | The sparse table of interatomic distances needs          0.39 kbyte instead of         0.29 kbyte of memory.
  | Using the partition_type stratmann_smoother will reduce your memory usage.
  | Net number of integration points:    30472
  | of which are non-zero points    :    26998
  Renormalizing the initial density to the exact electron count on the 3D integration grid.
  | Initial density: Formal number of electrons (from input files) :      16.0000000000
  | Integrated number of electrons on 3D grid     :      15.9999198481
  | Charge integration error                      :      -0.0000801519
  | Normalization factor for density and gradient :       1.0000050095
  Renormalizing the free-atom superposition density to the exact electron count on the 3D integration grid.
  | Formal number of electrons (from input files) :      15.0000000000
  | Integrated number of electrons on 3D grid     :      15.9999035725
  | Charge integration error                      :      -0.0000964275
  | Normalization factor for density and gradient :       1.0000060268
  Obtaining max. number of non-zero basis functions in each batch (get_n_compute_maxes).
  | Maximal number of non-zero basis functions:       48 in task     0
  | Maximal number of non-zero basis functions:       48 in task     1
  | Maximal number of non-zero basis functions:       48 in task     2
  | Maximal number of non-zero basis functions:       48 in task     3
  | Maximal number of non-zero basis functions:       48 in task     4
  | Maximal number of non-zero basis functions:       48 in task     5
  | Maximal number of non-zero basis functions:       48 in task     6
  | Maximal number of non-zero basis functions:       48 in task     7
  Selecting the method for density update.
  Loop over occupied states selected for charge density update.
  Allocating        0.015 MB for KS_eigenvector
  Integrating Hamiltonian matrix: batch-based integration.
  Time summed over all CPUs for integration: real work        0.395 s, elapsed        0.439 s
  Integrating overlap matrix.
  Time summed over all CPUs for integration: real work        0.037 s, elapsed        0.039 s
  Deallocating overlap matrix.

  Updating Kohn-Sham eigenvalues and eigenvectors using ELSI and the ELPA eigensolver.
  Overlap matrix is not singular
  | Lowest and highest eigenvalues :  0.3284E-02,  0.3977E+01
  Finished singularity check of overlap matrix
  | Time :     0.014 s
  Starting ELPA eigensolver
  Finished Cholesky decomposition
  | Time :     0.001 s
  Finished transformation to standard eigenproblem
  | Time :     0.018 s
  Finished solving standard eigenproblem
  | Time :     0.000 s
  Finished back-transformation of eigenvectors
  | Time :     0.001 s
  Starting ELPA eigensolver
  Finished transformation to standard eigenproblem
  | Time :     0.000 s
  Finished solving standard eigenproblem
  | Time :     0.001 s
  Finished back-transformation of eigenvectors
  | Time :     0.000 s

  Obtaining occupation numbers and chemical potential using ELSI.
  | Chemical potential (Fermi level):   -10.24783257 eV
  Writing Kohn-Sham eigenvalues.

  Spin-up eigenvalues:

  State    Occupation    Eigenvalue [Ha]    Eigenvalue [eV]
      1       1.00000         -10.189293         -277.26478
      2       1.00000         -10.188586         -277.24554
      3       1.00000          -0.924252          -25.15017
      4       1.00000          -0.734524          -19.98740
      5       1.00000          -0.637203          -17.33917
      6       1.00000          -0.609987          -16.59859
      7       1.00000          -0.529238          -14.40129
      8       1.00000          -0.432259          -11.76237
      9       0.00000          -0.211793           -5.76318
     10       0.00000          -0.045299           -1.23264
     11       0.00000          -0.036324           -0.98842
     12       0.00000          -0.009253           -0.25180
     13       0.00000           0.088521            2.40879
     14       0.00000           0.140733            3.82955
     15       0.00000           0.183456            4.99208
     16       0.00000           0.199544            5.42986
     17       0.00000           0.217995            5.93193
     18       0.00000           0.289688            7.88281
     19       0.00000           0.314510            8.55827
     20       0.00000           0.362047            9.85180

  Spin-down eigenvalues:

  State    Occupation    Eigenvalue [Ha]    Eigenvalue [eV]
      1       1.00000         -10.172679         -276.81269
      2       1.00000         -10.171988         -276.79386
      3       1.00000          -0.845105          -22.99647
      4       1.00000          -0.618027          -16.81737
      5       1.00000          -0.520917          -14.17487
      6       1.00000          -0.503209          -13.69301
      7       1.00000          -0.382798          -10.41647
      8       0.00000          -0.373380          -10.16018
      9       0.00000          -0.149841           -4.07737
     10       0.00000           0.031232            0.84987
     11       0.00000           0.055649            1.51428
     12       0.00000           0.070190            1.90996
     13       0.00000           0.168797            4.59320
     14       0.00000           0.217870            5.92853
     15       0.00000           0.227719            6.19654
     16       0.00000           0.229563            6.24673
     17       0.00000           0.296922            8.07966
     18       0.00000           0.397471           10.81573
     19       0.00000           0.401505           10.92551
     20       0.00000           0.426868           11.61568

  Current spin moment of the entire structure :
  | N = N_up - N_down :    1.00
  | S                 :    0.50
  | J                 :    2.00

  Highest occupied state (VBM) at    -10.41646726 eV
  | Occupation number:      1.00000000
  | Spin channel:        2

  Lowest unoccupied state (CBM) at   -10.16018348 eV
  | Occupation number:      0.00000000
  | Spin channel:        2

  Overall HOMO-LUMO gap:      0.25628379 eV.
  Calculating total energy contributions from superposition of free atom densities.

  Total energy components:
  | Sum of eigenvalues            :         -47.46006430 Ha       -1291.45405806 eV
  | XC energy correction          :         -12.06746696 Ha        -328.37248329 eV
  | XC potential correction       :          15.45006055 Ha         420.41753820 eV
  | Free-atom electrostatic energy:         -34.09718266 Ha        -927.83154760 eV
  | Hartree energy correction     :           0.00000000 Ha           0.00000000 eV
  | Entropy correction            :          -0.00000000 Ha          -0.00000000 eV
  | ---------------------------
  | Total energy                  :         -78.17465336 Ha       -2127.24055075 eV
  | Total energy, T -> 0          :         -78.17465336 Ha       -2127.24055075 eV  <-- do not rely on this value for anything but (periodic) metals
  | Electronic free energy        :         -78.17465336 Ha       -2127.24055075 eV

  Derived energy quantities:
  | Kinetic energy                :          77.88448418 Ha        2119.34464574 eV
  | Electrostatic energy          :        -143.99167059 Ha       -3918.21271320 eV
  | Energy correction for multipole
  | error in Hartree potential    :           0.00000000 Ha           0.00000000 eV
  | Sum of eigenvalues per atom                           :        -215.24234301 eV
  | Total energy (T->0) per atom                          :        -354.54009179 eV  <-- do not rely on this value for anything but (periodic) metals
  | Electronic free energy per atom                       :        -354.54009179 eV
  Initialize hartree_potential_storage
  Max. number of atoms included in rho_multipole:            6

  End scf initialization - timings             :  max(cpu_time)    wall_clock(cpu1)
  | Time for scf. initialization               :        0.075 s           0.125 s
  | Boundary condition initialization          :        0.000 s           0.000 s
  | Integration                                :        0.028 s           0.060 s
  | Solution of K.-S. eqns.                    :        0.019 s           0.036 s
  | Grid partitioning                          :        0.008 s           0.008 s
  | Preloading free-atom quantities on grid    :        0.002 s           0.003 s
  | Free-atom superposition energy             :        0.006 s           0.006 s
  | Total energy evaluation                    :        0.000 s           0.000 s

  Partial memory accounting:
  | Current value for overall tracked memory usage:
  |   Minimum:        0.040 MB (on task 4)
  |   Maximum:        0.048 MB (on task 0)
  |   Average:        0.044 MB
  | Peak value for overall tracked memory usage:
  |   Minimum:        0.308 MB (on task 4 after allocating wave)
  |   Maximum:        0.315 MB (on task 0 after allocating wave)
  |   Average:        0.311 MB
  | Largest tracked array allocation so far:
  |   Minimum:        0.096 MB (H_times_psi on task 2)
  |   Maximum:        0.097 MB (H_times_psi on task 0)
  |   Average:        0.096 MB
  Note:  These values currently only include a subset of arrays which are explicitly tracked.
  The "true" memory usage will be greater.
------------------------------------------------------------

------------------------------------------------------------
          Begin self-consistency iteration #    1

  Date     :  20190817, Time     :  153559.508
------------------------------------------------------------
  Evaluating new KS density.
  Integration grid: deviation in total charge (<rho> - N_e) =  -1.776357E-15
  | <rho_up-rho_dn> = N_up-N_dn =      1.0000; <|rho_up-rho_dn|> =      1.1487
  Pulay mixing of updated and previous charge densities.
  Renormalizing the density to the exact electron count on the 3D integration grid.
  | Formal number of electrons (from input files) :      15.0000000000
  | Integrated number of electrons on 3D grid     :      15.5000000000
  | Charge integration error                      :       0.5000000000
  | Normalization factor for density and gradient :       0.9677419355
  * The proposed renormalization factor deviates too far from 1.
  * Since the initial charge in geometry.in was not equal to the formal charge,
  * it is not yet safe to renormalize the charge. If this message persists
  * even in the final s.c.f. cycle, your integration accuracy may not be good enough.

  Evaluating partitioned Hartree potential by multipole expansion.
  | Original multipole sum: apparent total charge =   0.500000E+00
  | Sum of charges compensated after spline to logarithmic grids =   0.324002E-03
  | Analytical far-field extrapolation by fixed multipoles:
  | Hartree multipole sum: apparent total charge =   0.500000E+00
  Summing up the Hartree potential.
  Time summed over all CPUs for potential: real work        0.079 s, elapsed        0.087 s
  | RMS charge density error from multipole expansion :   0.116521E-01

  Integrating Hamiltonian matrix: batch-based integration.
  Time summed over all CPUs for integration: real work        0.119 s, elapsed        0.123 s

  Updating Kohn-Sham eigenvalues and eigenvectors using ELSI and the ELPA eigensolver.
  Starting ELPA eigensolver
  Finished transformation to standard eigenproblem
  | Time :     0.000 s
  Finished solving standard eigenproblem
  | Time :     0.001 s
  Finished back-transformation of eigenvectors
  | Time :     0.000 s
  Starting ELPA eigensolver
  Finished transformation to standard eigenproblem
  | Time :     0.000 s
  Finished solving standard eigenproblem
  | Time :     0.001 s
  Finished back-transformation of eigenvectors
  | Time :     0.000 s

  Obtaining occupation numbers and chemical potential using ELSI.
  | Chemical potential (Fermi level):   -11.66668816 eV
  Writing Kohn-Sham eigenvalues.

  Spin-up eigenvalues:

  State    Occupation    Eigenvalue [Ha]    Eigenvalue [eV]
      1       1.00000         -10.128801         -275.61870
      2       1.00000         -10.128088         -275.59930
      3       1.00000          -0.929601          -25.29574
      4       1.00000          -0.743970          -20.24447
      5       1.00000          -0.646342          -17.58787
      6       1.00000          -0.608731          -16.56442
      7       1.00000          -0.539018          -14.66742
      8       1.00000          -0.470785          -12.81070
      9       0.00000          -0.247020           -6.72175
     10       0.00000          -0.089440           -2.43379
     11       0.00000          -0.083882           -2.28255
     12       0.00000          -0.059610           -1.62207
     13       0.00000           0.049917            1.35830
     14       0.00000           0.101948            2.77414
     15       0.00000           0.130306            3.54582
     16       0.00000           0.139266            3.78962
     17       0.00000           0.165061            4.49155
     18       0.00000           0.243567            6.62779
     19       0.00000           0.287376            7.81991
     20       0.00000           0.315001            8.57161

  Spin-down eigenvalues:

  State    Occupation    Eigenvalue [Ha]    Eigenvalue [eV]
      1       1.00000         -10.118173         -275.32950
      2       1.00000         -10.117468         -275.31032
      3       1.00000          -0.878757          -23.91219
      4       1.00000          -0.680229          -18.50996
      5       1.00000          -0.585543          -15.93345
      6       1.00000          -0.552273          -15.02811
      7       1.00000          -0.463141          -12.60271
      8       0.00000          -0.414933          -11.29091
      9       0.00000          -0.193434           -5.26361
     10       0.00000          -0.054387           -1.47993
     11       0.00000          -0.033098           -0.90065
     12       0.00000          -0.015414           -0.41943
     13       0.00000           0.089768            2.44272
     14       0.00000           0.143278            3.89879
     15       0.00000           0.156857            4.26830
     16       0.00000           0.167508            4.55813
     17       0.00000           0.205559            5.59355
     18       0.00000           0.319103            8.68323
     19       0.00000           0.343644            9.35102
     20       0.00000           0.348899            9.49402

  Current spin moment of the entire structure :
  | N = N_up - N_down :    1.00
  | S                 :    0.50
  | J                 :    2.00

  Highest occupied state (VBM) at    -12.60270549 eV
  | Occupation number:      1.00000000
  | Spin channel:        2

  Lowest unoccupied state (CBM) at   -11.29090856 eV
  | Occupation number:      0.00000000
  | Spin channel:        2

  Overall HOMO-LUMO gap:      1.31179693 eV.

  Total energy components:
  | Sum of eigenvalues            :         -47.59092096 Ha       -1295.01484898 eV
  | XC energy correction          :         -12.04222478 Ha        -327.68560861 eV
  | XC potential correction       :          15.41214171 Ha         419.38571405 eV
  | Free-atom electrostatic energy:         -34.09718266 Ha        -927.83154760 eV
  | Hartree energy correction     :           0.13975265 Ha           3.80286297 eV
  | Entropy correction            :           0.00000000 Ha           0.00000000 eV
  | ---------------------------
  | Total energy                  :         -78.17843404 Ha       -2127.34342817 eV
  | Total energy, T -> 0          :         -78.17843404 Ha       -2127.34342817 eV  <-- do not rely on this value for anything but (periodic) metals
  | Electronic free energy        :         -78.17843404 Ha       -2127.34342817 eV

  Derived energy quantities:
  | Kinetic energy                :          78.55219509 Ha        2137.51398380 eV
  | Electrostatic energy          :        -144.68840435 Ha       -3937.17180336 eV
  | Energy correction for multipole
  | error in Hartree potential    :           0.01695595 Ha           0.46139498 eV
  | Sum of eigenvalues per atom                           :        -215.83580816 eV
  | Total energy (T->0) per atom                          :        -354.55723803 eV  <-- do not rely on this value for anything but (periodic) metals
  | Electronic free energy per atom                       :        -354.55723803 eV

  Self-consistency convergence accuracy:
  | Change of charge/spin density :  0.3368E+00  0.4518E+00
  | Change of sum of eigenvalues  : -0.3561E+01 eV
  | Change of total energy        : -0.1029E+00 eV

  End self-consistency iteration #     1       :  max(cpu_time)    wall_clock(cpu1)
  | Time for this iteration                    :        0.044 s           0.044 s
  | Charge density update                      :        0.012 s           0.012 s
  | Density mixing                             :        0.001 s           0.001 s
  | Hartree multipole update                   :        0.002 s           0.002 s
  | Hartree multipole summation                :        0.011 s           0.012 s
  | Integration                                :        0.016 s           0.015 s
  | Solution of K.-S. eqns.                    :        0.002 s           0.002 s
  | Total energy evaluation                    :        0.000 s           0.000 s

  Partial memory accounting:
  | Current value for overall tracked memory usage:
  |   Minimum:        0.040 MB (on task 4)
  |   Maximum:        0.048 MB (on task 0)
  |   Average:        0.044 MB
  | Peak value for overall tracked memory usage:
  |   Minimum:        0.308 MB (on task 4 after allocating wave)
  |   Maximum:        0.315 MB (on task 0 after allocating wave)
  |   Average:        0.311 MB
  | Largest tracked array allocation so far:
  |   Minimum:        0.144 MB (gradient_basis_wave on task 0)
  |   Maximum:        0.144 MB (gradient_basis_wave on task 0)
  |   Average:        0.144 MB
  Note:  These values currently only include a subset of arrays which are explicitly tracked.
  The "true" memory usage will be greater.
------------------------------------------------------------

------------------------------------------------------------
          Begin self-consistency iteration #    2

  Date     :  20190817, Time     :  153559.553
------------------------------------------------------------
  Evaluating new KS density.
  Integration grid: deviation in total charge (<rho> - N_e) =   7.105427E-15
  | <rho_up-rho_dn> = N_up-N_dn =      1.0000; <|rho_up-rho_dn|> =      1.0676
  Pulay mixing of updated and previous charge densities.
  Renormalizing the density to the exact electron count on the 3D integration grid.
  | Formal number of electrons (from input files) :      15.0000000000
  | Integrated number of electrons on 3D grid     :      15.0816556678
  | Charge integration error                      :       0.0816556678
  | Normalization factor for density and gradient :       0.9945857624
  * The proposed renormalization factor deviates too far from 1.
  * Since the initial charge in geometry.in was not equal to the formal charge,
  * it is not yet safe to renormalize the charge. If this message persists
  * even in the final s.c.f. cycle, your integration accuracy may not be good enough.

  Evaluating partitioned Hartree potential by multipole expansion.
  | Original multipole sum: apparent total charge =   0.918344E+00
  | Sum of charges compensated after spline to logarithmic grids =   0.454442E-03
  | Analytical far-field extrapolation by fixed multipoles:
  | Hartree multipole sum: apparent total charge =   0.918344E+00
  Summing up the Hartree potential.
  Time summed over all CPUs for potential: real work        0.074 s, elapsed        0.077 s
  | RMS charge density error from multipole expansion :   0.199186E-01

  Integrating Hamiltonian matrix: batch-based integration.
  Time summed over all CPUs for integration: real work        0.120 s, elapsed        0.132 s

  Updating Kohn-Sham eigenvalues and eigenvectors using ELSI and the ELPA eigensolver.
  Starting ELPA eigensolver
  Finished transformation to standard eigenproblem
  | Time :     0.000 s
  Finished solving standard eigenproblem
  | Time :     0.001 s
  Finished back-transformation of eigenvectors
  | Time :     0.000 s
  Starting ELPA eigensolver
  Finished transformation to standard eigenproblem
  | Time :     0.000 s
  Finished solving standard eigenproblem
  | Time :     0.001 s
  Finished back-transformation of eigenvectors
  | Time :     0.000 s

  Obtaining occupation numbers and chemical potential using ELSI.
  | Chemical potential (Fermi level):   -15.45980376 eV
  Current spin moment of the entire structure :
  | N = N_up - N_down :    1.00
  | S                 :    0.50
  | J                 :    2.00

  Highest occupied state (VBM) at    -15.85455592 eV
  | Occupation number:      1.00000000
  | Spin channel:        2

  Lowest unoccupied state (CBM) at   -14.34475455 eV
  | Occupation number:      0.00000000
  | Spin channel:        2

  Overall HOMO-LUMO gap:      1.50980137 eV.

  Checking to see if s.c.f. parameters should be adjusted.

  Total energy components:
  | Sum of eigenvalues            :         -49.18614157 Ha       -1338.42301035 eV
  | XC energy correction          :         -11.97190445 Ha        -325.77209516 eV
  | XC potential correction       :          15.31713110 Ha         416.80034391 eV
  | Free-atom electrostatic energy:         -34.09718266 Ha        -927.83154760 eV
  | Hartree energy correction     :           1.74802728 Ha          47.56624240 eV
  | Entropy correction            :           0.00000000 Ha           0.00000000 eV
  | ---------------------------
  | Total energy                  :         -78.19007029 Ha       -2127.66006679 eV
  | Total energy, T -> 0          :         -78.19007029 Ha       -2127.66006679 eV  <-- do not rely on this value for anything but (periodic) metals
  | Electronic free energy        :         -78.19007029 Ha       -2127.66006679 eV

  Derived energy quantities:
  | Kinetic energy                :          78.16158917 Ha        2126.88505607 eV
  | Electrostatic energy          :        -144.37975501 Ha       -3928.77302770 eV
  | Energy correction for multipole
  | error in Hartree potential    :           0.02682260 Ha           0.72988016 eV
  | Sum of eigenvalues per atom                           :        -223.07050172 eV
  | Total energy (T->0) per atom                          :        -354.61001113 eV  <-- do not rely on this value for anything but (periodic) metals
  | Electronic free energy per atom                       :        -354.61001113 eV

  Self-consistency convergence accuracy:
  | Change of charge/spin density :  0.1455E+00  0.2434E+00
  | Change of sum of eigenvalues  : -0.4341E+02 eV
  | Change of total energy        : -0.3166E+00 eV

  End self-consistency iteration #     2       :  max(cpu_time)    wall_clock(cpu1)
  | Time for this iteration                    :        0.042 s           0.041 s
  | Charge density update                      :        0.010 s           0.010 s
  | Density mixing                             :        0.001 s           0.001 s
  | Hartree multipole update                   :        0.001 s           0.002 s
  | Hartree multipole summation                :        0.010 s           0.009 s
  | Integration                                :        0.017 s           0.017 s
  | Solution of K.-S. eqns.                    :        0.002 s           0.002 s
  | Total energy evaluation                    :        0.000 s           0.000 s

  Partial memory accounting:
  | Current value for overall tracked memory usage:
  |   Minimum:        0.041 MB (on task 4)
  |   Maximum:        0.048 MB (on task 0)
  |   Average:        0.045 MB
  | Peak value for overall tracked memory usage:
  |   Minimum:        0.308 MB (on task 4 after allocating wave)
  |   Maximum:        0.315 MB (on task 0 after allocating wave)
  |   Average:        0.311 MB
  | Largest tracked array allocation so far:
  |   Minimum:        0.144 MB (gradient_basis_wave on task 0)
  |   Maximum:        0.144 MB (gradient_basis_wave on task 0)
  |   Average:        0.144 MB
  Note:  These values currently only include a subset of arrays which are explicitly tracked.
  The "true" memory usage will be greater.
------------------------------------------------------------

------------------------------------------------------------
          Begin self-consistency iteration #    3

  Date     :  20190817, Time     :  153559.595
------------------------------------------------------------
  Evaluating new KS density.
  Integration grid: deviation in total charge (<rho> - N_e) =  -7.105427E-15
  | <rho_up-rho_dn> = N_up-N_dn =      1.0000; <|rho_up-rho_dn|> =      1.0233
  Pulay mixing of updated and previous charge densities.
  Renormalizing the density to the exact electron count on the 3D integration grid.
  | Formal number of electrons (from input files) :      15.0000000000
  | Integrated number of electrons on 3D grid     :      14.9948147788
  | Charge integration error                      :      -0.0051852212
  | Normalization factor for density and gradient :       1.0003458009

  Evaluating partitioned Hartree potential by multipole expansion.
  | Original multipole sum: apparent total charge =   0.100000E+01
  | Sum of charges compensated after spline to logarithmic grids =   0.489549E-03
  | Analytical far-field extrapolation by fixed multipoles:
  | Hartree multipole sum: apparent total charge =   0.100000E+01
  Summing up the Hartree potential.
  Time summed over all CPUs for potential: real work        0.076 s, elapsed        0.078 s
  | RMS charge density error from multipole expansion :   0.215486E-01

  Integrating Hamiltonian matrix: batch-based integration.
  Time summed over all CPUs for integration: real work        0.120 s, elapsed        0.125 s

  Updating Kohn-Sham eigenvalues and eigenvectors using ELSI and the ELPA eigensolver.
  Starting ELPA eigensolver
  Finished transformation to standard eigenproblem
  | Time :     0.000 s
  Finished solving standard eigenproblem
  | Time :     0.001 s
  Finished back-transformation of eigenvectors
  | Time :     0.000 s
  Starting ELPA eigensolver
  Finished transformation to standard eigenproblem
  | Time :     0.000 s
  Finished solving standard eigenproblem
  | Time :     0.000 s
  Finished back-transformation of eigenvectors
  | Time :     0.000 s

  Obtaining occupation numbers and chemical potential using ELSI.
  | Chemical potential (Fermi level):   -15.69595377 eV
  Current spin moment of the entire structure :
  | N = N_up - N_down :    1.00
  | S                 :    0.50
  | J                 :    2.00

  Highest occupied state (VBM) at    -16.14802923 eV
  | Occupation number:      1.00000000
  | Spin channel:        1

  Lowest unoccupied state (CBM) at   -14.57640878 eV
  | Occupation number:      0.00000000
  | Spin channel:        2

  Overall HOMO-LUMO gap:      1.57162045 eV.

  Total energy components:
  | Sum of eigenvalues            :         -49.28133232 Ha       -1341.01328252 eV
  | XC energy correction          :         -11.98642641 Ha        -326.16725788 eV
  | XC potential correction       :          15.33594586 Ha         417.31231953 eV
  | Free-atom electrostatic energy:         -34.09718266 Ha        -927.83154760 eV
  | Hartree energy correction     :           1.83713138 Ha          49.99088835 eV
  | Entropy correction            :           0.00000000 Ha           0.00000000 eV
  | ---------------------------
  | Total energy                  :         -78.19186415 Ha       -2127.70888011 eV
  | Total energy, T -> 0          :         -78.19186415 Ha       -2127.70888011 eV  <-- do not rely on this value for anything but (periodic) metals
  | Electronic free energy        :         -78.19186415 Ha       -2127.70888011 eV

  Derived energy quantities:
  | Kinetic energy                :          78.22721705 Ha        2128.67088150 eV
  | Electrostatic energy          :        -144.43265479 Ha       -3930.21250373 eV
  | Energy correction for multipole
  | error in Hartree potential    :           0.02855810 Ha           0.77710557 eV
  | Sum of eigenvalues per atom                           :        -223.50221375 eV
  | Total energy (T->0) per atom                          :        -354.61814668 eV  <-- do not rely on this value for anything but (periodic) metals
  | Electronic free energy per atom                       :        -354.61814668 eV

  Self-consistency convergence accuracy:
  | Change of charge/spin density :  0.2560E-01  0.6082E-01
  | Change of sum of eigenvalues  : -0.2590E+01 eV
  | Change of total energy        : -0.4881E-01 eV

  End self-consistency iteration #     3       :  max(cpu_time)    wall_clock(cpu1)
  | Time for this iteration                    :        0.040 s           0.040 s
  | Charge density update                      :        0.010 s           0.009 s
  | Density mixing                             :        0.001 s           0.002 s
  | Hartree multipole update                   :        0.001 s           0.001 s
  | Hartree multipole summation                :        0.010 s           0.010 s
  | Integration                                :        0.016 s           0.016 s
  | Solution of K.-S. eqns.                    :        0.002 s           0.001 s
  | Total energy evaluation                    :        0.000 s           0.001 s

  Partial memory accounting:
  | Current value for overall tracked memory usage:
  |   Minimum:        0.041 MB (on task 4)
  |   Maximum:        0.048 MB (on task 0)
  |   Average:        0.045 MB
  | Peak value for overall tracked memory usage:
  |   Minimum:        0.308 MB (on task 4 after allocating wave)
  |   Maximum:        0.315 MB (on task 0 after allocating wave)
  |   Average:        0.311 MB
  | Largest tracked array allocation so far:
  |   Minimum:        0.144 MB (gradient_basis_wave on task 0)
  |   Maximum:        0.144 MB (gradient_basis_wave on task 0)
  |   Average:        0.144 MB
  Note:  These values currently only include a subset of arrays which are explicitly tracked.
  The "true" memory usage will be greater.
------------------------------------------------------------

------------------------------------------------------------
          Begin self-consistency iteration #    4

  Date     :  20190817, Time     :  153559.635
------------------------------------------------------------
  Evaluating new KS density.
  Integration grid: deviation in total charge (<rho> - N_e) =  -1.776357E-15
  | <rho_up-rho_dn> = N_up-N_dn =      1.0000; <|rho_up-rho_dn|> =      1.0217
  Pulay mixing of updated and previous charge densities.
  Renormalizing the density to the exact electron count on the 3D integration grid.
  | Formal number of electrons (from input files) :      15.0000000000
  | Integrated number of electrons on 3D grid     :      14.9997263873
  | Charge integration error                      :      -0.0002736127
  | Normalization factor for density and gradient :       1.0000182412

  Evaluating partitioned Hartree potential by multipole expansion.
  | Original multipole sum: apparent total charge =   0.100000E+01
  | Sum of charges compensated after spline to logarithmic grids =   0.489988E-03
  | Analytical far-field extrapolation by fixed multipoles:
  | Hartree multipole sum: apparent total charge =   0.100000E+01
  Summing up the Hartree potential.
  Time summed over all CPUs for potential: real work        0.077 s, elapsed        0.084 s
  | RMS charge density error from multipole expansion :   0.212172E-01

  Integrating Hamiltonian matrix: batch-based integration.
  Time summed over all CPUs for integration: real work        0.122 s, elapsed        0.141 s

  Updating Kohn-Sham eigenvalues and eigenvectors using ELSI and the ELPA eigensolver.
  Starting ELPA eigensolver
  Finished transformation to standard eigenproblem
  | Time :     0.000 s
  Finished solving standard eigenproblem
  | Time :     0.000 s
  Finished back-transformation of eigenvectors
  | Time :     0.000 s
  Starting ELPA eigensolver
  Finished transformation to standard eigenproblem
  | Time :     0.000 s
  Finished solving standard eigenproblem
  | Time :     0.000 s
  Finished back-transformation of eigenvectors
  | Time :     0.000 s

  Obtaining occupation numbers and chemical potential using ELSI.
  | Chemical potential (Fermi level):   -15.71722090 eV
  Current spin moment of the entire structure :
  | N = N_up - N_down :    1.00
  | S                 :    0.50
  | J                 :    2.00

  Highest occupied state (VBM) at    -16.20115304 eV
  | Occupation number:      1.00000000
  | Spin channel:        1

  Lowest unoccupied state (CBM) at   -14.56301677 eV
  | Occupation number:      0.00000000
  | Spin channel:        2

  Overall HOMO-LUMO gap:      1.63813627 eV.

  Total energy components:
  | Sum of eigenvalues            :         -49.32324156 Ha       -1342.15369082 eV
  | XC energy correction          :         -11.97639907 Ha        -325.89439997 eV
  | XC potential correction       :          15.32333215 Ha         416.96908295 eV
  | Free-atom electrostatic energy:         -34.09718266 Ha        -927.83154760 eV
  | Hartree energy correction     :           1.88134217 Ha          51.19392508 eV
  | Entropy correction            :           0.00000000 Ha           0.00000000 eV
  | ---------------------------
  | Total energy                  :         -78.19214896 Ha       -2127.71663036 eV
  | Total energy, T -> 0          :         -78.19214896 Ha       -2127.71663036 eV  <-- do not rely on this value for anything but (periodic) metals
  | Electronic free energy        :         -78.19214896 Ha       -2127.71663036 eV

  Derived energy quantities:
  | Kinetic energy                :          78.16808273 Ha        2127.06175474 eV
  | Electrostatic energy          :        -144.38383262 Ha       -3928.88398513 eV
  | Energy correction for multipole
  | error in Hartree potential    :           0.02786017 Ha           0.75811378 eV
  | Sum of eigenvalues per atom                           :        -223.69228180 eV
  | Total energy (T->0) per atom                          :        -354.61943839 eV  <-- do not rely on this value for anything but (periodic) metals
  | Electronic free energy per atom                       :        -354.61943839 eV

  Self-consistency convergence accuracy:
  | Change of charge/spin density :  0.6231E-02  0.2336E-01
  | Change of sum of eigenvalues  : -0.1140E+01 eV
  | Change of total energy        : -0.7750E-02 eV

  End self-consistency iteration #     4       :  max(cpu_time)    wall_clock(cpu1)
  | Time for this iteration                    :        0.043 s           0.043 s
  | Charge density update                      :        0.010 s           0.010 s
  | Density mixing                             :        0.001 s           0.001 s
  | Hartree multipole update                   :        0.001 s           0.001 s
  | Hartree multipole summation                :        0.011 s           0.011 s
  | Integration                                :        0.018 s           0.018 s
  | Solution of K.-S. eqns.                    :        0.002 s           0.001 s
  | Total energy evaluation                    :        0.000 s           0.000 s

  Partial memory accounting:
  | Current value for overall tracked memory usage:
  |   Minimum:        0.041 MB (on task 4)
  |   Maximum:        0.048 MB (on task 0)
  |   Average:        0.045 MB
  | Peak value for overall tracked memory usage:
  |   Minimum:        0.308 MB (on task 4 after allocating wave)
  |   Maximum:        0.315 MB (on task 0 after allocating wave)
  |   Average:        0.311 MB
  | Largest tracked array allocation so far:
  |   Minimum:        0.144 MB (gradient_basis_wave on task 0)
  |   Maximum:        0.144 MB (gradient_basis_wave on task 0)
  |   Average:        0.144 MB
  Note:  These values currently only include a subset of arrays which are explicitly tracked.
  The "true" memory usage will be greater.
------------------------------------------------------------

------------------------------------------------------------
          Begin self-consistency iteration #    5

  Date     :  20190817, Time     :  153559.678
------------------------------------------------------------
  Evaluating new KS density.
  Integration grid: deviation in total charge (<rho> - N_e) =   3.552714E-15
  | <rho_up-rho_dn> = N_up-N_dn =      1.0000; <|rho_up-rho_dn|> =      1.0558
  Pulay mixing of updated and previous charge densities.
  Renormalizing the density to the exact electron count on the 3D integration grid.
  | Formal number of electrons (from input files) :      15.0000000000
  | Integrated number of electrons on 3D grid     :      14.9991069654
  | Charge integration error                      :      -0.0008930346
  | Normalization factor for density and gradient :       1.0000595392

  Evaluating partitioned Hartree potential by multipole expansion.
  | Original multipole sum: apparent total charge =   0.100000E+01
  | Sum of charges compensated after spline to logarithmic grids =   0.490600E-03
  | Analytical far-field extrapolation by fixed multipoles:
  | Hartree multipole sum: apparent total charge =   0.100000E+01
  Summing up the Hartree potential.
  Time summed over all CPUs for potential: real work        0.076 s, elapsed        0.079 s
  | RMS charge density error from multipole expansion :   0.212395E-01

  Integrating Hamiltonian matrix: batch-based integration.
  Time summed over all CPUs for integration: real work        0.117 s, elapsed        0.123 s

  Updating Kohn-Sham eigenvalues and eigenvectors using ELSI and the ELPA eigensolver.
  Starting ELPA eigensolver
  Finished transformation to standard eigenproblem
  | Time :     0.000 s
  Finished solving standard eigenproblem
  | Time :     0.000 s
  Finished back-transformation of eigenvectors
  | Time :     0.000 s
  Starting ELPA eigensolver
  Finished transformation to standard eigenproblem
  | Time :     0.000 s
  Finished solving standard eigenproblem
  | Time :     0.001 s
  Finished back-transformation of eigenvectors
  | Time :     0.000 s

  Obtaining occupation numbers and chemical potential using ELSI.
  | Chemical potential (Fermi level):   -15.70168291 eV
  Current spin moment of the entire structure :
  | N = N_up - N_down :    1.00
  | S                 :    0.50
  | J                 :    2.00

  Highest occupied state (VBM) at    -16.19665563 eV
  | Occupation number:      1.00000000
  | Spin channel:        1

  Lowest unoccupied state (CBM) at   -14.54570541 eV
  | Occupation number:      0.00000000
  | Spin channel:        2

  Overall HOMO-LUMO gap:      1.65095022 eV.

  Total energy components:
  | Sum of eigenvalues            :         -49.31390779 Ha       -1341.89970599 eV
  | XC energy correction          :         -11.97846780 Ha        -325.95069305 eV
  | XC potential correction       :          15.32603701 Ha         417.04268596 eV
  | Free-atom electrostatic energy:         -34.09718266 Ha        -927.83154760 eV
  | Hartree energy correction     :           1.87134617 Ha          50.92192010 eV
  | Entropy correction            :           0.00000000 Ha           0.00000000 eV
  | ---------------------------
  | Total energy                  :         -78.19217506 Ha       -2127.71734058 eV
  | Total energy, T -> 0          :         -78.19217506 Ha       -2127.71734058 eV  <-- do not rely on this value for anything but (periodic) metals
  | Electronic free energy        :         -78.19217506 Ha       -2127.71734058 eV

  Derived energy quantities:
  | Kinetic energy                :          78.17831513 Ha        2127.34019253 eV
  | Electrostatic energy          :        -144.39202239 Ha       -3929.10684006 eV
  | Energy correction for multipole
  | error in Hartree potential    :           0.02791644 Ha           0.75964493 eV
  | Sum of eigenvalues per atom                           :        -223.64995100 eV
  | Total energy (T->0) per atom                          :        -354.61955676 eV  <-- do not rely on this value for anything but (periodic) metals
  | Electronic free energy per atom                       :        -354.61955676 eV

  Self-consistency convergence accuracy:
  | Change of charge/spin density :  0.1914E-02  0.5445E-02
  | Change of sum of eigenvalues  :  0.2540E+00 eV
  | Change of total energy        : -0.7102E-03 eV

  End self-consistency iteration #     5       :  max(cpu_time)    wall_clock(cpu1)
  | Time for this iteration                    :        0.040 s           0.040 s
  | Charge density update                      :        0.010 s           0.010 s
  | Density mixing                             :        0.002 s           0.002 s
  | Hartree multipole update                   :        0.001 s           0.001 s
  | Hartree multipole summation                :        0.010 s           0.010 s
  | Integration                                :        0.016 s           0.015 s
  | Solution of K.-S. eqns.                    :        0.002 s           0.002 s
  | Total energy evaluation                    :        0.000 s           0.000 s

  Partial memory accounting:
  | Current value for overall tracked memory usage:
  |   Minimum:        0.041 MB (on task 4)
  |   Maximum:        0.048 MB (on task 0)
  |   Average:        0.045 MB
  | Peak value for overall tracked memory usage:
  |   Minimum:        0.308 MB (on task 4 after allocating wave)
  |   Maximum:        0.315 MB (on task 0 after allocating wave)
  |   Average:        0.311 MB
  | Largest tracked array allocation so far:
  |   Minimum:        0.144 MB (gradient_basis_wave on task 0)
  |   Maximum:        0.144 MB (gradient_basis_wave on task 0)
  |   Average:        0.144 MB
  Note:  These values currently only include a subset of arrays which are explicitly tracked.
  The "true" memory usage will be greater.
------------------------------------------------------------

------------------------------------------------------------
          Begin self-consistency iteration #    6

  Date     :  20190817, Time     :  153559.719
------------------------------------------------------------
  Evaluating new KS density.
  Integration grid: deviation in total charge (<rho> - N_e) =   0.000000E+00
  | <rho_up-rho_dn> = N_up-N_dn =      1.0000; <|rho_up-rho_dn|> =      1.0663
  Pulay mixing of updated and previous charge densities.
  Renormalizing the density to the exact electron count on the 3D integration grid.
  | Formal number of electrons (from input files) :      15.0000000000
  | Integrated number of electrons on 3D grid     :      15.0002334640
  | Charge integration error                      :       0.0002334640
  | Normalization factor for density and gradient :       0.9999844360

  Evaluating partitioned Hartree potential by multipole expansion.
  | Original multipole sum: apparent total charge =   0.100000E+01
  | Sum of charges compensated after spline to logarithmic grids =   0.490336E-03
  | Analytical far-field extrapolation by fixed multipoles:
  | Hartree multipole sum: apparent total charge =   0.100000E+01
  Summing up the Hartree potential.
  Time summed over all CPUs for potential: real work        0.079 s, elapsed        0.099 s
  | RMS charge density error from multipole expansion :   0.212634E-01

  Integrating Hamiltonian matrix: batch-based integration.
  Time summed over all CPUs for integration: real work        0.119 s, elapsed        0.122 s

  Updating Kohn-Sham eigenvalues and eigenvectors using ELSI and the ELPA eigensolver.
  Starting ELPA eigensolver
  Finished transformation to standard eigenproblem
  | Time :     0.000 s
  Finished solving standard eigenproblem
  | Time :     0.000 s
  Finished back-transformation of eigenvectors
  | Time :     0.000 s
  Starting ELPA eigensolver
  Finished transformation to standard eigenproblem
  | Time :     0.000 s
  Finished solving standard eigenproblem
  | Time :     0.001 s
  Finished back-transformation of eigenvectors
  | Time :     0.000 s

  Obtaining occupation numbers and chemical potential using ELSI.
  | Chemical potential (Fermi level):   -15.70436495 eV
  Current spin moment of the entire structure :
  | N = N_up - N_down :    1.00
  | S                 :    0.50
  | J                 :    2.00

  Highest occupied state (VBM) at    -16.20338717 eV
  | Occupation number:      1.00000000
  | Spin channel:        1

  Lowest unoccupied state (CBM) at   -14.55187665 eV
  | Occupation number:      0.00000000
  | Spin channel:        2

  Overall HOMO-LUMO gap:      1.65151052 eV.

  Total energy components:
  | Sum of eigenvalues            :         -49.31567255 Ha       -1341.94772777 eV
  | XC energy correction          :         -11.97885683 Ha        -325.96127904 eV
  | XC potential correction       :          15.32652337 Ha         417.05592040 eV
  | Free-atom electrostatic energy:         -34.09718266 Ha        -927.83154760 eV
  | Hartree energy correction     :           1.87300607 Ha          50.96708836 eV
  | Entropy correction            :           0.00000000 Ha           0.00000000 eV
  | ---------------------------
  | Total energy                  :         -78.19218260 Ha       -2127.71754565 eV
  | Total energy, T -> 0          :         -78.19218260 Ha       -2127.71754565 eV  <-- do not rely on this value for anything but (periodic) metals
  | Electronic free energy        :         -78.19218260 Ha       -2127.71754565 eV

  Derived energy quantities:
  | Kinetic energy                :          78.17721193 Ha        2127.31017297 eV
  | Electrostatic energy          :        -144.39053770 Ha       -3929.06643958 eV
  | Energy correction for multipole
  | error in Hartree potential    :           0.02800497 Ha           0.76205391 eV
  | Sum of eigenvalues per atom                           :        -223.65795463 eV
  | Total energy (T->0) per atom                          :        -354.61959094 eV  <-- do not rely on this value for anything but (periodic) metals
  | Electronic free energy per atom                       :        -354.61959094 eV

  Self-consistency convergence accuracy:
  | Change of charge/spin density :  0.1012E-02  0.1429E-02
  | Change of sum of eigenvalues  : -0.4802E-01 eV
  | Change of total energy        : -0.2051E-03 eV

  End self-consistency iteration #     6       :  max(cpu_time)    wall_clock(cpu1)
  | Time for this iteration                    :        0.044 s           0.043 s
  | Charge density update                      :        0.009 s           0.009 s
  | Density mixing                             :        0.002 s           0.002 s
  | Hartree multipole update                   :        0.001 s           0.002 s
  | Hartree multipole summation                :        0.013 s           0.013 s
  | Integration                                :        0.016 s           0.015 s
  | Solution of K.-S. eqns.                    :        0.002 s           0.002 s
  | Total energy evaluation                    :        0.000 s           0.000 s

  Partial memory accounting:
  | Current value for overall tracked memory usage:
  |   Minimum:        0.041 MB (on task 4)
  |   Maximum:        0.049 MB (on task 0)
  |   Average:        0.045 MB
  | Peak value for overall tracked memory usage:
  |   Minimum:        0.308 MB (on task 4 after allocating wave)
  |   Maximum:        0.315 MB (on task 0 after allocating wave)
  |   Average:        0.311 MB
  | Largest tracked array allocation so far:
  |   Minimum:        0.144 MB (gradient_basis_wave on task 0)
  |   Maximum:        0.144 MB (gradient_basis_wave on task 0)
  |   Average:        0.144 MB
  Note:  These values currently only include a subset of arrays which are explicitly tracked.
  The "true" memory usage will be greater.
------------------------------------------------------------

------------------------------------------------------------
          Begin self-consistency iteration #    7

  Date     :  20190817, Time     :  153559.763
------------------------------------------------------------
  Evaluating new KS density.
  Integration grid: deviation in total charge (<rho> - N_e) =   8.881784E-15
  | <rho_up-rho_dn> = N_up-N_dn =      1.0000; <|rho_up-rho_dn|> =      1.0681
  Pulay mixing of updated and previous charge densities.
  Renormalizing the density to the exact electron count on the 3D integration grid.
  | Formal number of electrons (from input files) :      15.0000000000
  | Integrated number of electrons on 3D grid     :      15.0000937809
  | Charge integration error                      :       0.0000937809
  | Normalization factor for density and gradient :       0.9999937480

  Evaluating partitioned Hartree potential by multipole expansion.
  | Original multipole sum: apparent total charge =   0.100000E+01
  | Sum of charges compensated after spline to logarithmic grids =   0.490352E-03
  | Analytical far-field extrapolation by fixed multipoles:
  | Hartree multipole sum: apparent total charge =   0.100000E+01
  Summing up the Hartree potential.
[...]
  | Electronic free energy        :         -78.19218471 Ha       -2127.71760304 eV

  Derived energy quantities:
  | Kinetic energy                :          78.17951991 Ha        2127.37297640 eV
  | Electrostatic energy          :        -144.39252060 Ha       -3929.12039686 eV
  | Energy correction for multipole
  | error in Hartree potential    :           0.02802521 Ha           0.76260469 eV
  | Sum of eigenvalues per atom                           :        -223.64775228 eV
  | Total energy (T->0) per atom                          :        -354.61960051 eV  <-- do not rely on this value for anything but (periodic) metals
  | Electronic free energy per atom                       :        -354.61960051 eV

  Self-consistency convergence accuracy:
  | Change of charge/spin density :  0.2440E-04  0.1522E-04
  | Change of sum of eigenvalues  :  0.1565E-02 eV
  | Change of total energy        :  0.2325E-05 eV

  End self-consistency iteration #     9       :  max(cpu_time)    wall_clock(cpu1)
  | Time for this iteration                    :        0.041 s           0.041 s
  | Charge density update                      :        0.010 s           0.010 s
  | Density mixing                             :        0.003 s           0.002 s
  | Hartree multipole update                   :        0.001 s           0.001 s
  | Hartree multipole summation                :        0.010 s           0.010 s
  | Integration                                :        0.015 s           0.016 s
  | Solution of K.-S. eqns.                    :        0.002 s           0.001 s
  | Total energy evaluation                    :        0.000 s           0.000 s

  Partial memory accounting:
  | Current value for overall tracked memory usage:
  |   Minimum:        0.041 MB (on task 4)
  |   Maximum:        0.049 MB (on task 0)
  |   Average:        0.045 MB
  | Peak value for overall tracked memory usage:
  |   Minimum:        0.308 MB (on task 4 after allocating wave)
  |   Maximum:        0.315 MB (on task 0 after allocating wave)
  |   Average:        0.311 MB
  | Largest tracked array allocation so far:
  |   Minimum:        0.144 MB (gradient_basis_wave on task 0)
  |   Maximum:        0.144 MB (gradient_basis_wave on task 0)
  |   Average:        0.144 MB
  Note:  These values currently only include a subset of arrays which are explicitly tracked.
  The "true" memory usage will be greater.
------------------------------------------------------------

------------------------------------------------------------
          Begin self-consistency iteration #   10

  Date     :  20190817, Time     :  153559.892
------------------------------------------------------------
  Evaluating new KS density.
  Integration grid: deviation in total charge (<rho> - N_e) =   5.329071E-15
  | <rho_up-rho_dn> = N_up-N_dn =      1.0000; <|rho_up-rho_dn|> =      1.0683
  Pulay mixing of updated and previous charge densities.
  Renormalizing the density to the exact electron count on the 3D integration grid.
  | Formal number of electrons (from input files) :      15.0000000000
  | Integrated number of electrons on 3D grid     :      15.0000011921
  | Charge integration error                      :       0.0000011921
  | Normalization factor for density and gradient :       0.9999999205

  Evaluating partitioned Hartree potential by multipole expansion.
  | Original multipole sum: apparent total charge =   0.100000E+01
  | Sum of charges compensated after spline to logarithmic grids =   0.490357E-03
  | Analytical far-field extrapolation by fixed multipoles:
  | Hartree multipole sum: apparent total charge =   0.100000E+01
  Summing up the Hartree potential.
  Time summed over all CPUs for potential: real work        0.076 s, elapsed        0.077 s
  | RMS charge density error from multipole expansion :   0.212716E-01

  Integrating Hamiltonian matrix: batch-based integration.
  Time summed over all CPUs for integration: real work        0.118 s, elapsed        0.120 s

  Updating Kohn-Sham eigenvalues and eigenvectors using ELSI and the ELPA eigensolver.
  Starting ELPA eigensolver
  Finished transformation to standard eigenproblem
  | Time :     0.000 s
  Finished solving standard eigenproblem
  | Time :     0.000 s
  Finished back-transformation of eigenvectors
  | Time :     0.000 s
  Starting ELPA eigensolver
  Finished transformation to standard eigenproblem
  | Time :     0.000 s
  Finished solving standard eigenproblem
  | Time :     0.000 s
  Finished back-transformation of eigenvectors
  | Time :     0.000 s

  Obtaining occupation numbers and chemical potential using ELSI.
  | Chemical potential (Fermi level):   -15.70209412 eV
  Current spin moment of the entire structure :
  | N = N_up - N_down :    1.00
  | S                 :    0.50
  | J                 :    2.00

  Highest occupied state (VBM) at    -16.20016020 eV
  | Occupation number:      1.00000000
  | Spin channel:        1

  Lowest unoccupied state (CBM) at   -14.54980466 eV
  | Occupation number:      0.00000000
  | Spin channel:        2

  Overall HOMO-LUMO gap:      1.65035554 eV.

  Total energy components:
  | Sum of eigenvalues            :         -49.31339444 Ha       -1341.88573718 eV
  | XC energy correction          :         -11.97918539 Ha        -325.97021962 eV
  | XC potential correction       :          15.32694678 Ha         417.06744198 eV
  | Free-atom electrostatic energy:         -34.09718266 Ha        -927.83154760 eV
  | Hartree energy correction     :           1.87063101 Ha          50.90245957 eV
  | Entropy correction            :           0.00000000 Ha           0.00000000 eV
  | ---------------------------
  | Total energy                  :         -78.19218470 Ha       -2127.71760284 eV
  | Total energy, T -> 0          :         -78.19218470 Ha       -2127.71760284 eV  <-- do not rely on this value for anything but (periodic) metals
  | Electronic free energy        :         -78.19218470 Ha       -2127.71760284 eV

  Derived energy quantities:
  | Kinetic energy                :          78.17953286 Ha        2127.37332877 eV
  | Electrostatic energy          :        -144.39253218 Ha       -3929.12071200 eV
  | Energy correction for multipole
  | error in Hartree potential    :           0.02802506 Ha           0.76260056 eV
  | Sum of eigenvalues per atom                           :        -223.64762286 eV
  | Total energy (T->0) per atom                          :        -354.61960047 eV  <-- do not rely on this value for anything but (periodic) metals
  | Electronic free energy per atom                       :        -354.61960047 eV

  Self-consistency convergence accuracy:
  | Change of charge/spin density :  0.4877E-05  0.4845E-05
  | Change of sum of eigenvalues  :  0.7765E-03 eV
  | Change of total energy        :  0.2009E-06 eV

  Writing Kohn-Sham eigenvalues.

  Spin-up eigenvalues:

  State    Occupation    Eigenvalue [Ha]    Eigenvalue [eV]
      1       1.00000         -10.256027         -279.08070
      2       1.00000         -10.255323         -279.06153
      3       1.00000          -1.034345          -28.14596
      4       1.00000          -0.825460          -22.46192
      5       1.00000          -0.726633          -19.77268
      6       1.00000          -0.692891          -18.85452
      7       1.00000          -0.606838          -16.51289
      8       1.00000          -0.595345          -16.20016
      9       0.00000          -0.362958           -9.87659
     10       0.00000          -0.173411           -4.71874
     11       0.00000          -0.159713           -4.34600
     12       0.00000          -0.138901           -3.77968
     13       0.00000          -0.029269           -0.79646
     14       0.00000           0.017582            0.47842
     15       0.00000           0.032708            0.89003
     16       0.00000           0.038296            1.04209
     17       0.00000           0.080202            2.18240
     18       0.00000           0.165195            4.49517
     19       0.00000           0.193592            5.26790
     20       0.00000           0.211455            5.75399

  Spin-down eigenvalues:

  State    Occupation    Eigenvalue [Ha]    Eigenvalue [eV]
      1       1.00000         -10.247811         -278.85712
      2       1.00000         -10.247107         -278.83798
      3       1.00000          -1.006382          -27.38506
      4       1.00000          -0.811918          -22.09340
      5       1.00000          -0.720043          -19.59338
      6       1.00000          -0.684055          -18.61409
      7       1.00000          -0.603216          -16.41435
      8       0.00000          -0.534695          -14.54980
      9       0.00000          -0.310371           -8.44564
     10       0.00000          -0.168132           -4.57510
     11       0.00000          -0.156674           -4.26331
     12       0.00000          -0.129587           -3.52624
     13       0.00000          -0.025309           -0.68868
     14       0.00000           0.022828            0.62117
     15       0.00000           0.044641            1.21474
     16       0.00000           0.061774            1.68095
     17       0.00000           0.082749            2.25172
     18       0.00000           0.182885            4.97656
     19       0.00000           0.220808            6.00849
     20       0.00000           0.243212            6.61813

  Current spin moment of the entire structure :
  | N = N_up - N_down :    1.00
  | S                 :    0.50
  | J                 :    2.00

  Highest occupied state (VBM) at    -16.20016020 eV
  | Occupation number:      1.00000000
  | Spin channel:        1

  Lowest unoccupied state (CBM) at   -14.54980466 eV
  | Occupation number:      0.00000000
  | Spin channel:        2

  Overall HOMO-LUMO gap:      1.65035554 eV.

  Self-consistency cycle converged.

  End self-consistency iteration #    10       :  max(cpu_time)    wall_clock(cpu1)
  | Time for this iteration                    :        0.042 s           0.042 s
  | Charge density update                      :        0.010 s           0.010 s
  | Density mixing                             :        0.003 s           0.003 s
  | Hartree multipole update                   :        0.001 s           0.001 s
  | Hartree multipole summation                :        0.010 s           0.010 s
  | Integration                                :        0.015 s           0.015 s
  | Solution of K.-S. eqns.                    :        0.002 s           0.002 s
  | Total energy evaluation                    :        0.000 s           0.000 s

  Partial memory accounting:
  | Current value for overall tracked memory usage:
  |   Minimum:        0.041 MB (on task 4)
  |   Maximum:        0.049 MB (on task 0)
  |   Average:        0.045 MB
  | Peak value for overall tracked memory usage:
  |   Minimum:        0.308 MB (on task 4 after allocating wave)
  |   Maximum:        0.315 MB (on task 0 after allocating wave)
  |   Average:        0.311 MB
  | Largest tracked array allocation so far:
  |   Minimum:        0.144 MB (gradient_basis_wave on task 0)
  |   Maximum:        0.144 MB (gradient_basis_wave on task 0)
  |   Average:        0.144 MB
  Note:  These values currently only include a subset of arrays which are explicitly tracked.
  The "true" memory usage will be greater.
------------------------------------------------------------
  Writing cluster restart information to file restart.frag
  Restart file: Writing        20 states.

  Energy and forces in a compact form:
  | Total energy uncorrected      :         -0.212771760283975E+04 eV
  | Total energy corrected        :         -0.212771760283975E+04 eV  <-- do not rely on this value for anything but (periodic) metals
  | Electronic free energy        :         -0.212771760283975E+04 eV

  ------------------------------------ 
  Start decomposition of the XC Energy 
  ------------------------------------ 
  X and C from original XC functional choice 
  Hartree-Fock Energy :          0.000000000 Ha              0.000000000 eV
  X Energy            :        -11.516783849 Ha           -313.387633527 eV
  C Energy            :         -0.462401540 Ha            -12.582586091 eV
  Total XC Energy     :        -11.979185389 Ha           -325.970219618 eV
  ------------------------------------ 
  LDA X and C from self-consistent density 
  X Energy LDA        :        -10.300314689 Ha           -280.285823466 eV
  C Energy LDA        :         -0.931813787 Ha            -25.355943233 eV
  ------------------------------------ 
  End decomposition of the XC Energy 
  ------------------------------------ 

------------------------------------------------------------
  |------------------------------------------------------
  | Final ELSI Output
  |------------------------------------------------------
  |
  | Physical Properties
  |   Number of electrons       :        0.15000000E+02
  |   Number of spins           :                     1
  |   Number of k-points        :                     1
  |   Number of states          :                    20
  |
  | Matrix Properties
  |   Matrix format             :           BLACS_DENSE
  |   Number of basis functions :                    48
  |   Matrix sparsity           :        0.45833333E+00
  |
  | Computational Details
  |   Parallel mode             :            MULTI_PROC
  |   Number of MPI tasks       :                     8
  |   Solver requested          :                  ELPA
  |   Number of ELSI calls      :                    22
  |
  |------------------------------------------------------
  | ELSI Project (c)  elsi-interchange.org
  |------------------------------------------------------

------------------------------------------------------------------------------
  Final output of selected total energy values:

  The following output summarizes some interesting total energy values
  at the end of a run (AFTER all relaxation, molecular dynamics, etc.).

  | Total energy of the DFT / Hartree-Fock s.c.f. calculation      :          -2127.717602840 eV
  | Final zero-broadening corrected energy (caution - metals only) :          -2127.717602840 eV
  | For reference only, the value of 1 Hartree used in FHI-aims is :             27.211384500 eV

  Before relying on these values, please be sure to understand exactly which
  total energy value is referred to by a given number. Different objects may
  all carry the same name 'total energy'. Definitions:

  Total energy of the DFT / Hartree-Fock s.c.f. calculation:
  | Note that this energy does not include ANY quantities calculated after the
  | s.c.f. cycle, in particular not ANY RPA, MP2, etc. many-body perturbation terms.

  Final zero-broadening corrected energy:
  | For metallic systems only, a broadening of the occupation numbers at the Fermi
  | level can be extrapolated back to zero broadening by an electron-gas inspired
  | formula. For all systems that are not real metals, this value can be
  | meaningless and should be avoided.

------------------------------------------------------------------------------
  Methods described in the following list of references were used in this FHI-aims run.
  If you publish the results, please make sure to cite these reference if they apply.
  FHI-aims is an academic code, and for our developers (often, Ph.D. students
  and postdocs), scientific credit in the community is essential.
  Thank you for helping us!

  For any use of FHI-aims, please cite:

    Volker Blum, Ralf Gehrke, Felix Hanke, Paula Havu, Ville Havu,
    Xinguo Ren, Karsten Reuter, and Matthias Scheffler
    'Ab initio molecular simulations with numeric atom-centered orbitals'
    Computer Physics Communications 180, 2175-2196 (2009)
    http://dx.doi.org/10.1016/j.cpc.2009.06.022


  For calculations of electronic coupling values using the
  Fragment molecular orbital scheme (FO-DFT), please cite:

    Christoph Schober, Karsten Reuter, Harald Oberhofer
    'Critical analysis of fragment-orbital DFT schemes
    for the calculation of electronic coupling values'
    Journal of Chemical Physics, 144, 054103 (2016).


  The ELSI infrastructure was used in your run to solve the Kohn-Sham electronic structure.
  Please check out http://elsi-interchange.org to learn more.
  If scalability is important for your project, please acknowledge ELSI by citing:

    V. W-z. Yu, F. Corsetti, A. Garcia, W. P. Huhn, M. Jacquelin, W. Jia,
    B. Lange, L. Lin, J. Lu, W. Mi, A. Seifitokaldani, A. Vazquez-Mayagoitia,
    C. Yang, H. Yang, and V. Blum
    'ELSI: A unified software interface for Kohn-Sham electronic structure solvers'
    Computer Physics Communications 222, 267-285 (2018).
    http://dx.doi.org/10.1016/j.cpc.2017.09.007


  For the real-space grid partitioning and parallelization used in this calculation, please cite:

    Ville Havu, Volker Blum, Paula Havu, and Matthias Scheffler,
    'Efficient O(N) integration for all-electron electronic structure calculation'
    'using numerically tabulated basis functions'
    Journal of Computational Physics 228, 8367-8379 (2009).
    http://dx.doi.org/10.1016/j.jcp.2009.08.008

  Of course, there are many other important community references, e.g., those cited in the
  above references. Our list is limited to references that describe implementations in the
  FHI-aims code. The reason is purely practical (length of this list) - please credit others as well.

------------------------------------------------------------
          Leaving FHI-aims.
          Date     :  20190817, Time     :  153600.050

          Computational steps:
          | Number of self-consistency cycles          :           10
          | Number of SCF (re)initializations          :            1

          Detailed time accounting                     :  max(cpu_time)    wall_clock(cpu1)
          | Total time                                 :        0.810 s           0.959 s
          | Preparation time                           :        0.188 s           0.219 s
          | Boundary condition initalization           :        0.000 s           0.000 s
          | Grid partitioning                          :        0.008 s           0.008 s
          | Preloading free-atom quantities on grid    :        0.002 s           0.003 s
          | Free-atom superposition energy             :        0.006 s           0.006 s
          | Total time for integrations                :        0.187 s           0.217 s
          | Total time for solution of K.-S. equations :        0.037 s           0.053 s
          | Total time for density update              :        0.106 s           0.105 s
          | Total time for mixing                      :        0.019 s           0.018 s
          | Total time for Hartree multipole update    :        0.012 s           0.014 s
          | Total time for Hartree multipole sum       :        0.104 s           0.105 s
          | Total time for total energy evaluation     :        0.002 s           0.001 s

          Partial memory accounting:
          | Residual value for overall tracked memory usage across tasks:     0.000000 MB (should be 0.000000 MB)
          | Peak values for overall tracked memory usage:
          |   Minimum:        0.308 MB (on task 4 after allocating wave)
          |   Maximum:        0.315 MB (on task 0 after allocating wave)
          |   Average:        0.311 MB
          | Largest tracked array allocation:
          |   Minimum:        0.144 MB (gradient_basis_wave on task 0)
          |   Maximum:        0.144 MB (gradient_basis_wave on task 0)
          |   Average:        0.144 MB
          Note:  These values currently only include a subset of arrays which are explicitly tracked.
          The "true" memory usage will be greater.

          Have a nice day.
------------------------------------------------------------
