  MPI-parallelism will be employed.
------------------------------------------------------------
          Invoking FHI-aims ...
          Version 180101-
          Git rev. (modified): fa29f3a Merge branch master of fhiaims.rzberlin.mp[...]
          Compiled on 2018/01/19 at 14:47:46 on host theobook132.

          When using FHI-aims, please cite the following reference:

          Volker Blum, Ralf Gehrke, Felix Hanke, Paula Havu,
          Ville Havu, Xinguo Ren, Karsten Reuter, and Matthias Scheffler,
          'Ab Initio Molecular Simulations with Numeric Atom-Centered Orbitals',
          Computer Physics Communications 180, 2175-2196 (2009)

          For any questions about FHI-aims, please visit the aimsclub website
          with its forums and wiki. Contributions to both the forums and the
          wiki are warmly encouraged - they are for you, and everyone is welcome there.

------------------------------------------------------------



  Date     :  20180216, Time     :  100534.807
  Time zero on CPU 1             :   0.560000000000000E-01  s.
  Internal wall clock time zero  :           288007534.807  s.

  FHI-aims created a unique identifier for this run for later identification
  aims_uuid : 1D0E4EFA-A38F-40A5-A32A-184BEE774DF8

  Using        8 parallel tasks.
  Task        0 on host theobook132 reporting.
  Task        1 on host theobook132 reporting.
  Task        2 on host theobook132 reporting.
  Task        3 on host theobook132 reporting.
  Task        4 on host theobook132 reporting.
  Task        5 on host theobook132 reporting.
  Task        6 on host theobook132 reporting.
  Task        7 on host theobook132 reporting.

  Performing system and environment tests:
  *** Environment variable OMP_NUM_THREADS is not set
  *** For performance reasons you might want to set it to 1
  | Stacksize not measured: no C compiler
  | Checking for scalapack...
  | No scalapack compiled in.

  Obtaining array dimensions for all initial allocations:
  
  -----------------------------------------------------------------------
  Parsing control.in (first pass over file, find array dimensions only).
  The contents of control.in will be repeated verbatim below
  unless switched off by setting 'verbatim_writeout .false.' .
  in the first line of control.in .
  -----------------------------------------------------------------------
  
  #########################################################################################
  #
  #  Volker Blum, FHI 2008 : Test run input file control.in for simple H2O
  #
  #########################################################################################
  #
  #  Physical model
  #
    xc                 pbe
    vdw_correction_hirshfeld
    spin               none
    relativistic       none
    charge             0.0
  #
  #  SCF convergence
  #
    occupation_type    gaussian 0.01
    mixer              pulay
      n_max_pulay        10
      charge_mix_param   0.5
    sc_accuracy_rho    1E-5
    sc_accuracy_eev    1E-3
    sc_accuracy_etot   1E-6
    sc_iter_limit      60
  #
  #  Eigenvalue solution
  #
   # KS_method	     scalapack_fast
   #   empty_states       3
   #   basis_threshold    1.e-5
  #
  #  Efficiency
  #
  #   communication_type shmem
  #
  #  Relaxation
  #
  #
   # init_hess          Lindh
  # create a better hesse matrix by lindhh-script.
  #  relax_geometry     trm 5.e-3
  # relax_geometry     trm 1.e-2
  #
  #  relax_geometry   bfgs 1.e-2
  #
  # Check below which parameters used!
  compute_forces .true.
  final_forces_cleaned .true.
  ################################################################################
  #
  #  FHI-aims code project
  #  VB, Fritz-Haber Institut, 2009
  #
  #  Suggested "light" defaults for H atom (to be pasted into control.in file)
  #  Be sure to double-check any results obtained with these settings for post-processing,
  #  e.g., with the "tight" defaults and larger basis sets.
  #
  ################################################################################
    species        H
  #     global species definitions
      nucleus             1
      mass                1.00794
  #
      l_hartree           4
  #
      cut_pot             3.5  1.5  1.0
      basis_dep_cutoff    1e-4
  #
      radial_base         24 5.0
      radial_multiplier   1
      angular_grids       specified
        division   0.2421   50
        division   0.3822  110
        division   0.4799  194
        division   0.5341  302
  #      division   0.5626  434
  #      division   0.5922  590
  #      division   0.6542  770
  #      division   0.6868 1202
  #      outer_grid  770
        outer_grid  302
  ################################################################################
  #
  #  Definition of "minimal" basis
  #
  ################################################################################
  #     valence basis states
      valence      1  s   1.
  #     ion occupancy
      ion_occ      1  s   0.5
  ################################################################################
  #
  #  Suggested additional basis functions. For production calculations,
  #  uncomment them one after another (the most important basis functions are
  #  listed first).
  #
  #  Basis constructed for dimers: 0.5 A, 0.7 A, 1.0 A, 1.5 A, 2.5 A
  #
  ################################################################################
  #  "First tier" - improvements: -1014.90 meV to -62.69 meV
       hydro 2 s 2.1
       hydro 2 p 3.5
  #  "Second tier" - improvements: -12.89 meV to -1.83 meV
  #     hydro 1 s 0.85
  #     hydro 2 p 3.7
  #     hydro 2 s 1.2
  #     hydro 3 d 7
  #  "Third tier" - improvements: -0.25 meV to -0.12 meV
  #     hydro 4 f 11.2
  #     hydro 3 p 4.8
  #     hydro 4 d 9
  #     hydro 3 s 3.2
  ################################################################################
  #
  #  FHI-aims code project
  #  VB, Fritz-Haber Institut, 2009
  #
  #  Suggested "light" defaults for C atom (to be pasted into control.in file)
  #  Be sure to double-check any results obtained with these settings for post-processing,
  #  e.g., with the "tight" defaults and larger basis sets.
  #
  ################################################################################
    species        C
  #     global species definitions
      nucleus             6
      mass                12.0107
  #
      l_hartree           4
  #
      cut_pot             3.5  1.5  1.0
      basis_dep_cutoff    1e-4
  #
      radial_base         34 5.0
      radial_multiplier   1
      angular_grids specified
        division   0.3326   50
        division   0.5710  110
        division   0.7727  194
        division   0.8772  302
  #      division   0.9334  434
  #      division   0.9625  590
  #      division   0.9924  770
  #      division   1.0230  974
  #      division   1.4589 1202
  #     outer_grid  974
       outer_grid 302
  ################################################################################
  #
  #  Definition of "minimal" basis
  #
  ################################################################################
  #     valence basis states
      valence      2  s   2.
      valence      2  p   2.
  #     ion occupancy
      ion_occ      2  s   1.
      ion_occ      2  p   1.
  ################################################################################
  #
  #  Suggested additional basis functions. For production calculations,
  #  uncomment them one after another (the most important basis functions are
  #  listed first).
  #
  #  Constructed for dimers: 1.0 A, 1.25 A, 1.5 A, 2.0 A, 3.0 A
  #
  ################################################################################
  #  "First tier" - improvements: -1214.57 meV to -155.61 meV
       hydro 2 p 1.7
       hydro 3 d 6
       hydro 2 s 4.9
  #  "Second tier" - improvements: -67.75 meV to -5.23 meV
  #     hydro 4 f 9.8
  #     hydro 3 p 5.2
  #     hydro 3 s 4.3
  #     hydro 5 g 14.4
  #     hydro 3 d 6.2
  #  "Third tier" - improvements: -2.43 meV to -0.60 meV
  #     hydro 2 p 5.6
  #     hydro 2 s 1.4
  #     hydro 3 d 4.9
  #     hydro 4 f 11.2
  #  "Fourth tier" - improvements: -0.39 meV to -0.18 meV
  #     hydro 2 p 2.1
  #     hydro 5 g 16.4
  #     hydro 4 d 13.2
  #     hydro 3 s 13.6
  #     hydro 4 f 17.6
  #  Further basis functions - improvements: -0.08 meV and below
  #     hydro 3 s 2
  #     hydro 3 p 6
  #     hydro 4 d 20
  ################################################################################
  #
  #  FHI-aims code project
  #  VB, Fritz-Haber Institut, 2009
  #
  #  Suggested "light" defaults for N atom (to be pasted into control.in file)
  #  Be sure to double-check any results obtained with these settings for post-processing,
  #  e.g., with the "tight" defaults and larger basis sets.
  #
  ################################################################################
    species        N
  #     global species definitions
      nucleus             7
      mass                14.0067
  #
      l_hartree           4
  #
      cut_pot             3.5  1.5  1.0
      basis_dep_cutoff    1e-4
  #
      radial_base         35 5.0
      radial_multiplier   1
      angular_grids       specified
        division   0.2599   50
        division   0.4601  110
        division   0.5885  194
        division   0.6503  302
  #      division   0.6939  434
  #      division   0.7396  590
  #      division   0.7632  770
  #      division   0.8122  974
  #      division   1.1604 1202
  #      outer_grid  974
        outer_grid  302
  ################################################################################
  #
  #  Definition of "minimal" basis
  #
  ################################################################################
  #     valence basis states
      valence      2  s   2.
      valence      2  p   3.
  #     ion occupancy
      ion_occ      2  s   1.
      ion_occ      2  p   2.
  ################################################################################
  #
  #  Suggested additional basis functions. For production calculations,
  #  uncomment them one after another (the most important basis functions are
  #  listed first).
  #
  #  Constructed for dimers: 1.0 A, 1.1 A, 1.5 A, 2.0 A, 3.0 A
  #
  ################################################################################
  #  "First tier" - improvements: -1193.42 meV to -220.60 meV
       hydro 2 p 1.8
       hydro 3 d 6.8
       hydro 3 s 5.8
  #  "Second tier" - improvements: -80.21 meV to -6.86 meV
  #     hydro 4 f 10.8
  #     hydro 3 p 5.8
  #     hydro 1 s 0.8
  #     hydro 5 g 16
  #     hydro 3 d 4.9
  #  "Third tier" - improvements: -4.29 meV to -0.53 meV
  #     hydro 3 s 16
  #     ionic 2 p auto
  #     hydro 3 d 6.6
  #     hydro 4 f 11.6
  #  "Fourth tier" - improvements: -0.75 meV to -0.25 meV
  #     hydro 2 p 4.5
  #     hydro 2 s 2.4
  #     hydro 5 g 14.4
  #     hydro 4 d 14.4
  #     hydro 4 f 16.8
  # Further basis functions - -0.21 meV and below
  #     hydro 3 p 14.8
  #     hydro 3 s 4.4
  #     hydro 3 d 19.6
  #     hydro 5 g 12.8
  ################################################################################
  #
  #  FHI-aims code project
  #  VB, Fritz-Haber Institut, 2009
  #
  #  Suggested "light" defaults for O atom (to be pasted into control.in file)
  #  Be sure to double-check any results obtained with these settings for post-processing,
  #  e.g., with the "tight" defaults and larger basis sets.
  #
  ################################################################################
    species        O
  #     global species definitions
      nucleus             8
      mass                15.9994
  #
      l_hartree           4
  #
      cut_pot             3.5  1.5  1.0
      basis_dep_cutoff    1e-4
  #
      radial_base         36 5.0
      radial_multiplier   1
       angular_grids specified
        division   0.2659   50
        division   0.4451  110
        division   0.6052  194
        division   0.7543  302
  #      division   0.8014  434
  #      division   0.8507  590
  #      division   0.8762  770
  #      division   0.9023  974
  #      division   1.2339 1202
  #      outer_grid 974
        outer_grid 302
  ################################################################################
  #
  #  Definition of "minimal" basis
  #
  ################################################################################
  #     valence basis states
      valence      2  s   2.
      valence      2  p   4.
  #     ion occupancy
      ion_occ      2  s   1.
      ion_occ      2  p   3.
  ################################################################################
  #
  #  Suggested additional basis functions. For production calculations,
  #  uncomment them one after another (the most important basis functions are
  #  listed first).
  #
  #  Constructed for dimers: 1.0 A, 1.208 A, 1.5 A, 2.0 A, 3.0 A
  #
  ################################################################################
  #  "First tier" - improvements: -699.05 meV to -159.38 meV
       hydro 2 p 1.8
       hydro 3 d 7.6
       hydro 3 s 6.4
  #  "Second tier" - improvements: -49.91 meV to -5.39 meV
  #     hydro 4 f 11.6
  #     hydro 3 p 6.2
  #     hydro 3 d 5.6
  #     hydro 5 g 17.6
  #     hydro 1 s 0.75
  #  "Third tier" - improvements: -2.83 meV to -0.50 meV
  #     ionic 2 p auto
  #     hydro 4 f 10.8
  #     hydro 4 d 4.7
  #     hydro 2 s 6.8
  #  "Fourth tier" - improvements: -0.40 meV to -0.12 meV
  #     hydro 3 p 5
  #     hydro 3 s 3.3
  #     hydro 5 g 15.6
  #     hydro 4 f 17.6
  #     hydro 4 d 14
  # Further basis functions - -0.08 meV and below
  #     hydro 3 s 2.1
  #     hydro 4 d 11.6
  #     hydro 3 p 16
  #     hydro 2 s 17.2
  ################################################################################
  #
  #  FHI-aims code project
  #  VB, Fritz-Haber Institut, 2009
  #
  #  Suggested "light" defaults for Na atom (to be pasted into control.in file)
  #  Be sure to double-check any results obtained with these settings for post-processing,
  #  e.g., with the "tight" defaults and larger basis sets.
  #
  ################################################################################
    species        Na
  #     global species definitions
      nucleus             11
      mass                22.98976928
  #
      l_hartree           4
  #
      cut_pot             4.0          1.5  1.0
      basis_dep_cutoff    1e-4
  #
      radial_base         40 5.5
      radial_multiplier   1
      angular_grids       specified
        division   0.5925  110
        division   0.7843  194
        division   1.0201  302
  #      division   1.1879  434
  #      division   1.3799  590
  #      division   1.4503  770
  #      division   7.0005  974
  #      outer_grid  974
        outer_grid  302
  ################################################################################
  #
  #  Definition of "minimal" basis
  #
  ################################################################################
  #     valence basis states
      valence      3  s   1.
      valence      2  p   6.
  #     ion occupancy
      ion_occ      2  s   2.
      ion_occ      2  p   6.
  ################################################################################
  #
  #  Suggested additional basis functions. For production calculations,
  #  uncomment them one after another (the most important basis functions are
  #  listed first).
  #
  #  Constructed for dimers: 2.0 A, 2.5 A, 3.0 A, 3.75 A, 4.5 A
  #
  ################################################################################
  #  "First tier" - improvements: -60.09 meV to -10.02 meV
       hydro 2 p 1.2
       hydro 3 s 1.8
       hydro 3 d 3.8
  #  "Second tier" - improvements: -2.94 meV to -1.27 meV
  #     hydro 4 p 3.1
  #     hydro 3 s 10
  #     hydro 4 f 6.2
  #     hydro 4 d 1.3
  #  "Third tier" - improvements: -0.83 meV to -0.07 meV
  #     hydro 3 d 7.8
  #     hydro 3 p 2.3
  #     hydro 5 g 9.6
  #     hydro 4 p 0.85
  #     hydro 5 f 1.8
  #     hydro 2 s 0.6
  #  Further basis functions that fell out of the optimization - noise level...
  #     hydro 5 g 0.1
  #     hydro 4 d 3.4
  #     hydro 4 s 0.1
  
  
  -----------------------------------------------------------------------
  Completed first pass over input file control.in .
  -----------------------------------------------------------------------
  
  
  -----------------------------------------------------------------------
  Parsing geometry.in (first pass over file, find array dimensions only).
  The contents of geometry.in will be repeated verbatim below
  unless switched off by setting 'verbatim_writeout .false.' .
  in the first line of geometry.in .
  -----------------------------------------------------------------------
  
  #=======================================#
  # iterations/iteration0000/aims-chain-node-0.00000/geometry.in
  #=======================================#
  atom -2.5409970000000000 -2.7009513400000000 -1.1910265600000001 C
  atom -1.9004125700000001 -1.3244290500000000 -1.2248322800000000 C
  atom -2.4054487000000000 -0.3765954400000000 -1.8343178800000000 O
  atom -1.9520211100000000 -3.4487298000000002 -0.6447887500000000 H
  atom -3.5318724300000000 -2.6157931600000000 -0.7253189200000000 H
  atom -2.6929623999999999 -3.0419946300000000 -2.2233041099999999 H
  atom -0.7344229400000000 -1.2045584800000000 -0.5198562799999999 N
  atom 0.0434255400000000 0.0207951900000000 -0.5258734100000000 C
  atom -0.4091538500000000 0.9969727200000000 0.5772292900000000 C
  atom 1.5152748700000001 -0.3844878400000000 -0.3343641100000000 C
  atom 1.8260280600000001 -1.4611606900000000 0.1845576100000000 O
  atom -0.2584443600000000 -2.0120236299999998 -0.1162372600000000 H
  atom -0.1008685100000000 0.5001976800000000 -1.5089619900000000 H
  atom -1.4707142300000000 1.2340114499999999 0.4330063000000000 H
  atom -0.2751531600000000 0.5411330600000001 1.5679114700000001 H
  atom 0.1632299200000000 1.9349269899999999 0.5437020900000000 H
  atom 2.4237092499999999 0.5450381900000000 -0.7453760400000000 N
  atom 3.8582388600000002 0.3754620100000000 -0.5778966300000000 C
  atom 2.0773375999999999 1.3847885900000001 -1.1995920400000000 H
  atom 4.0170127700000000 -0.5854923800000000 -0.0759185500000000 H
  atom 4.3714382599999997 0.3593241600000000 -1.5501734400000000 H
  atom 4.2827761000000004 1.1795664200000000 0.0404314800000000 H
  
  -----------------------------------------------------------------------
  Completed first pass over input file geometry.in .
  -----------------------------------------------------------------------
  

  Basic array size parameters:
  | Number of species                 :        5
  | Number of atoms                   :       22
  | Max. basis fn. angular momentum   :        2
  | Max. atomic/ionic basis occupied n:        3
  | Max. number of basis fn. types    :        2
  | Max. radial fns per species/type  :        4
  | Max. logarithmic grid size        :     1327
  | Max. radial integration grid size :       40
  | Max. angular integration grid size:      302
  | Max. angular grid division number :        8
  | Radial grid for Hartree potential :     1327
  | Number of spin channels           :        1

------------------------------------------------------------
          Reading file control.in.
------------------------------------------------------------
  XC: Using PBE gradient-corrected functionals.
  Spin treatment: No spin polarisation.
  Non-relativistic treatment of kinetic energy.
  Charge =   0.000000E+00: Neutral system requested explicitly.
  Occupation type: Gaussian broadening, width =   0.100000E-01 eV.
  Using pulay charge density mixing.
  Pulay mixing - number of memorized iterations:   10
  Charge density mixing - mixing parameter:     0.5000
  Convergence accuracy of self-consistent charge density:  0.1000E-04
  Convergence accuracy of sum of eigenvalues:  0.1000E-02
  Convergence accuracy of total energy:  0.1000E-05
  Maximum number of s.-c. iterations  :    60
  Forces will be computed.
  Cleaning forces before final output.
 
  Reading configuration options for species H                   .
  | Found nuclear charge :   1.0000
  | Found atomic mass :    1.00794000000000      amu
  | Found l_max for Hartree potential  :   4
  | Found cutoff potl. onset [A], width [A], scale factor :    3.50000    1.50000    1.00000
  | Threshold for basis-dependent cutoff potential is   0.100000E-03
  | Found data for basic radial integration grid :    24 points, outermost radius =    5.000 A
  | Found multiplier for basic radial grid :   1
  | Found angular grid specification: user-specified.
  | Specified grid contains     5 separate shells.
  | Check grid settings after all constraints further below.
  | Found free-atom valence shell :  1 s   1.000
  | No ionic wave fns used. Skipping ion_occ.
  | Found hydrogenic basis function :  2 s   2.100
  | Found hydrogenic basis function :  2 p   3.500
  Species H                   : Missing cutoff potential type.
  Defaulting to exp(1/x)/(1-x)^2 type cutoff potential.
  Species H : No 'logarithmic' tag. Using default grid for free atom:
  | Default logarithmic grid data [bohr] : 0.1000E-03 0.1000E+03 0.1012E+01
  Species H : On-site basis accuracy parameter (for Gram-Schmidt orthonormalisation) not specified.
  Using default value basis_acc =  0.1000000E-03.
  Species H                   : Using default innermost maximum threshold i_radial=  2 for radial functions.
  Species H                   : Default cutoff onset for free atom density etc. : 0.35000000E+01 AA.
  Species H                   : Basic radial grid will be enhanced according to radial_multiplier =   1, to contain    24 grid points.
 
  Reading configuration options for species C                   .
  | Found nuclear charge :   6.0000
  | Found atomic mass :    12.0107000000000      amu
  | Found l_max for Hartree potential  :   4
  | Found cutoff potl. onset [A], width [A], scale factor :    3.50000    1.50000    1.00000
  | Threshold for basis-dependent cutoff potential is   0.100000E-03
  | Found data for basic radial integration grid :    34 points, outermost radius =    5.000 A
  | Found multiplier for basic radial grid :   1
  | Found angular grid specification: user-specified.
  | Specified grid contains     5 separate shells.
  | Check grid settings after all constraints further below.
  | Found free-atom valence shell :  2 s   2.000
  | Found free-atom valence shell :  2 p   2.000
  | No ionic wave fns used. Skipping ion_occ.
  | No ionic wave fns used. Skipping ion_occ.
  | Found hydrogenic basis function :  2 p   1.700
  | Found hydrogenic basis function :  3 d   6.000
  | Found hydrogenic basis function :  2 s   4.900
  Species C                   : Missing cutoff potential type.
  Defaulting to exp(1/x)/(1-x)^2 type cutoff potential.
  Species C : No 'logarithmic' tag. Using default grid for free atom:
  | Default logarithmic grid data [bohr] : 0.1000E-03 0.1000E+03 0.1012E+01
  Species C : On-site basis accuracy parameter (for Gram-Schmidt orthonormalisation) not specified.
  Using default value basis_acc =  0.1000000E-03.
  Species C                   : Using default innermost maximum threshold i_radial=  2 for radial functions.
  Species C                   : Default cutoff onset for free atom density etc. : 0.35000000E+01 AA.
  Species C                   : Basic radial grid will be enhanced according to radial_multiplier =   1, to contain    34 grid points.
 
  Reading configuration options for species N                   .
  | Found nuclear charge :   7.0000
  | Found atomic mass :    14.0067000000000      amu
  | Found l_max for Hartree potential  :   4
  | Found cutoff potl. onset [A], width [A], scale factor :    3.50000    1.50000    1.00000
  | Threshold for basis-dependent cutoff potential is   0.100000E-03
  | Found data for basic radial integration grid :    35 points, outermost radius =    5.000 A
  | Found multiplier for basic radial grid :   1
  | Found angular grid specification: user-specified.
  | Specified grid contains     5 separate shells.
  | Check grid settings after all constraints further below.
  | Found free-atom valence shell :  2 s   2.000
  | Found free-atom valence shell :  2 p   3.000
  | No ionic wave fns used. Skipping ion_occ.
  | No ionic wave fns used. Skipping ion_occ.
  | Found hydrogenic basis function :  2 p   1.800
  | Found hydrogenic basis function :  3 d   6.800
  | Found hydrogenic basis function :  3 s   5.800
  Species N                   : Missing cutoff potential type.
  Defaulting to exp(1/x)/(1-x)^2 type cutoff potential.
  Species N : No 'logarithmic' tag. Using default grid for free atom:
  | Default logarithmic grid data [bohr] : 0.1000E-03 0.1000E+03 0.1012E+01
  Species N : On-site basis accuracy parameter (for Gram-Schmidt orthonormalisation) not specified.
  Using default value basis_acc =  0.1000000E-03.
  Species N                   : Using default innermost maximum threshold i_radial=  2 for radial functions.
  Species N                   : Default cutoff onset for free atom density etc. : 0.35000000E+01 AA.
  Species N                   : Basic radial grid will be enhanced according to radial_multiplier =   1, to contain    35 grid points.
 
  Reading configuration options for species O                   .
  | Found nuclear charge :   8.0000
  | Found atomic mass :    15.9994000000000      amu
  | Found l_max for Hartree potential  :   4
  | Found cutoff potl. onset [A], width [A], scale factor :    3.50000    1.50000    1.00000
  | Threshold for basis-dependent cutoff potential is   0.100000E-03
  | Found data for basic radial integration grid :    36 points, outermost radius =    5.000 A
  | Found multiplier for basic radial grid :   1
  | Found angular grid specification: user-specified.
  | Specified grid contains     5 separate shells.
  | Check grid settings after all constraints further below.
  | Found free-atom valence shell :  2 s   2.000
  | Found free-atom valence shell :  2 p   4.000
  | No ionic wave fns used. Skipping ion_occ.
  | No ionic wave fns used. Skipping ion_occ.
  | Found hydrogenic basis function :  2 p   1.800
  | Found hydrogenic basis function :  3 d   7.600
  | Found hydrogenic basis function :  3 s   6.400
  Species O                   : Missing cutoff potential type.
  Defaulting to exp(1/x)/(1-x)^2 type cutoff potential.
  Species O : No 'logarithmic' tag. Using default grid for free atom:
  | Default logarithmic grid data [bohr] : 0.1000E-03 0.1000E+03 0.1012E+01
  Species O : On-site basis accuracy parameter (for Gram-Schmidt orthonormalisation) not specified.
  Using default value basis_acc =  0.1000000E-03.
  Species O                   : Using default innermost maximum threshold i_radial=  2 for radial functions.
  Species O                   : Default cutoff onset for free atom density etc. : 0.35000000E+01 AA.
  Species O                   : Basic radial grid will be enhanced according to radial_multiplier =   1, to contain    36 grid points.
 
  Reading configuration options for species Na                  .
  | Found nuclear charge :  11.0000
  | Found atomic mass :    22.9897692800000      amu
  | Found l_max for Hartree potential  :   4
  | Found cutoff potl. onset [A], width [A], scale factor :    4.00000    1.50000    1.00000
  | Threshold for basis-dependent cutoff potential is   0.100000E-03
  | Found data for basic radial integration grid :    40 points, outermost radius =    5.500 A
  | Found multiplier for basic radial grid :   1
  | Found angular grid specification: user-specified.
  | Specified grid contains     4 separate shells.
  | Check grid settings after all constraints further below.
  | Found free-atom valence shell :  3 s   1.000
  | Found free-atom valence shell :  2 p   6.000
  | No ionic wave fns used. Skipping ion_occ.
  | No ionic wave fns used. Skipping ion_occ.
  | Found hydrogenic basis function :  2 p   1.200
  | Found hydrogenic basis function :  3 s   1.800
  | Found hydrogenic basis function :  3 d   3.800
  Species Na                  : Missing cutoff potential type.
  Defaulting to exp(1/x)/(1-x)^2 type cutoff potential.
  Species Na: No 'logarithmic' tag. Using default grid for free atom:
  | Default logarithmic grid data [bohr] : 0.1000E-03 0.1000E+03 0.1012E+01
  Species Na: On-site basis accuracy parameter (for Gram-Schmidt orthonormalisation) not specified.
  Using default value basis_acc =  0.1000000E-03.
  Species Na                  : Using default innermost maximum threshold i_radial=  2 for radial functions.
  Species Na                  : Default cutoff onset for free atom density etc. : 0.40000000E+01 AA.
  Species Na                  : Basic radial grid will be enhanced according to radial_multiplier =   1, to contain    40 grid points.
 
  Finished reading input file 'control.in'. Consistency checks are next.
 
  MPI_IN_PLACE appears to work with this MPI implementation.
  | Keeping use_mpi_in_place .true. (see manual).
  Target number of points in a grid batch is not set. Defaulting to  100
  Method for grid partitioning is not set. Defaulting to parallel hash+maxmin partitioning.
  Batch size limit is not set. Defaulting to    200
  By default, will store active basis functions for each batch.
  If in need of memory, prune_basis_once .false. can be used to disable this option.
  communication_type for Hartree potential was not specified.
  Defaulting to calc_hartree .
  Pulay mixer: Number of initial linear mixing iterations not set.
  Defaulting to    0 iterations.
  Work space size for distributed Hartree potential not set.
  Defaulting to   0.200000E+03 MB.
  Algorithm-dependent basis array size parameters:
  | n_max_pulay                         :       10
  Presetting        40 iterations before the initial mixing cycle
  is restarted anyway using the sc_init_iter criterion / keyword.
  Presetting a factor      1.000 between actual scf density residual
  and density convergence criterion sc_accuracy_rho below which sc_init_iter
  takes no effect.
  Geometry relaxation not requested: no relaxation will be performed.
  Force calculation: scf convergence accuracy of forces not set.
  Defaulting to 'sc_accuracy_forces not_checked'.
  Handling of forces: Unphysical translation and rotation will be removed from forces.
  No accuracy limit for integral partition fn. given. Defaulting to  0.1000E-14.
  No threshold value for u(r) in integrations given. Defaulting to  0.1000E-05.
  No accuracy for occupation numbers given. Defaulting to  0.1000E-12.
  No threshold value for occupation numbers given. Defaulting to  0.0000E+00.
  No accuracy for fermi level given. Defaulting to  0.1000E-19.
  Maximum # of iterations to find E_F not set. Defaulting to  200.
  Preferred method for the eigenvalue solver ('KS_method') not specified in 'control.in'.
  Calling BLACS routine to test compilation state
  The best choice would be 'elsi', but your version of FHI-aims is compiled without ScaLAPACK support.
  Defaulting to 'lapack_fast' instead (serial solution, time will not improve with more CPUs).
  Will not use alltoall communication since running on < 1024 CPUs.
  Threshold for basis singularities not set.
  Default threshold for basis singularities:  0.1000E-04
  partition_type (choice of integration weights) for integrals was not specified.
  | Using a version of the partition function of Stratmann and coworkers ('stratmann_smoother').
  | At each grid point, the set of atoms used to build the partition table is smoothly restricted to
  | only those atoms whose free-atom density would be non-zero at that grid point.
  Partitioning for Hartree potential was not defined. Using partition_type for integrals.
  | Adjusted default value of keyword multip_moments_threshold to:       0.10000000E-11
  | This value may affect high angular momentum components of the Hartree potential in periodic systems.
  No q(lm)/r^(l+1) cutoff set for long-range Hartree potential.
  | Using default value of  0.100000E-09 .
  | Verify using the multipole_threshold keyword.
  Defaulting to new monopole extrapolation.
  Density update method: automatic selection selected.
------------------------------------------------------------


------------------------------------------------------------
          Reading geometry description geometry.in.
------------------------------------------------------------
  Input structure read successfully.
  The structure contains       22 atoms,  and a total of         78.000 electrons.

  Input geometry:
  | No unit cell requested.
  | Atomic structure:
  |       Atom                x [A]            y [A]            z [A]
  |    1: Species C            -2.54099700       -2.70095134       -1.19102656
  |    2: Species C            -1.90041257       -1.32442905       -1.22483228
  |    3: Species O            -2.40544870       -0.37659544       -1.83431788
  |    4: Species H            -1.95202111       -3.44872980       -0.64478875
  |    5: Species H            -3.53187243       -2.61579316       -0.72531892
  |    6: Species H            -2.69296240       -3.04199463       -2.22330411
  |    7: Species N            -0.73442294       -1.20455848       -0.51985628
  |    8: Species C             0.04342554        0.02079519       -0.52587341
  |    9: Species C            -0.40915385        0.99697272        0.57722929
  |   10: Species C             1.51527487       -0.38448784       -0.33436411
  |   11: Species O             1.82602806       -1.46116069        0.18455761
  |   12: Species H            -0.25844436       -2.01202363       -0.11623726
  |   13: Species H            -0.10086851        0.50019768       -1.50896199
  |   14: Species H            -1.47071423        1.23401145        0.43300630
  |   15: Species H            -0.27515316        0.54113306        1.56791147
  |   16: Species H             0.16322992        1.93492699        0.54370209
  |   17: Species N             2.42370925        0.54503819       -0.74537604
  |   18: Species C             3.85823886        0.37546201       -0.57789663
  |   19: Species H             2.07733760        1.38478859       -1.19959204
  |   20: Species H             4.01701277       -0.58549238       -0.07591855
  |   21: Species H             4.37143826        0.35932416       -1.55017344
  |   22: Species H             4.28277610        1.17956642        0.04043148
  |

  | The smallest distance between any two atoms is         1.01561126 AA.
  |
  | The first atom of this pair is atom number                     17 .
  | The second atom of this pair is atom number                    19 .

  Number of empty states per atom not set in control.in - providing a guess from actual geometry.
  | Total number of empty states used during s.c.f. cycle:       48
  If you use a very high smearing, use empty_states (per atom!) in control.in to increase this value.

  Structure-dependent array size parameters: 
  | Maximum number of distinct radial functions  :       28
  | Maximum number of basis functions            :      200
  | Number of Kohn-Sham states (occupied + empty):       87
------------------------------------------------------------

------------------------------------------------------------
          Preparing all fixed parts of the calculation.
------------------------------------------------------------
  Determining machine precision:
    2.225073858507201E-308
  Setting up grids for atomic and cluster calculations.

  Creating wave function, potential, and density for free atoms.

  Species: H

  List of occupied orbitals and eigenvalues:
    n    l              occ      energy [Ha]    energy [eV]
    1    0           1.0000        -0.237589        -6.4651


  Species: C

  List of occupied orbitals and eigenvalues:
    n    l              occ      energy [Ha]    energy [eV]
    1    0           2.0000       -10.038835      -273.1706
    2    0           2.0000        -0.502696       -13.6791
    2    1           2.0000        -0.191971        -5.2238


  Species: N

  List of occupied orbitals and eigenvalues:
    n    l              occ      energy [Ha]    energy [eV]
    1    0           2.0000       -14.128000      -384.4424
    2    0           2.0000        -0.681077       -18.5330
    2    1           3.0000        -0.259788        -7.0692


  Species: O

  List of occupied orbitals and eigenvalues:
    n    l              occ      energy [Ha]    energy [eV]
    1    0           2.0000       -18.898188      -514.2459
    2    0           2.0000        -0.878505       -23.9053
    2    1           4.0000        -0.331779        -9.0282


  Species: Na

  List of occupied orbitals and eigenvalues:
    n    l              occ      energy [Ha]    energy [eV]
    1    0           2.0000       -37.908205     -1031.5347
    2    0           2.0000        -2.061650       -56.1004
    3    0           1.0000        -0.086939        -2.3657
    2    1           6.0000        -1.037965       -28.2445

  Creating fixed part of basis set: Ionic, confined, hydrogenic.
 
  H                    hydrogenic:
 
  List of hydrogenic basis orbitals: 
    n    l      effective z      eigenvalue [eV]  inner max. [A]     outer max. [A]     outer radius [A]   
    2    0         2.100000       -14.9728           0.193243           1.317208           4.583499
    2    1         3.500000       -41.6669           0.602369           0.602369           3.723403
 
 
  C                    hydrogenic:
 
  List of hydrogenic basis orbitals: 
    n    l      effective z      eigenvalue [eV]  inner max. [A]     outer max. [A]     outer radius [A]   
    2    1         1.700000        -9.7616           1.230570           1.230570           4.607917
    3    2         6.000000       -54.4224           0.792453           0.792453           3.883070
    2    0         4.900000       -81.6679           0.082559           0.562749           3.078220
 
 
  N                    hydrogenic:
 
  List of hydrogenic basis orbitals: 
    n    l      effective z      eigenvalue [eV]  inner max. [A]     outer max. [A]     outer radius [A]   
    2    1         1.800000       -10.9749           1.177451           1.177451           4.573712
    3    2         6.800000       -69.9026           0.704619           0.704619           3.538137
    3    0         5.800000       -50.8545           0.067388           1.191934           4.250239
 
 
  O                    hydrogenic:
 
  List of hydrogenic basis orbitals: 
    n    l      effective z      eigenvalue [eV]  inner max. [A]     outer max. [A]     outer radius [A]   
    2    1         1.800000       -10.9749           1.164242           1.164242           4.578029
    3    2         7.600000       -87.3180           0.624125           0.624125           3.251020
    3    0         6.400000       -61.9207           0.061167           1.081902           4.001998
 
 
  Na                   hydrogenic:
 
  List of hydrogenic basis orbitals: 
    n    l      effective z      eigenvalue [eV]  inner max. [A]     outer max. [A]     outer radius [A]   
    2    1         1.200000        -4.7043           1.699681           1.699681           5.107393
    3    0         1.800000        -2.7647           0.215330           3.132057           5.107393
    3    2         3.800000       -21.8265           1.252092           1.252092           5.045336
 

  Adding cutoff potential to free-atom effective potential.
  Creating atomic-like basis functions for current effective potential.

  Species H                   :

  List of atomic basis orbitals and eigenvalues:
    n    l      energy [Ha]    energy [eV]    outer radius [A]
    1    0        -0.237589        -6.4651       4.527807


  Species C                   :

  List of atomic basis orbitals and eigenvalues:
    n    l      energy [Ha]    energy [eV]    outer radius [A]
    1    0       -10.038835      -273.1706       1.934409
    2    0        -0.502696       -13.6791       4.496620
    2    1        -0.191971        -5.2238       4.551928


  Species N                   :

  List of atomic basis orbitals and eigenvalues:
    n    l      energy [Ha]    energy [eV]    outer radius [A]
    1    0       -14.128000      -384.4424       1.637919
    2    0        -0.681077       -18.5330       4.463241
    2    1        -0.259788        -7.0692       4.518138


  Species O                   :

  List of atomic basis orbitals and eigenvalues:
    n    l      energy [Ha]    energy [eV]    outer radius [A]
    1    0       -18.898188      -514.2459       1.415765
    2    0        -0.878505       -23.9053       4.413171
    2    1        -0.331779        -9.0282       4.522403


  Species Na                  :

  List of atomic basis orbitals and eigenvalues:
    n    l      energy [Ha]    energy [eV]    outer radius [A]
    1    0       -37.908205     -1031.5347       1.017136
    2    0        -2.061650       -56.1004       4.251681
    3    0        -0.086939        -2.3657       5.107393
    2    1        -1.037965       -28.2445       4.746176

  Assembling full basis from fixed parts.
  | Species H :   atomic orbital   1 s accepted.
  | Species H :    hydro orbital   2 s accepted.
  | Species H :    hydro orbital   2 p accepted.
  | Species C :   atomic orbital   1 s accepted.
  | Species C :    hydro orbital   2 s accepted.
  | Species C :   atomic orbital   2 s accepted.
  | Species C :   atomic orbital   2 p accepted.
  | Species C :    hydro orbital   2 p accepted.
  | Species C :    hydro orbital   3 d accepted.
  | Species N :   atomic orbital   1 s accepted.
  | Species N :    hydro orbital   3 s accepted.
  | Species N :   atomic orbital   2 s accepted.
  | Species N :   atomic orbital   2 p accepted.
  | Species N :    hydro orbital   2 p accepted.
  | Species N :    hydro orbital   3 d accepted.
  | Species O :   atomic orbital   1 s accepted.
  | Species O :    hydro orbital   3 s accepted.
  | Species O :   atomic orbital   2 s accepted.
  | Species O :   atomic orbital   2 p accepted.
  | Species O :    hydro orbital   2 p accepted.
  | Species O :    hydro orbital   3 d accepted.
  | Species Na :   atomic orbital   1 s accepted.
  | Species Na :   atomic orbital   2 s accepted.
  | Species Na :   atomic orbital   3 s accepted.
  | Species Na :    hydro orbital   3 s accepted.
  | Species Na :   atomic orbital   2 p accepted.
  | Species Na :    hydro orbital   2 p accepted.
  | Species Na :    hydro orbital   3 d accepted.
 
  Basis size parameters after reduction:
  | Total number of radial functions:       28
  | Total number of basis functions :      200
 
  Per-task memory consumption for arrays in subroutine allocate_ext:
  |           7.142412MB.
  Testing on-site integration grid accuracy.
  |  Species  Function  <phi|h_atom|phi> (log., in eV)  <phi|h_atom|phi> (rad., in eV)
           1        1                 -6.4663192853                 -6.4651273558
           1        2                 13.7111246313                 13.7170609718
           1        3                 25.2673269279                 25.2674696378
           2        4               -273.1705927641               -273.1705631568
           2        5                -10.7109323383                -10.7107120029
           2        6                 17.4381822266                 17.4352413244
           2        7                 -5.2255326521                 -5.2270484734
           2        8                  8.6835629259                  8.6603288385
           2        9                 27.4952418996                 27.4953360207
           3       10               -384.4424306495               -384.4423701208
           3       11                 12.5842251816                 12.5842222903
           3       12                -15.7264628251                -15.7264433455
           3       13                 -7.0696854293                 -7.0701769954
           3       14                  8.8090390882                  8.7901077751
           3       15                 35.9586762123                 35.9588528632
           4       16               -514.2458688638               -514.2457643834
           4       17                 15.1795651126                 15.1795290741
           4       18                -21.5359799773                -21.5360846186
           4       19                 -9.0283069236                 -9.0284644067
           4       20                  8.3027758564                  8.2834874195
           4       21                 45.8339351984                 45.8338762259
           5       22              -1031.5347301569              -1031.5343700005
           5       23                -56.1003590737                -56.1003577733
           5       24                 -2.3872449526                 -2.3874266514
           5       25                  4.8089581560                  4.7916273983
           5       26                -28.2444627299                -28.2444626864
           5       27                  0.6487953582                  0.6484930494
           5       28                 10.4219557667                 10.4220291668

  Preparing densities etc. for the partition functions (integrals / Hartree potential).

  Preparations completed.
  max(cpu_time)          :      0.284 s.
  Wall clock time (cpu1) :      0.381 s.
------------------------------------------------------------

------------------------------------------------------------
          Begin self-consistency loop: Initialization.

          Date     :  20180216, Time     :  100535.216
------------------------------------------------------------

  Initializing index lists of integration centers etc. from given atomic structure:
  | Number of centers in hartree potential         :        22
  | Number of centers in hartree multipole         :        22
  | Number of centers in electron density summation:        22
  | Number of centers in basis integrals           :        22
  | Number of centers in integrals                 :        22
  | Number of centers in hamiltonian               :        22
  Partitioning the integration grid into batches with parallel hashing+maxmin method.
  | Number of batches:     1246
  | Maximal batch size:     200
  | Minimal batch size:      49
  | Average batch size:      93.839
  | Standard deviation of batch sizes:      30.561

  Integration load balanced across     8 MPI tasks.
  Work distribution over tasks is as follows:
  Task     0 has      14644 integration points.
  Task     1 has      14572 integration points.
  Task     2 has      14675 integration points.
  Task     3 has      14557 integration points.
  Task     4 has      14656 integration points.
  Task     5 has      14589 integration points.
  Task     6 has      14574 integration points.
  Task     7 has      14657 integration points.
  Initializing partition tables, free-atom densities, potentials, etc. across the integration grid (initialize_grid_storage).
  | initialize_grid_storage: Actual outermost partition radius vs. multipole_radius_free
  | (-- VB: in principle, multipole_radius_free should be larger, hence this output)
  | Species        1: Confinement radius =              4.999999999999999 AA, multipole_radius_free =              5.054417573612229 AA.
  | Species        1: outer_partition_radius set to              5.054417573612229 AA .
  | Species        2: Confinement radius =              4.999999999999999 AA, multipole_radius_free =              5.019602836301480 AA.
  | Species        2: outer_partition_radius set to              5.019602836301480 AA .
  | Species        3: Confinement radius =              4.999999999999999 AA, multipole_radius_free =              5.043624274424571 AA.
  | Species        3: outer_partition_radius set to              5.043624274424571 AA .
  | Species        4: Confinement radius =              4.999999999999999 AA, multipole_radius_free =              5.048384829883283 AA.
  | Species        4: outer_partition_radius set to              5.048384829883283 AA .
  | Species        5: Confinement radius =              5.500000000000000 AA, multipole_radius_free =              5.563704032673898 AA.
  | Species        5: outer_partition_radius set to              5.563704032673898 AA .
  | Original list of interatomic distances with          22 x         22 entries is created.
  | Net number of integration points:   116924
  | of which are non-zero points    :    99399
  Renormalizing the initial density to the exact electron count on the 3D integration grid.
  | Initial density: Formal number of electrons (from input files) :      78.0000000000
  | Integrated number of electrons on 3D grid     :      77.9999323883
  | Charge integration error                      :      -0.0000676117
  | Normalization factor for density and gradient :       1.0000008668
  Obtaining max. number of non-zero basis functions in each batch (get_n_compute_maxes).
  | Maximal number of non-zero basis functions:      180 in task     0
  | Maximal number of non-zero basis functions:      189 in task     1
  | Maximal number of non-zero basis functions:      188 in task     2
  | Maximal number of non-zero basis functions:      188 in task     3
  | Maximal number of non-zero basis functions:      189 in task     4
  | Maximal number of non-zero basis functions:      189 in task     5
  | Maximal number of non-zero basis functions:      189 in task     6
  | Maximal number of non-zero basis functions:      189 in task     7
  Selecting the method for density update.
  Loop over occupied states selected for charge density update.
  Allocating        0.139 MB for KS_eigenvector
  Integrating Hamiltonian matrix: batch-based integration.
  Time summed over all CPUs for integration: real work        4.598 s, elapsed        5.371 s
  Integrating overlap matrix.
  Time summed over all CPUs for integration: real work        2.020 s, elapsed        2.563 s

  Updating Kohn-Sham eigenvalues, eigenvectors, occupation numbers, and Fermi level.
  Solving generalized eigenproblem
  Updating Kohn-Sham eigenvalues and eigenfunctions.
  Transforming overlap matrix and checking for singularities.
  Overlap matrix is nonsingular:
  | Lowest eigenvalue:  0.254574E-02
  Solving real generalised eigenvalue problem by standard LAPACK (fast)

  Obtaining occupation numbers and chemical potential using ELSI.
  | Chemical potential (Fermi level):    -9.60797642eV
  Writing Kohn-Sham eigenvalues.

  State    Occupation    Eigenvalue [Ha]    Eigenvalue [eV]
      1       2.00000         -18.970847         -516.22301
      2       2.00000         -18.970135         -516.20365
      3       2.00000         -14.251102         -387.79223
      4       2.00000         -14.250009         -387.76248
      5       2.00000         -10.165458         -276.61618
      6       2.00000         -10.164296         -276.58458
      7       2.00000         -10.161591         -276.51095
      8       2.00000         -10.142851         -276.00102
      9       2.00000         -10.130694         -275.67020
     10       2.00000         -10.129552         -275.63913
     11       2.00000          -1.127129          -30.67073
     12       2.00000          -1.121737          -30.52400
     13       2.00000          -1.009827          -27.47878
     14       2.00000          -1.007951          -27.42774
     15       2.00000          -0.879703          -23.93795
     16       2.00000          -0.836964          -22.77496
     17       2.00000          -0.813682          -22.14142
     18       2.00000          -0.754601          -20.53375
     19       2.00000          -0.689958          -18.77470
     20       2.00000          -0.678160          -18.45368
     21       2.00000          -0.642461          -17.48224
     22       2.00000          -0.601635          -16.37132
     23       2.00000          -0.586605          -15.96232
     24       2.00000          -0.579415          -15.76669
     25       2.00000          -0.569653          -15.50104
     26       2.00000          -0.555214          -15.10813
     27       2.00000          -0.548317          -14.92047
     28       2.00000          -0.543491          -14.78914
     29       2.00000          -0.531854          -14.47248
     30       2.00000          -0.525806          -14.30790
     31       2.00000          -0.508899          -13.84783
     32       2.00000          -0.505696          -13.76069
     33       2.00000          -0.493307          -13.42357
     34       2.00000          -0.480312          -13.06997
     35       2.00000          -0.467098          -12.71038
     36       2.00000          -0.403005          -10.96633
     37       2.00000          -0.397060          -10.80456
     38       2.00000          -0.387279          -10.53839
     39       2.00000          -0.378690          -10.30467
     40       0.00000          -0.158570           -4.31491
     41       0.00000          -0.147013           -4.00044
     42       0.00000          -0.055638           -1.51399
     43       0.00000          -0.044371           -1.20739
     44       0.00000          -0.036009           -0.97985
     45       0.00000          -0.013738           -0.37383
     46       0.00000          -0.005936           -0.16152
     47       0.00000          -0.001255           -0.03415
     48       0.00000           0.006540            0.17795
     49       0.00000           0.009956            0.27092
     50       0.00000           0.021958            0.59751
     51       0.00000           0.030241            0.82290
     52       0.00000           0.032524            0.88503
     53       0.00000           0.033728            0.91778
     54       0.00000           0.035973            0.97888
     55       0.00000           0.043507            1.18389
     56       0.00000           0.053630            1.45935
     57       0.00000           0.066971            1.82238
     58       0.00000           0.091968            2.50258
     59       0.00000           0.126885            3.45272
     60       0.00000           0.147467            4.01277
     61       0.00000           0.163931            4.46078
     62       0.00000           0.181082            4.92749
     63       0.00000           0.190249            5.17695
     64       0.00000           0.201286            5.47726
     65       0.00000           0.209028            5.68794
     66       0.00000           0.226626            6.16681
     67       0.00000           0.235795            6.41632
     68       0.00000           0.246726            6.71376
     69       0.00000           0.260636            7.09228
     70       0.00000           0.266534            7.25275
     71       0.00000           0.270071            7.34902
     72       0.00000           0.288956            7.86289
     73       0.00000           0.308907            8.40578
     74       0.00000           0.325987            8.87055
     75       0.00000           0.331296            9.01503
     76       0.00000           0.348813            9.49167
     77       0.00000           0.376053           10.23293
     78       0.00000           0.392273           10.67430
     79       0.00000           0.419406           11.41261
     80       0.00000           0.437284           11.89911
     81       0.00000           0.445612           12.12571
     82       0.00000           0.452204           12.30510
     83       0.00000           0.477304           12.98811
     84       0.00000           0.511197           13.91037
     85       0.00000           0.524591           14.27486
     86       0.00000           0.545536           14.84478
     87       0.00000           0.562541           15.30752

  Highest occupied state (VBM) at    -10.30467331 eV
  | Occupation number:      2.00000000

  Lowest unoccupied state (CBM) at    -4.31491307 eV
  | Occupation number:      0.00000000

  Overall HOMO-LUMO gap:      5.98976024 eV.
  Calculating total energy contributions from superposition of free atom densities.

  Total energy components:
  | Sum of eigenvalues            :        -291.92408684 Ha       -7943.65857195 eV
  | XC energy correction          :         -66.06270442 Ha       -1797.65765122 eV
  | XC potential correction       :          84.91202542 Ha        2310.57377226 eV
  | Free-atom electrostatic energy:        -222.82769573 Ha       -6063.45010589 eV
  | Hartree energy correction     :           0.00000000 Ha           0.00000000 eV
  | vdW energy correction         :           0.00000000 Ha           0.00000000 eV
  | Entropy correction            :           0.00000000 Ha           0.00000000 eV
  | ---------------------------
  | Total energy                  :        -495.90246159 Ha      -13494.19255679 eV
  | Total energy, T -> 0          :        -495.90246159 Ha      -13494.19255679 eV  <-- do not rely on this value for anything but (periodic) metals
  | Electronic free energy        :        -495.90246159 Ha      -13494.19255679 eV

  Derived energy quantities:
  | Kinetic energy                :         490.35873966 Ha       13343.34020769 eV
  | Electrostatic energy          :        -920.19849682 Ha      -25039.87511327 eV
  | Energy correction for multipole
  | error in Hartree potential    :           0.00000000 Ha           0.00000000 eV
  | Sum of eigenvalues per atom                           :        -361.07538963 eV
  | Total energy (T->0) per atom                          :        -613.37238895 eV  <-- do not rely on this value for anything but (periodic) metals
  | Electronic free energy per atom                       :        -613.37238895 eV
  Initialize hartree_potential_storage
  Max. number of atoms included in rho_multipole:           22

  End scf initialization - timings             :  max(cpu_time)    wall_clock(cpu1)
  | Time for scf. initialization               :        1.768 s           1.886 s
  | Boundary condition initialization          :        0.000 s           0.001 s
  | Integration                                :        0.992 s           0.995 s
  | Solution of K.-S. eqns.                    :        0.044 s           0.060 s
  | Grid partitioning                          :        0.192 s           0.203 s
  | Preloading free-atom quantities on grid    :        0.008 s           0.015 s
  | Free-atom superposition energy             :        0.104 s           0.104 s
  | Total energy evaluation                    :        0.000 s           0.010 s

  Partial memory accounting:
  | Current value for overall tracked memory usage on task 0  :           0.782 MB
  | Peak value for overall tracked memory usage on task 0     :           1.589 MB after allocating wave
  | Largest tracked array allocation on task 0 so far         :           0.320 MB  when allocating ovlp
  Note:  These values currently only include a subset of arrays which are explicitly tracked.
  The "true" memory usage will be greater.
------------------------------------------------------------

------------------------------------------------------------
          Begin self-consistency iteration #    1

  Date     :  20180216, Time     :  100537.104
------------------------------------------------------------
  Evaluating new KS density.
  Integration grid: deviation in total charge (<rho> - N_e) =   0.000000E+00
  Pulay mixing of updated and previous charge densities.

  Evaluating partitioned Hartree potential by multipole expansion.
  | Analytical far-field extrapolation by fixed multipoles:
  | Hartree multipole sum: apparent total charge =  -0.488808E-03
  Summing up the Hartree potential.
  Time summed over all CPUs for potential: real work        4.712 s, elapsed        5.728 s
  | RMS charge density error from multipole expansion :   0.204334E-01

  Integrating Hamiltonian matrix: batch-based integration.
  Time summed over all CPUs for integration: real work        4.698 s, elapsed        6.329 s => Consider using load balancing!

  Updating Kohn-Sham eigenvalues, eigenvectors, occupation numbers, and Fermi level.
  Solving generalized eigenproblem
  Updating Kohn-Sham eigenvalues and eigenfunctions.
  Solving real generalised eigenvalue problem by standard LAPACK (fast)

  Obtaining occupation numbers and chemical potential using ELSI.
  | Chemical potential (Fermi level):    -2.35050622eV
  Writing Kohn-Sham eigenvalues.

  State    Occupation    Eigenvalue [Ha]    Eigenvalue [eV]
      1       2.00000         -18.622702         -506.74949
      2       2.00000         -18.597307         -506.05847
      3       2.00000         -13.987560         -380.62087
      4       2.00000         -13.969438         -380.12774
      5       2.00000         -10.060825         -273.76898
      6       2.00000         -10.044433         -273.32293
      7       2.00000          -9.955107         -270.89224
      8       2.00000          -9.885296         -268.99259
      9       2.00000          -9.839801         -267.75461
     10       2.00000          -9.830177         -267.49273
     11       2.00000          -0.967736          -26.33344
     12       2.00000          -0.944741          -25.70770
     13       2.00000          -0.866561          -23.58032
     14       2.00000          -0.853741          -23.23149
     15       2.00000          -0.736547          -20.04247
     16       2.00000          -0.686358          -18.67674
     17       2.00000          -0.668589          -18.19323
     18       2.00000          -0.614154          -16.71199
     19       2.00000          -0.566151          -15.40576
     20       2.00000          -0.548901          -14.93635
     21       2.00000          -0.512701          -13.95130
     22       2.00000          -0.458231          -12.46909
     23       2.00000          -0.448452          -12.20301
     24       2.00000          -0.436428          -11.87582
     25       2.00000          -0.427978          -11.64588
     26       2.00000          -0.421873          -11.47975
     27       2.00000          -0.405912          -11.04542
     28       2.00000          -0.393546          -10.70893
     29       2.00000          -0.386639          -10.52097
     30       2.00000          -0.372572          -10.13820
     31       2.00000          -0.364219           -9.91091
     32       2.00000          -0.356494           -9.70071
     33       2.00000          -0.345182           -9.39287
     34       2.00000          -0.343736           -9.35354
     35       2.00000          -0.319415           -8.69172
     36       2.00000          -0.237647           -6.46670
     37       2.00000          -0.227358           -6.18673
     38       2.00000          -0.218818           -5.95433
     39       2.00000          -0.197728           -5.38046
     40       0.00000          -0.045100           -1.22724
     41       0.00000          -0.029176           -0.79391
     42       0.00000           0.001930            0.05252
     43       0.00000           0.026650            0.72518
     44       0.00000           0.052136            1.41870
     45       0.00000           0.064930            1.76685
     46       0.00000           0.075010            2.04113
     47       0.00000           0.085879            2.33688
     48       0.00000           0.097359            2.64928
     49       0.00000           0.099856            2.71723
     50       0.00000           0.106940            2.90999
     51       0.00000           0.117788            3.20518
     52       0.00000           0.123050            3.34835
     53       0.00000           0.124392            3.38488
     54       0.00000           0.129837            3.53305
     55       0.00000           0.146401            3.98377
     56       0.00000           0.159574            4.34223
     57       0.00000           0.170571            4.64147
     58       0.00000           0.197578            5.37636
     59       0.00000           0.217360            5.91466
     60       0.00000           0.228327            6.21310
     61       0.00000           0.253540            6.89919
     62       0.00000           0.257280            7.00095
     63       0.00000           0.271210            7.37999
     64       0.00000           0.298437            8.12088
     65       0.00000           0.309604            8.42474
     66       0.00000           0.313646            8.53474
     67       0.00000           0.335507            9.12960
     68       0.00000           0.343144            9.33743
     69       0.00000           0.353895            9.62997
     70       0.00000           0.359113            9.77197
     71       0.00000           0.374863           10.20055
     72       0.00000           0.391290           10.64754
     73       0.00000           0.403371           10.97630
     74       0.00000           0.429230           11.67993
     75       0.00000           0.433144           11.78644
     76       0.00000           0.469438           12.77406
     77       0.00000           0.484088           13.17271
     78       0.00000           0.490462           13.34616
     79       0.00000           0.526759           14.33384
     80       0.00000           0.537234           14.61887
     81       0.00000           0.548539           14.92651
     82       0.00000           0.550213           14.97204
     83       0.00000           0.566954           15.42761
     84       0.00000           0.601671           16.37229
     85       0.00000           0.625124           17.01048
     86       0.00000           0.645568           17.56680
     87       0.00000           0.667130           18.15352

  Highest occupied state (VBM) at     -5.38045837 eV
  | Occupation number:      2.00000000

  Lowest unoccupied state (CBM) at    -1.22724372 eV
  | Occupation number:      0.00000000

  Overall HOMO-LUMO gap:      4.15321466 eV.

  Total energy components:
  | Sum of eigenvalues            :        -278.24210540 Ha       -7571.35291420 eV
  | XC energy correction          :         -67.37440582 Ha       -1833.35086221 eV
  | XC potential correction       :          86.61466544 Ha        2356.90496455 eV
  | Free-atom electrostatic energy:        -222.82769573 Ha       -6063.45010589 eV
  | Hartree energy correction     :         -13.69450025 Ha        -372.64631178 eV
  | vdW energy correction         :           0.00000000 Ha           0.00000000 eV
  | Entropy correction            :           0.00000000 Ha           0.00000000 eV
  | ---------------------------
  | Total energy                  :        -495.52404177 Ha      -13483.89522953 eV
  | Total energy, T -> 0          :        -495.52404177 Ha      -13483.89522953 eV  <-- do not rely on this value for anything but (periodic) metals
  | Electronic free energy        :        -495.52404177 Ha      -13483.89522953 eV

  Derived energy quantities:
  | Kinetic energy                :         496.51073849 Ha       13510.74461353 eV
  | Electrostatic energy          :        -924.66037444 Ha      -25161.28898084 eV
  | Energy correction for multipole
  | error in Hartree potential    :           0.06037379 Ha           1.64285428 eV
  | Sum of eigenvalues per atom                           :        -344.15240519 eV
  | Total energy (T->0) per atom                          :        -612.90432861 eV  <-- do not rely on this value for anything but (periodic) metals
  | Electronic free energy per atom                       :        -612.90432861 eV

  Self-consistency convergence accuracy:
  | Change of charge density      :  0.7256E+00
  | Change of sum of eigenvalues  :  0.3723E+03 eV
  | Change of total energy        :  0.1030E+02 eV

  End self-consistency iteration #     1       :  max(cpu_time)    wall_clock(cpu1)
  | Time for this iteration                    :        2.248 s           2.312 s
  | Charge density update                      :        0.744 s           0.747 s
  | Density mixing                             :        0.004 s           0.007 s
  | Hartree multipole update                   :        0.036 s           0.037 s
  | Hartree multipole summation                :        0.708 s           0.715 s
  | Integration                                :        0.792 s           0.790 s
  | Solution of K.-S. eqns.                    :        0.008 s           0.014 s
  | Total energy evaluation                    :        0.000 s           0.001 s

  Partial memory accounting:
  | Current value for overall tracked memory usage on task 0  :           0.782 MB
  | Peak value for overall tracked memory usage on task 0     :           1.934 MB after allocating gradient_basis_wave
  | Largest tracked array allocation on task 0 so far         :           0.864 MB  when allocating gradient_basis_wave
  Note:  These values currently only include a subset of arrays which are explicitly tracked.
  The "true" memory usage will be greater.
------------------------------------------------------------

------------------------------------------------------------
          Begin self-consistency iteration #    2

  Date     :  20180216, Time     :  100539.416
------------------------------------------------------------
  Evaluating new KS density.
  Integration grid: deviation in total charge (<rho> - N_e) =   1.421085E-14
  Pulay mixing of updated and previous charge densities.

  Evaluating partitioned Hartree potential by multipole expansion.
  | Analytical far-field extrapolation by fixed multipoles:
  | Hartree multipole sum: apparent total charge =  -0.546078E-03
  Summing up the Hartree potential.
  Time summed over all CPUs for potential: real work        4.677 s, elapsed        6.712 s
  | RMS charge density error from multipole expansion :   0.262035E-01

  Integrating Hamiltonian matrix: batch-based integration.
  Time summed over all CPUs for integration: real work        4.674 s, elapsed        6.021 s

  Updating Kohn-Sham eigenvalues, eigenvectors, occupation numbers, and Fermi level.
  Solving generalized eigenproblem
  Updating Kohn-Sham eigenvalues and eigenfunctions.
  Solving real generalised eigenvalue problem by standard LAPACK (fast)

  Obtaining occupation numbers and chemical potential using ELSI.
  | Chemical potential (Fermi level):    -2.34675493eV
  Highest occupied state (VBM) at     -6.33867456 eV
  | Occupation number:      2.00000000

  Lowest unoccupied state (CBM) at    -1.15692024 eV
  | Occupation number:      0.00000000

  Overall HOMO-LUMO gap:      5.18175431 eV.

  Checking to see if s.c.f. parameters should be adjusted.

  Total energy components:
  | Sum of eigenvalues            :        -278.89873939 Ha       -7589.22083405 eV
  | XC energy correction          :         -67.29437053 Ha       -1831.17299112 eV
  | XC potential correction       :          86.50392963 Ha        2353.89169006 eV
  | Free-atom electrostatic energy:        -222.82769573 Ha       -6063.45010589 eV
  | Hartree energy correction     :         -12.96555580 Ha        -352.81072426 eV
  | vdW energy correction         :           0.00000000 Ha           0.00000000 eV
  | Entropy correction            :           0.00000000 Ha           0.00000000 eV
  | ---------------------------
  | Total energy                  :        -495.48243182 Ha      -13482.76296526 eV
  | Total energy, T -> 0          :        -495.48243182 Ha      -13482.76296526 eV  <-- do not rely on this value for anything but (periodic) metals
  | Electronic free energy        :        -495.48243182 Ha      -13482.76296526 eV

  Derived energy quantities:
  | Kinetic energy                :         494.69140065 Ha       13461.23791199 eV
  | Electrostatic energy          :        -922.87946194 Ha      -25112.82788613 eV
  | Energy correction for multipole
  | error in Hartree potential    :           0.07184470 Ha           1.95499380 eV
  | Sum of eigenvalues per atom                           :        -344.96458337 eV
  | Total energy (T->0) per atom                          :        -612.85286206 eV  <-- do not rely on this value for anything but (periodic) metals
  | Electronic free energy per atom                       :        -612.85286206 eV

  Self-consistency convergence accuracy:
  | Change of charge density      :  0.3919E+00
  | Change of sum of eigenvalues  : -0.1787E+02 eV
  | Change of total energy        :  0.1132E+01 eV

  End self-consistency iteration #     2       :  max(cpu_time)    wall_clock(cpu1)
  | Time for this iteration                    :        2.232 s           2.386 s
  | Charge density update                      :        0.724 s           0.726 s
  | Density mixing                             :        0.008 s           0.017 s
  | Hartree multipole update                   :        0.032 s           0.024 s
  | Hartree multipole summation                :        0.844 s           0.844 s
  | Integration                                :        0.756 s           0.756 s
  | Solution of K.-S. eqns.                    :        0.008 s           0.014 s
  | Total energy evaluation                    :        0.000 s           0.000 s

  Partial memory accounting:
  | Current value for overall tracked memory usage on task 0  :           0.783 MB
  | Peak value for overall tracked memory usage on task 0     :           1.934 MB after allocating gradient_basis_wave
  | Largest tracked array allocation on task 0 so far         :           0.864 MB  when allocating gradient_basis_wave
  Note:  These values currently only include a subset of arrays which are explicitly tracked.
  The "true" memory usage will be greater.
------------------------------------------------------------

------------------------------------------------------------
          Begin self-consistency iteration #    3

  Date     :  20180216, Time     :  100541.802
------------------------------------------------------------
  Evaluating new KS density.
  Integration grid: deviation in total charge (<rho> - N_e) =   1.421085E-14
  Pulay mixing of updated and previous charge densities.

  Evaluating partitioned Hartree potential by multipole expansion.
  | Analytical far-field extrapolation by fixed multipoles:
  | Hartree multipole sum: apparent total charge =  -0.633213E-03
  Summing up the Hartree potential.
  Time summed over all CPUs for potential: real work        4.885 s, elapsed        6.126 s
  | RMS charge density error from multipole expansion :   0.328616E-01

  Integrating Hamiltonian matrix: batch-based integration.
  Time summed over all CPUs for integration: real work        4.528 s, elapsed        5.352 s

  Updating Kohn-Sham eigenvalues, eigenvectors, occupation numbers, and Fermi level.
  Solving generalized eigenproblem
  Updating Kohn-Sham eigenvalues and eigenfunctions.
  Solving real generalised eigenvalue problem by standard LAPACK (fast)

  Obtaining occupation numbers and chemical potential using ELSI.
  | Chemical potential (Fermi level):    -2.10899299eV
  Highest occupied state (VBM) at     -5.30997449 eV
  | Occupation number:      2.00000000

  Lowest unoccupied state (CBM) at    -0.99929919 eV
  | Occupation number:      0.00000000

  Overall HOMO-LUMO gap:      4.31067531 eV.

  Total energy components:
  | Sum of eigenvalues            :        -278.35102570 Ha       -7574.31678629 eV
  | XC energy correction          :         -67.43218543 Ha       -1834.92312538 eV
  | XC potential correction       :          86.67883027 Ha        2358.65097838 eV
  | Free-atom electrostatic energy:        -222.82769573 Ha       -6063.45010589 eV
  | Hartree energy correction     :         -13.54440160 Ha        -368.56191974 eV
  | vdW energy correction         :           0.00000000 Ha           0.00000000 eV
  | Entropy correction            :           0.00000000 Ha           0.00000000 eV
  | ---------------------------
  | Total energy                  :        -495.47647820 Ha      -13482.60095892 eV
  | Total energy, T -> 0          :        -495.47647820 Ha      -13482.60095892 eV  <-- do not rely on this value for anything but (periodic) metals
  | Electronic free energy        :        -495.47647820 Ha      -13482.60095892 eV

  Derived energy quantities:
  | Kinetic energy                :         494.16303560 Ha       13446.86036729 eV
  | Electrostatic energy          :        -922.20732836 Ha      -25094.53820082 eV
  | Energy correction for multipole
  | error in Hartree potential    :           0.08654341 Ha           2.35496614 eV
  | Sum of eigenvalues per atom                           :        -344.28712665 eV
  | Total energy (T->0) per atom                          :        -612.84549813 eV  <-- do not rely on this value for anything but (periodic) metals
  | Electronic free energy per atom                       :        -612.84549813 eV

  Self-consistency convergence accuracy:
  | Change of charge density      :  0.1705E+00
  | Change of sum of eigenvalues  :  0.1490E+02 eV
  | Change of total energy        :  0.1620E+00 eV

  End self-consistency iteration #     3       :  max(cpu_time)    wall_clock(cpu1)
  | Time for this iteration                    :        2.264 s           2.383 s
  | Charge density update                      :        0.884 s           0.886 s
  | Density mixing                             :        0.008 s           0.021 s
  | Hartree multipole update                   :        0.032 s           0.030 s
  | Hartree multipole summation                :        0.696 s           0.765 s
  | Integration                                :        0.668 s           0.670 s
  | Solution of K.-S. eqns.                    :        0.008 s           0.010 s
  | Total energy evaluation                    :        0.000 s           0.001 s

  Partial memory accounting:
  | Current value for overall tracked memory usage on task 0  :           0.783 MB
  | Peak value for overall tracked memory usage on task 0     :           1.935 MB after allocating gradient_basis_wave
  | Largest tracked array allocation on task 0 so far         :           0.864 MB  when allocating gradient_basis_wave
  Note:  These values currently only include a subset of arrays which are explicitly tracked.
  The "true" memory usage will be greater.
------------------------------------------------------------

------------------------------------------------------------
          Begin self-consistency iteration #    4

  Date     :  20180216, Time     :  100544.186
------------------------------------------------------------
  Evaluating new KS density.
  Integration grid: deviation in total charge (<rho> - N_e) =  -2.842171E-14
  Pulay mixing of updated and previous charge densities.

  Evaluating partitioned Hartree potential by multipole expansion.
  | Analytical far-field extrapolation by fixed multipoles:
  | Hartree multipole sum: apparent total charge =  -0.669986E-03
  Summing up the Hartree potential.
  Time summed over all CPUs for potential: real work        4.014 s, elapsed        4.066 s
  | RMS charge density error from multipole expansion :   0.354196E-01

  Integrating Hamiltonian matrix: batch-based integration.
  Time summed over all CPUs for integration: real work        4.171 s, elapsed        4.374 s

  Updating Kohn-Sham eigenvalues, eigenvectors, occupation numbers, and Fermi level.
  Solving generalized eigenproblem
  Updating Kohn-Sham eigenvalues and eigenfunctions.
  Solving real generalised eigenvalue problem by standard LAPACK (fast)

  Obtaining occupation numbers and chemical potential using ELSI.
  | Chemical potential (Fermi level):    -1.99120337eV
  Highest occupied state (VBM) at     -5.57055193 eV
  | Occupation number:      2.00000000

  Lowest unoccupied state (CBM) at    -0.89709436 eV
  | Occupation number:      0.00000000

  Overall HOMO-LUMO gap:      4.67345757 eV.

  Total energy components:
[...]
   Van der Waals                 :  0.341860E-02  0.610598E-02 -0.139622E-02
   ----------------------------------------------------------------
   Total forces(   3)            : -0.275555E-03 -0.181715E-02  0.747841E-03
  atom #    4
   Hellmann-Feynman              :  0.939435E-01  0.132361E+00  0.167139E-01
   Ionic forces                  :  0.000000E+00  0.000000E+00  0.000000E+00
   Multipole                     : -0.953768E-03 -0.145944E+00  0.402298E-01
   Pulay + GGA                   : -0.908122E-01  0.129905E-01 -0.549001E-01
   Van der Waals                 : -0.165076E-02  0.728388E-04 -0.118124E-02
   ----------------------------------------------------------------
   Total forces(   4)            :  0.526733E-03 -0.519934E-03  0.862418E-03
  atom #    5
   Hellmann-Feynman              :  0.172814E-02  0.369128E-01  0.200955E-01
   Ionic forces                  :  0.000000E+00  0.000000E+00  0.000000E+00
   Multipole                     : -0.108496E+00 -0.524944E-01  0.415723E-01
   Pulay + GGA                   :  0.104862E+00  0.176156E-01 -0.646729E-01
   Van der Waals                 :  0.264273E-02 -0.230341E-02  0.378493E-02
   ----------------------------------------------------------------
   Total forces(   5)            :  0.736773E-03 -0.269424E-03  0.779795E-03
  atom #    6
   Hellmann-Feynman              :  0.282430E-01  0.257848E-01 -0.183783E-01
   Ionic forces                  :  0.000000E+00  0.000000E+00  0.000000E+00
   Multipole                     : -0.402617E-01 -0.922116E-01 -0.855598E-01
   Pulay + GGA                   :  0.107624E-01  0.694407E-01  0.103170E+00
   Van der Waals                 :  0.398491E-02 -0.267182E-02  0.213705E-02
   ----------------------------------------------------------------
   Total forces(   6)            :  0.272859E-02  0.342115E-03  0.136851E-02
  atom #    7
   Hellmann-Feynman              : -0.148478E+01 -0.190648E+00  0.609355E+00
   Ionic forces                  :  0.000000E+00  0.000000E+00  0.000000E+00
   Multipole                     : -0.984503E-01 -0.261121E+00  0.291965E+00
   Pulay + GGA                   :  0.158179E+01  0.456083E+00 -0.890990E+00
   Van der Waals                 :  0.364671E-02 -0.292900E-02 -0.983843E-02
   ----------------------------------------------------------------
   Total forces(   7)            :  0.220165E-02  0.138578E-02  0.492221E-03
  atom #    8
   Hellmann-Feynman              :  0.150067E+01  0.189490E+01 -0.737517E+00
   Ionic forces                  :  0.000000E+00  0.000000E+00  0.000000E+00
   Multipole                     : -0.210622E-01  0.320080E+00 -0.158902E-01
   Pulay + GGA                   : -0.148391E+01 -0.220847E+01  0.752620E+00
   Van der Waals                 :  0.441603E-02 -0.815642E-02  0.351892E-03
   ----------------------------------------------------------------
   Total forces(   8)            :  0.116124E-03 -0.164738E-02 -0.434636E-03
  atom #    9
   Hellmann-Feynman              : -0.264346E-01 -0.438707E+00 -0.421020E-01
   Ionic forces                  :  0.000000E+00  0.000000E+00  0.000000E+00
   Multipole                     : -0.271413E+00  0.566878E+00  0.485309E+00
   Pulay + GGA                   :  0.302697E+00 -0.138644E+00 -0.452732E+00
   Van der Waals                 : -0.489883E-02  0.110511E-01  0.963372E-02
   ----------------------------------------------------------------
   Total forces(   9)            : -0.491009E-04  0.578842E-03  0.108428E-03
  atom #   10
   Hellmann-Feynman              : -0.196171E+01  0.418380E+00 -0.183032E+00
   Ionic forces                  :  0.000000E+00  0.000000E+00  0.000000E+00
   Multipole                     : -0.474768E-01 -0.816418E-02 -0.156018E-01
   Pulay + GGA                   :  0.201036E+01 -0.404017E+00  0.208938E+00
   Van der Waals                 : -0.209433E-02 -0.797490E-02 -0.961437E-02
   ----------------------------------------------------------------
   Total forces(  10)            : -0.921100E-03 -0.177631E-02  0.689692E-03
  atom #   11
   Hellmann-Feynman              :  0.306973E+01 -0.122860E+02  0.577302E+01
   Ionic forces                  :  0.000000E+00  0.000000E+00  0.000000E+00
   Multipole                     :  0.334448E+00 -0.952488E+00  0.412263E+00
   Pulay + GGA                   : -0.339459E+01  0.132373E+02 -0.618524E+01
   Van der Waals                 : -0.974189E-02  0.367749E-02 -0.100276E-02
   ----------------------------------------------------------------
   Total forces(  11)            : -0.154164E-03  0.244264E-02 -0.966644E-03
  atom #   12
   Hellmann-Feynman              : -0.453891E-01 -0.109425E+00  0.250981E-01
   Ionic forces                  :  0.000000E+00  0.000000E+00  0.000000E+00
   Multipole                     :  0.634918E-01 -0.112588E+00  0.435763E-01
   Pulay + GGA                   : -0.190351E-01  0.216715E+00 -0.679753E-01
   Van der Waals                 :  0.142937E-02  0.509980E-02  0.577434E-03
   ----------------------------------------------------------------
   Total forces(  12)            :  0.496987E-03 -0.197734E-03  0.127652E-02
  atom #   13
   Hellmann-Feynman              :  0.161007E+00  0.564823E-02  0.751841E-01
   Ionic forces                  :  0.000000E+00  0.000000E+00  0.000000E+00
   Multipole                     : -0.455710E-01  0.799601E-01 -0.159028E+00
   Pulay + GGA                   : -0.116427E+00 -0.800463E-01  0.902102E-01
   Van der Waals                 :  0.688062E-03 -0.584857E-02 -0.566891E-02
   ----------------------------------------------------------------
   Total forces(  13)            : -0.303628E-03 -0.286517E-03  0.696926E-03
  atom #   14
   Hellmann-Feynman              :  0.822960E-02 -0.201445E-01 -0.130378E-01
   Ionic forces                  :  0.000000E+00  0.000000E+00  0.000000E+00
   Multipole                     : -0.112465E+00  0.655113E-01  0.278516E-01
   Pulay + GGA                   :  0.101237E+00 -0.526704E-01 -0.234569E-01
   Van der Waals                 :  0.295391E-02  0.699901E-02  0.828297E-02
   ----------------------------------------------------------------
   Total forces(  14)            : -0.440300E-04 -0.304611E-03 -0.360071E-03
  atom #   15
   Hellmann-Feynman              :  0.259689E-01 -0.303601E-01 -0.280625E-01
   Ionic forces                  :  0.000000E+00  0.000000E+00  0.000000E+00
   Multipole                     : -0.107338E-01 -0.206698E-02  0.130533E+00
   Pulay + GGA                   : -0.160353E-01  0.329426E-01 -0.100756E+00
   Van der Waals                 :  0.786388E-03 -0.364182E-03 -0.198046E-02
   ----------------------------------------------------------------
   Total forces(  15)            : -0.137854E-04  0.151345E-03 -0.265309E-03
  atom #   16
   Hellmann-Feynman              :  0.543625E-01 -0.643963E-01 -0.962744E-01
   Ionic forces                  :  0.000000E+00  0.000000E+00  0.000000E+00
   Multipole                     :  0.171326E-01  0.131660E+00  0.502744E-01
   Pulay + GGA                   : -0.652615E-01 -0.706201E-01  0.388588E-01
   Van der Waals                 : -0.642415E-02  0.358024E-02  0.650864E-02
   ----------------------------------------------------------------
   Total forces(  16)            : -0.190634E-03  0.223638E-03 -0.632573E-03
  atom #   17
   Hellmann-Feynman              : -0.155911E+01 -0.144540E+01  0.776045E+00
   Ionic forces                  :  0.000000E+00  0.000000E+00  0.000000E+00
   Multipole                     :  0.554942E+00  0.454944E+00 -0.380973E+00
   Pulay + GGA                   :  0.998806E+00  0.997594E+00 -0.393516E+00
   Van der Waals                 :  0.264119E-02 -0.641191E-02 -0.153602E-02
   ----------------------------------------------------------------
   Total forces(  17)            : -0.272160E-02  0.724243E-03  0.202390E-04
  atom #   18
   Hellmann-Feynman              :  0.248614E+01 -0.922865E+00  0.618692E+00
   Ionic forces                  :  0.000000E+00  0.000000E+00  0.000000E+00
   Multipole                     :  0.705089E+00  0.146886E+00 -0.322579E-01
   Pulay + GGA                   : -0.318237E+01  0.770809E+00 -0.586861E+00
   Van der Waals                 : -0.826509E-02  0.440081E-02 -0.791610E-03
   ----------------------------------------------------------------
   Total forces(  18)            :  0.599026E-03 -0.769013E-03 -0.121793E-02
  atom #   19
   Hellmann-Feynman              : -0.493952E-01  0.874299E-01 -0.356908E-01
   Ionic forces                  :  0.000000E+00  0.000000E+00  0.000000E+00
   Multipole                     : -0.357015E-01  0.970122E-01 -0.581312E-01
   Pulay + GGA                   :  0.893766E-01 -0.184055E+00  0.949314E-01
   Van der Waals                 : -0.207567E-02 -0.131802E-02 -0.831150E-03
   ----------------------------------------------------------------
   Total forces(  19)            :  0.220420E-02 -0.930823E-03  0.278303E-03
  atom #   20
   Hellmann-Feynman              : -0.219336E-01  0.620841E-01 -0.263569E-01
   Ionic forces                  :  0.000000E+00  0.000000E+00  0.000000E+00
   Multipole                     :  0.909876E-01 -0.131242E+00  0.716844E-01
   Pulay + GGA                   : -0.678237E-01  0.664416E-01 -0.438481E-01
   Van der Waals                 : -0.716601E-03  0.225320E-02 -0.827175E-03
   ----------------------------------------------------------------
   Total forces(  20)            :  0.513721E-03 -0.463441E-03  0.652143E-03
  atom #   21
   Hellmann-Feynman              : -0.492069E-01  0.454746E-01 -0.100681E-01
   Ionic forces                  :  0.000000E+00  0.000000E+00  0.000000E+00
   Multipole                     :  0.101771E+00 -0.170719E-01 -0.821585E-01
   Pulay + GGA                   : -0.524288E-01 -0.229100E-01  0.913189E-01
   Van der Waals                 : -0.311717E-03 -0.388244E-02  0.867285E-03
   ----------------------------------------------------------------
   Total forces(  21)            : -0.176900E-03  0.161027E-02 -0.405097E-04
  atom #   22
   Hellmann-Feynman              : -0.513730E-01  0.322586E-01 -0.356348E-01
   Ionic forces                  :  0.000000E+00  0.000000E+00  0.000000E+00
   Multipole                     :  0.941181E-01  0.600610E-01  0.718168E-01
   Pulay + GGA                   : -0.422824E-01 -0.890854E-01 -0.388473E-01
   Van der Waals                 : -0.108738E-02 -0.286877E-02  0.277692E-02
   ----------------------------------------------------------------
   Total forces(  22)            : -0.624717E-03  0.365392E-03  0.111613E-03

  Timings for VdW correction (Tkatchenko-Scheffler 2009 or later):
  | CPU time:        0.116 s, Wall clock time:        0.119 s.
  Removing unitary transformations (pure translations, rotations) from forces on atoms.
  Atomic forces before filtering:
  | Net force on center of mass :  -0.739679E-03  0.155481E-02  0.364376E-03 eV/A
  | Net torque on center of mass:  -0.646335E-02  0.185899E-02  0.766226E-02 eV
  Atomic forces after filtering:
  | Net force on center of mass :  -0.609787E-18  0.762233E-18  0.871124E-19 eV/A
  | Net torque on center of mass:   0.250081E-17 -0.341124E-17 -0.368783E-17 eV

  Energy and forces in a compact form:
  | Total energy uncorrected      :         -0.134826395826369E+05 eV
  | Total energy corrected        :         -0.134826395826369E+05 eV  <-- do not rely on this value for anything but (periodic) metals
  | Electronic free energy        :         -0.134826395826369E+05 eV
  Total atomic forces (unitary forces cleaned) [eV/Ang]:
  |   1         -0.225849721999330E-02          0.297596386207296E-02         -0.236233659507899E-02
  |   2         -0.319883462995493E-02         -0.813552810221834E-04         -0.170985560969950E-02
  |   3         -0.257116776893512E-03         -0.165752152568495E-02          0.777040277221208E-03
  |   4          0.445898624446889E-03         -0.494765762139496E-03          0.582187158181708E-03
  |   5          0.686242135226116E-03         -0.176693853545704E-03          0.603859164893129E-03
  |   6          0.264100155578000E-02          0.550971514704660E-03          0.113878061622087E-02
  |   7          0.220724687737937E-02          0.135267610159654E-02          0.416340004227423E-03
  |   8          0.167878688890300E-03         -0.170924636629244E-02         -0.400521875074441E-03
  |   9          0.549368726917527E-04          0.425231404368269E-03          0.245184511678144E-03
  |  10         -0.881956516609065E-03         -0.191260590936598E-02          0.663214116648641E-03
  |  11         -0.148383819152791E-03          0.224342722634477E-02         -0.110369228919057E-02
  |  12          0.477767974010075E-03         -0.288617622132302E-03          0.111431597182696E-02
  |  13         -0.247547654406036E-03         -0.245947263866821E-03          0.780356708540073E-03
  |  14          0.669331297887314E-04         -0.403934689091084E-03         -0.185064828284722E-03
  |  15          0.869227946637062E-04         -0.105058196788279E-03         -0.175399378266703E-03
  |  16         -0.516719276840352E-04          0.517363544603950E-04         -0.411297578312607E-03
  |  17         -0.265313111714262E-02          0.594214701358879E-03          0.727431935401952E-04
  |  18          0.663436202151280E-03         -0.969697052608217E-03         -0.120224640486169E-02
  |  19          0.229799559203082E-02         -0.100296990296042E-02          0.418502886881698E-03
  |  20          0.548897843639057E-03         -0.719639609612719E-03          0.570804329476626E-03
  |  21         -0.126712958312956E-03          0.148614482316904E-02         -0.335997988518318E-04
  |  22         -0.521305670548865E-03          0.876870470350808E-04          0.200685418284377E-03

  ------------------------------------ 
  Start decomposition of the XC Energy 
  ------------------------------------ 
  X and C from original XC functional choice 
  Hartree-Fock Energy :          0.000000000 Ha              0.000000000 eV
  X Energy            :        -64.853065254 Ha          -1764.741694642 eV
  C Energy            :         -2.589374712 Ha            -70.460470891 eV
  Total XC Energy     :        -67.442439966 Ha          -1835.202165533 eV
  ------------------------------------ 
  LDA X and C from self-consistent density 
  X Energy LDA        :        -58.835029077 Ha          -1600.982598296 eV
  C Energy LDA        :         -5.050731553 Ha           -137.437398302 eV
  ------------------------------------ 
  End decomposition of the XC Energy 
  ------------------------------------ 

------------------------------------------------------------

------------------------------------------------------------------------------
  Final output of selected total energy values:

  The following output summarizes some interesting total energy values
  at the end of a run (AFTER all relaxation, molecular dynamics, etc.).

  | Total energy of the DFT / Hartree-Fock s.c.f. calculation      :         -13482.639582637 eV
  | Final zero-broadening corrected energy (caution - metals only) :         -13482.639582637 eV
  | For reference only, the value of 1 Hartree used in FHI-aims is :             27.211384500 eV

  Before relying on these values, please be sure to understand exactly which
  total energy value is referred to by a given number. Different objects may
  all carry the same name 'total energy'. Definitions:

  Total energy of the DFT / Hartree-Fock s.c.f. calculation:
  | Note that this energy does not include ANY quantities calculated after the
  | s.c.f. cycle, in particular not ANY RPA, MP2, etc. many-body perturbation terms.

  Final zero-broadening corrected energy:
  | For metallic systems only, a broadening of the occupation numbers at the Fermi
  | level can be extrapolated back to zero broadening by an electron-gas inspired
  | formula. For all systems that are not real metals, this value can be
  | meaningless and should be avoided.

------------------------------------------------------------------------------
  Methods described in the following list of references were used in this FHI-aims run.
  If you publish the results, please make sure to cite these reference if they apply.
  FHI-aims is an academic code, and for our developers (often, Ph.D. students
  and postdocs), scientific credit in the community is essential.
  Thank you for helping us!

  For any use of FHI-aims, please cite:

    Volker Blum, Ralf Gehrke, Felix Hanke, Paula Havu, Ville Havu,
    Xinguo Ren, Karsten Reuter, and Matthias Scheffler
    'Ab initio molecular simulations with numeric atom-centered orbitals'
    Computer Physics Communications 180, 2175-2196 (2009)
    http://dx.doi.org/10.1016/j.cpc.2009.06.022


  For the real-space grid partitioning and parallelization used in this calculation, please cite:

    Ville Havu, Volker Blum, Paula Havu, and Matthias Scheffler,
    'Efficient O(N) integration for all-electron electronic structure calculation'
    'using numerically tabulated basis functions'
    Journal of Computational Physics 228, 8367-8379 (2009).
    http://dx.doi.org/10.1016/j.jcp.2009.08.008

  Of course, there are many other important community references, e.g., those cited in the
  above references. Our list is limited to references that describe implementations in the
  FHI-aims code. The reason is purely practical (length of this list) - please credit others as well.

------------------------------------------------------------
          Leaving FHI-aims.
          Date     :  20180216, Time     :  100603.444

          Computational steps:
          | Number of self-consistency cycles          :           13
          | Number of SCF (re)initializations          :            1

          Detailed time accounting                     :  max(cpu_time)    wall_clock(cpu1)
          | Total time                                 :       27.660 s          28.637 s
          | Preparation time                           :        0.284 s           0.381 s
          | Boundary condition initalization           :        0.000 s           0.001 s
          | Grid partitioning                          :        0.192 s           0.203 s
          | Preloading free-atom quantities on grid    :        0.008 s           0.015 s
          | Free-atom superposition energy             :        0.104 s           0.104 s
          | Total time for integrations                :        8.516 s           8.517 s
          | Total time for solution of K.-S. equations :        0.164 s           0.181 s
          | Total time for density & force components  :        8.896 s           8.889 s
          | Total time for mixing                      :        0.252 s           0.265 s
          | Total time for Hartree multipole update    :        0.276 s           0.253 s
          | Total time for Hartree multipole sum       :        9.032 s           9.091 s
          | Total time for total energy evaluation     :        0.004 s           0.024 s
          | Total time for vdW correction              :        0.116 s           0.119 s

          Partial memory accounting:
          | Residual value for overall tracked memory usage across tasks :           0.000 MB (should be 0.000 MB)
          | Peak values for overall tracked memory usage (after allocating hessian_basis_wave):
          |   Minimum:        3.983 MB (on task 1)
          |   Maximum:        4.127 MB (on task 2)
          |   Average:        4.105 MB
          | Largest tracked array allocation (hessian_basis_wave):
          |   Minimum:        1.728 MB (on task 1)
          |   Maximum:        1.814 MB (on task 2)
          |   Average:        1.801 MB
          Note:  These values currently only include a subset of arrays which are explicitly tracked.
          The "true" memory usage will be greater.

          Have a nice day.
------------------------------------------------------------
