  MPI-parallelism will be employed.
------------------------------------------------------------
          Invoking FHI-aims ...
          Version 180101-
          Git rev. (modified): fa29f3a Merge branch master of fhiaims.rzberlin.mp[...]
          Compiled on 2018/01/19 at 14:47:46 on host theobook132.

          When using FHI-aims, please cite the following reference:

          Volker Blum, Ralf Gehrke, Felix Hanke, Paula Havu,
          Ville Havu, Xinguo Ren, Karsten Reuter, and Matthias Scheffler,
          'Ab Initio Molecular Simulations with Numeric Atom-Centered Orbitals',
          Computer Physics Communications 180, 2175-2196 (2009)

          For any questions about FHI-aims, please visit the aimsclub website
          with its forums and wiki. Contributions to both the forums and the
          wiki are warmly encouraged - they are for you, and everyone is welcome there.

------------------------------------------------------------



  Date     :  20180215, Time     :  214514.974
  Time zero on CPU 1             :   0.480000000000000E-01  s.
  Internal wall clock time zero  :           287963114.974  s.

  FHI-aims created a unique identifier for this run for later identification
  aims_uuid : E075AD3D-2272-4E35-AA82-5CBDC0FD8573

  Using        8 parallel tasks.
  Task        0 on host theobook132 reporting.
  Task        1 on host theobook132 reporting.
  Task        2 on host theobook132 reporting.
  Task        3 on host theobook132 reporting.
  Task        4 on host theobook132 reporting.
  Task        5 on host theobook132 reporting.
  Task        6 on host theobook132 reporting.
  Task        7 on host theobook132 reporting.

  Performing system and environment tests:
  *** Environment variable OMP_NUM_THREADS is not set
  *** For performance reasons you might want to set it to 1
  | Stacksize not measured: no C compiler
  | Checking for scalapack...
  | No scalapack compiled in.

  Obtaining array dimensions for all initial allocations:
  
  -----------------------------------------------------------------------
  Parsing control.in (first pass over file, find array dimensions only).
  The contents of control.in will be repeated verbatim below
  unless switched off by setting 'verbatim_writeout .false.' .
  in the first line of control.in .
  -----------------------------------------------------------------------
  
  ################################################################################
  #
  #		Control.in generated by mkcontrol
  #
  ################################################################################
  xc			pbe
  vdw_correction_hirshfeld
  relativistic		none
  sc_accuracy_rho		1E-5
  sc_accuracy_eev		1E-3
  sc_accuracy_etot	1E-6
  sc_iter_limit		1000	
  
  compute_forces .true.
  final_forces_cleaned .true.
  
  ################################################################################
  #
  #  FHI-aims code project
  #  VB, Fritz-Haber Institut, 2009
  #
  #  Suggested "light" defaults for H atom (to be pasted into control.in file)
  #  Be sure to double-check any results obtained with these settings for post-processing,
  #  e.g., with the "tight" defaults and larger basis sets.
  #
  ################################################################################
    species        H
  #     global species definitions
      nucleus             1
      mass                1.00794
  #
      l_hartree           4
  #
      cut_pot             3.5  1.5  1.0
      basis_dep_cutoff    1e-4
  #
      radial_base         24 5.0
      radial_multiplier   1
      angular_grids       specified
        division   0.2421   50
        division   0.3822  110
        division   0.4799  194
        division   0.5341  302
  #      division   0.5626  434
  #      division   0.5922  590
  #      division   0.6542  770
  #      division   0.6868 1202
  #      outer_grid  770
        outer_grid  302
  ################################################################################
  #
  #  Definition of "minimal" basis
  #
  ################################################################################
  #     valence basis states
      valence      1  s   1.
  #     ion occupancy
      ion_occ      1  s   0.5
  ################################################################################
  #
  #  Suggested additional basis functions. For production calculations,
  #  uncomment them one after another (the most important basis functions are
  #  listed first).
  #
  #  Basis constructed for dimers: 0.5 A, 0.7 A, 1.0 A, 1.5 A, 2.5 A
  #
  ################################################################################
  #  "First tier" - improvements: -1014.90 meV to -62.69 meV
       hydro 2 s 2.1
       hydro 2 p 3.5
  #  "Second tier" - improvements: -12.89 meV to -1.83 meV
  #     hydro 1 s 0.85
  #     hydro 2 p 3.7
  #     hydro 2 s 1.2
  #     hydro 3 d 7
  #  "Third tier" - improvements: -0.25 meV to -0.12 meV
  #     hydro 4 f 11.2
  #     hydro 3 p 4.8
  #     hydro 4 d 9
  #     hydro 3 s 3.2
  
  ################################################################################
  #
  #  FHI-aims code project
  #  VB, Fritz-Haber Institut, 2009
  #
  #  Suggested "light" defaults for C atom (to be pasted into control.in file)
  #  Be sure to double-check any results obtained with these settings forpost-processing,
  #  e.g., with the "tight" defaults and larger basis sets.
  #
  ################################################################################
    species        C
  #     global species definitions
      nucleus             6
      mass                12.0107
  #
      l_hartree           4
  #
      cut_pot             3.5  1.5  1.0
      basis_dep_cutoff    1e-4
  #
      radial_base         34 5.0
      radial_multiplier   1
      angular_grids specified
        division   0.3326   50
        division   0.5710  110
        division   0.7727  194
        division   0.8772  302
  #      division   0.9334  434
  #      division   0.9625  590
  #      division   0.9924  770
  #      division   1.0230  974
  #      division   1.4589 1202
  #     outer_grid  974
       outer_grid 302
  ################################################################################
  #
  #  Definition of "minimal" basis
  #
  ################################################################################
  #     valence basis states
      valence      2  s   2.
      valence      2  p   2.
  #     ion occupancy
      ion_occ      2  s   1.
      ion_occ      2  p   1.
  ################################################################################
  #
  #  Suggested additional basis functions. For production calculations,
  #  uncomment them one after another (the most important basis functions are
  #  listed first).
  #
  #  Constructed for dimers: 1.0 A, 1.25 A, 1.5 A, 2.0 A, 3.0 A
  #
  ################################################################################
  #  "First tier" - improvements: -1214.57 meV to -155.61 meV
       hydro 2 p 1.7
       hydro 3 d 6
       hydro 2 s 4.9
  #  "Second tier" - improvements: -67.75 meV to -5.23 meV
  #     hydro 4 f 9.8
  #     hydro 3 p 5.2
  #     hydro 3 s 4.3
  #     hydro 5 g 14.4
  #     hydro 3 d 6.2
  #  "Third tier" - improvements: -2.43 meV to -0.60 meV
  #     hydro 2 p 5.6
  #     hydro 2 s 1.4
  #     hydro 3 d 4.9
  #     hydro 4 f 11.2
  #  "Fourth tier" - improvements: -0.39 meV to -0.18 meV
  #     hydro 2 p 2.1
  #     hydro 5 g 16.4
  #     hydro 4 d 13.2
  #     hydro 3 s 13.6
  #     hydro 4 f 17.6
  #  Further basis functions - improvements: -0.08 meV and below
  #     hydro 3 s 2
  #     hydro 3 p 6
  #     hydro 4 d 20
  
  -----------------------------------------------------------------------
  Completed first pass over input file control.in .
  -----------------------------------------------------------------------
  
  
  -----------------------------------------------------------------------
  Parsing geometry.in (first pass over file, find array dimensions only).
  The contents of geometry.in will be repeated verbatim below
  unless switched off by setting 'verbatim_writeout .false.' .
  in the first line of geometry.in .
  -----------------------------------------------------------------------
  
  #=======================================#
  # iterations/iteration0037/aims-chain-node-0.81034/geometry.in
  #=======================================#
  atom -0.7614314527432841 -1.3964966449633820 -0.4035901658422197 C
  atom -0.3217384182387054 -0.5896245731057315 0.7822018521344115 C
  atom 0.3217384180106628 0.5896245731711581 0.7822018521762791 C
  atom 0.7614314528468433 1.3964966449343841 -0.4035901657409441 C
  atom -0.4971543929376080 -0.9318925204085393 -1.3622150524462577 H
  atom -1.8532237975079573 -1.5459540110975305 -0.3924268667145612 H
  atom -0.3097854395539831 -2.4014154522044859 -0.3817876121707771 H
  atom -0.5606312239923077 -1.0268106899354346 1.7578178447540913 H
  atom 0.5606312235156645 1.0268106900690319 1.7578178448264226 H
  atom 0.4971543930409493 0.9318925204609213 -1.3622150523835637 H
  atom 0.3097854399114664 2.4014154522870612 -0.3817876121045061 H
  atom 1.8532237976482540 1.5459540107925620 -0.3924268664883780 H
  
  -----------------------------------------------------------------------
  Completed first pass over input file geometry.in .
  -----------------------------------------------------------------------
  

  Basic array size parameters:
  | Number of species                 :        2
  | Number of atoms                   :       12
  | Max. basis fn. angular momentum   :        2
  | Max. atomic/ionic basis occupied n:        2
  | Max. number of basis fn. types    :        2
  | Max. radial fns per species/type  :        3
  | Max. logarithmic grid size        :     1277
  | Max. radial integration grid size :       34
  | Max. angular integration grid size:      302
  | Max. angular grid division number :        8
  | Radial grid for Hartree potential :     1277
  | Number of spin channels           :        1

------------------------------------------------------------
          Reading file control.in.
------------------------------------------------------------
  XC: Using PBE gradient-corrected functionals.
  Non-relativistic treatment of kinetic energy.
  Convergence accuracy of self-consistent charge density:  0.1000E-04
  Convergence accuracy of sum of eigenvalues:  0.1000E-02
  Convergence accuracy of total energy:  0.1000E-05
  Maximum number of s.-c. iterations  :  1000
  Forces will be computed.
  Cleaning forces before final output.
 
  Reading configuration options for species H                   .
  | Found nuclear charge :   1.0000
  | Found atomic mass :    1.00794000000000      amu
  | Found l_max for Hartree potential  :   4
  | Found cutoff potl. onset [A], width [A], scale factor :    3.50000    1.50000    1.00000
  | Threshold for basis-dependent cutoff potential is   0.100000E-03
  | Found data for basic radial integration grid :    24 points, outermost radius =    5.000 A
  | Found multiplier for basic radial grid :   1
  | Found angular grid specification: user-specified.
  | Specified grid contains     5 separate shells.
  | Check grid settings after all constraints further below.
  | Found free-atom valence shell :  1 s   1.000
  | No ionic wave fns used. Skipping ion_occ.
  | Found hydrogenic basis function :  2 s   2.100
  | Found hydrogenic basis function :  2 p   3.500
  Species H                   : Missing cutoff potential type.
  Defaulting to exp(1/x)/(1-x)^2 type cutoff potential.
  Species H : No 'logarithmic' tag. Using default grid for free atom:
  | Default logarithmic grid data [bohr] : 0.1000E-03 0.1000E+03 0.1012E+01
  Species H : On-site basis accuracy parameter (for Gram-Schmidt orthonormalisation) not specified.
  Using default value basis_acc =  0.1000000E-03.
  Species H                   : Using default innermost maximum threshold i_radial=  2 for radial functions.
  Species H                   : Default cutoff onset for free atom density etc. : 0.35000000E+01 AA.
  Species H                   : Basic radial grid will be enhanced according to radial_multiplier =   1, to contain    24 grid points.
 
  Reading configuration options for species C                   .
  | Found nuclear charge :   6.0000
  | Found atomic mass :    12.0107000000000      amu
  | Found l_max for Hartree potential  :   4
  | Found cutoff potl. onset [A], width [A], scale factor :    3.50000    1.50000    1.00000
  | Threshold for basis-dependent cutoff potential is   0.100000E-03
  | Found data for basic radial integration grid :    34 points, outermost radius =    5.000 A
  | Found multiplier for basic radial grid :   1
  | Found angular grid specification: user-specified.
  | Specified grid contains     5 separate shells.
  | Check grid settings after all constraints further below.
  | Found free-atom valence shell :  2 s   2.000
  | Found free-atom valence shell :  2 p   2.000
  | No ionic wave fns used. Skipping ion_occ.
  | No ionic wave fns used. Skipping ion_occ.
  | Found hydrogenic basis function :  2 p   1.700
  | Found hydrogenic basis function :  3 d   6.000
  | Found hydrogenic basis function :  2 s   4.900
  Species C                   : Missing cutoff potential type.
  Defaulting to exp(1/x)/(1-x)^2 type cutoff potential.
  Species C : No 'logarithmic' tag. Using default grid for free atom:
  | Default logarithmic grid data [bohr] : 0.1000E-03 0.1000E+03 0.1012E+01
  Species C : On-site basis accuracy parameter (for Gram-Schmidt orthonormalisation) not specified.
  Using default value basis_acc =  0.1000000E-03.
  Species C                   : Using default innermost maximum threshold i_radial=  2 for radial functions.
  Species C                   : Default cutoff onset for free atom density etc. : 0.35000000E+01 AA.
  Species C                   : Basic radial grid will be enhanced according to radial_multiplier =   1, to contain    34 grid points.
 
  Finished reading input file 'control.in'. Consistency checks are next.
 
  MPI_IN_PLACE appears to work with this MPI implementation.
  | Keeping use_mpi_in_place .true. (see manual).
  Target number of points in a grid batch is not set. Defaulting to  100
  Method for grid partitioning is not set. Defaulting to parallel hash+maxmin partitioning.
  Batch size limit is not set. Defaulting to    200
  By default, will store active basis functions for each batch.
  If in need of memory, prune_basis_once .false. can be used to disable this option.
  communication_type for Hartree potential was not specified.
  Defaulting to calc_hartree .
  Defaulting to Pulay charge density mixer.
  Pulay mixer: Number of relevant iterations not set.
  Defaulting to    8 iterations.
  Pulay mixer: Number of initial linear mixing iterations not set.
  Defaulting to    0 iterations.
  Work space size for distributed Hartree potential not set.
  Defaulting to   0.200000E+03 MB.
  Mixing parameter for charge density mixing has not been set.
  Using default: charge_mix_param =     0.0500.
  The mixing parameter will be adjusted in iteration number     2 of the first full s.c.f. cycle only.
  Algorithm-dependent basis array size parameters:
  | n_max_pulay                         :        8
  Presetting        40 iterations before the initial mixing cycle
  is restarted anyway using the sc_init_iter criterion / keyword.
  Presetting a factor      1.000 between actual scf density residual
  and density convergence criterion sc_accuracy_rho below which sc_init_iter
  takes no effect.
  Geometry relaxation not requested: no relaxation will be performed.
  Force calculation: scf convergence accuracy of forces not set.
  Defaulting to 'sc_accuracy_forces not_checked'.
  Handling of forces: Unphysical translation and rotation will be removed from forces.
  No accuracy limit for integral partition fn. given. Defaulting to  0.1000E-14.
  No threshold value for u(r) in integrations given. Defaulting to  0.1000E-05.
  No occupation type (smearing scheme) given. Defaulting to Gaussian broadening, width =  0.1000E-01 eV.
  The width will be adjusted in iteration number     2 of the first full s.c.f. cycle only.
  S.C.F. convergence parameters will be adjusted in iteration number     2 of the first full s.c.f. cycle only.
  No accuracy for occupation numbers given. Defaulting to  0.1000E-12.
  No threshold value for occupation numbers given. Defaulting to  0.0000E+00.
  No accuracy for fermi level given. Defaulting to  0.1000E-19.
  Maximum # of iterations to find E_F not set. Defaulting to  200.
  Preferred method for the eigenvalue solver ('KS_method') not specified in 'control.in'.
  Calling BLACS routine to test compilation state
  The best choice would be 'elsi', but your version of FHI-aims is compiled without ScaLAPACK support.
  Defaulting to 'lapack_fast' instead (serial solution, time will not improve with more CPUs).
  Will not use alltoall communication since running on < 1024 CPUs.
  Threshold for basis singularities not set.
  Default threshold for basis singularities:  0.1000E-04
  partition_type (choice of integration weights) for integrals was not specified.
  | Using a version of the partition function of Stratmann and coworkers ('stratmann_smoother').
  | At each grid point, the set of atoms used to build the partition table is smoothly restricted to
  | only those atoms whose free-atom density would be non-zero at that grid point.
  Partitioning for Hartree potential was not defined. Using partition_type for integrals.
  | Adjusted default value of keyword multip_moments_threshold to:       0.10000000E-11
  | This value may affect high angular momentum components of the Hartree potential in periodic systems.
  Spin handling was not defined in control.in. Defaulting to unpolarized case.
  No q(lm)/r^(l+1) cutoff set for long-range Hartree potential.
  | Using default value of  0.100000E-09 .
  | Verify using the multipole_threshold keyword.
  Defaulting to new monopole extrapolation.
  Density update method: automatic selection selected.
------------------------------------------------------------


------------------------------------------------------------
          Reading geometry description geometry.in.
------------------------------------------------------------
  Input structure read successfully.
  The structure contains       12 atoms,  and a total of         32.000 electrons.

  Input geometry:
  | No unit cell requested.
  | Atomic structure:
  |       Atom                x [A]            y [A]            z [A]
  |    1: Species C            -0.76143145       -1.39649664       -0.40359017
  |    2: Species C            -0.32173842       -0.58962457        0.78220185
  |    3: Species C             0.32173842        0.58962457        0.78220185
  |    4: Species C             0.76143145        1.39649664       -0.40359017
  |    5: Species H            -0.49715439       -0.93189252       -1.36221505
  |    6: Species H            -1.85322380       -1.54595401       -0.39242687
  |    7: Species H            -0.30978544       -2.40141545       -0.38178761
  |    8: Species H            -0.56063122       -1.02681069        1.75781784
  |    9: Species H             0.56063122        1.02681069        1.75781784
  |   10: Species H             0.49715439        0.93189252       -1.36221505
  |   11: Species H             0.30978544        2.40141545       -0.38178761
  |   12: Species H             1.85322380        1.54595401       -0.39242687
  |

  | The smallest distance between any two atoms is         1.09545791 AA.
  |
  | The first atom of this pair is atom number                      2 .
  | The second atom of this pair is atom number                     8 .

  Number of empty states per atom not set in control.in - providing a guess from actual geometry.
  | Total number of empty states used during s.c.f. cycle:       24
  If you use a very high smearing, use empty_states (per atom!) in control.in to increase this value.

  Structure-dependent array size parameters: 
  | Maximum number of distinct radial functions  :        9
  | Maximum number of basis functions            :       96
  | Number of Kohn-Sham states (occupied + empty):       40
------------------------------------------------------------

------------------------------------------------------------
          Preparing all fixed parts of the calculation.
------------------------------------------------------------
  Determining machine precision:
    2.225073858507201E-308
  Setting up grids for atomic and cluster calculations.

  Creating wave function, potential, and density for free atoms.

  Species: H

  List of occupied orbitals and eigenvalues:
    n    l              occ      energy [Ha]    energy [eV]
    1    0           1.0000        -0.237589        -6.4651


  Species: C

  List of occupied orbitals and eigenvalues:
    n    l              occ      energy [Ha]    energy [eV]
    1    0           2.0000       -10.038835      -273.1706
    2    0           2.0000        -0.502696       -13.6791
    2    1           2.0000        -0.191971        -5.2238

  Creating fixed part of basis set: Ionic, confined, hydrogenic.
 
  H                    hydrogenic:
 
  List of hydrogenic basis orbitals: 
    n    l      effective z      eigenvalue [eV]  inner max. [A]     outer max. [A]     outer radius [A]   
    2    0         2.100000       -14.9728           0.193243           1.317208           4.583499
    2    1         3.500000       -41.6669           0.602369           0.602369           3.723403
 
 
  C                    hydrogenic:
 
  List of hydrogenic basis orbitals: 
    n    l      effective z      eigenvalue [eV]  inner max. [A]     outer max. [A]     outer radius [A]   
    2    1         1.700000        -9.7616           1.230570           1.230570           4.607917
    3    2         6.000000       -54.4224           0.792453           0.792453           3.883070
    2    0         4.900000       -81.6679           0.082559           0.562749           3.078220
 

  Adding cutoff potential to free-atom effective potential.
  Creating atomic-like basis functions for current effective potential.

  Species H                   :

  List of atomic basis orbitals and eigenvalues:
    n    l      energy [Ha]    energy [eV]    outer radius [A]
    1    0        -0.237589        -6.4651       4.527807


  Species C                   :

  List of atomic basis orbitals and eigenvalues:
    n    l      energy [Ha]    energy [eV]    outer radius [A]
    1    0       -10.038835      -273.1706       1.934409
    2    0        -0.502696       -13.6791       4.496620
    2    1        -0.191971        -5.2238       4.551928

  Assembling full basis from fixed parts.
  | Species H :   atomic orbital   1 s accepted.
  | Species H :    hydro orbital   2 s accepted.
  | Species H :    hydro orbital   2 p accepted.
  | Species C :   atomic orbital   1 s accepted.
  | Species C :    hydro orbital   2 s accepted.
  | Species C :   atomic orbital   2 s accepted.
  | Species C :   atomic orbital   2 p accepted.
  | Species C :    hydro orbital   2 p accepted.
  | Species C :    hydro orbital   3 d accepted.
 
  Basis size parameters after reduction:
  | Total number of radial functions:        9
  | Total number of basis functions :       96
 
  Per-task memory consumption for arrays in subroutine allocate_ext:
  |           2.209696MB.
  Testing on-site integration grid accuracy.
  |  Species  Function  <phi|h_atom|phi> (log., in eV)  <phi|h_atom|phi> (rad., in eV)
           1        1                 -6.4663192853                 -6.4651273558
           1        2                 13.7111246313                 13.7170609718
           1        3                 25.2673269279                 25.2674696378
           2        4               -273.1705927641               -273.1705631568
           2        5                -10.7109323383                -10.7107120029
           2        6                 17.4381822266                 17.4352413244
           2        7                 -5.2255326521                 -5.2270484734
           2        8                  8.6835629259                  8.6603288385
           2        9                 27.4952418996                 27.4953360207

  Preparing densities etc. for the partition functions (integrals / Hartree potential).

  Preparations completed.
  max(cpu_time)          :      0.128 s.
  Wall clock time (cpu1) :      0.130 s.
------------------------------------------------------------

------------------------------------------------------------
          Begin self-consistency loop: Initialization.

          Date     :  20180215, Time     :  214515.124
------------------------------------------------------------

  Initializing index lists of integration centers etc. from given atomic structure:
  | Number of centers in hartree potential         :        12
  | Number of centers in hartree multipole         :        12
  | Number of centers in electron density summation:        12
  | Number of centers in basis integrals           :        12
  | Number of centers in integrals                 :        12
  | Number of centers in hamiltonian               :        12
  Partitioning the integration grid into batches with parallel hashing+maxmin method.
  | Number of batches:      822
  | Maximal batch size:     139
  | Minimal batch size:      51
  | Average batch size:      74.141
  | Standard deviation of batch sizes:      22.726

  Integration load balanced across     8 MPI tasks.
  Work distribution over tasks is as follows:
  Task     0 has       7680 integration points.
  Task     1 has       7592 integration points.
  Task     2 has       7602 integration points.
  Task     3 has       7606 integration points.
  Task     4 has       7611 integration points.
  Task     5 has       7701 integration points.
  Task     6 has       7562 integration points.
  Task     7 has       7590 integration points.
  Initializing partition tables, free-atom densities, potentials, etc. across the integration grid (initialize_grid_storage).
  | initialize_grid_storage: Actual outermost partition radius vs. multipole_radius_free
  | (-- VB: in principle, multipole_radius_free should be larger, hence this output)
  | Species        1: Confinement radius =              4.999999999999999 AA, multipole_radius_free =              5.054417573612229 AA.
  | Species        1: outer_partition_radius set to              5.054417573612229 AA .
  | Species        2: Confinement radius =              4.999999999999999 AA, multipole_radius_free =              5.019602836301480 AA.
  | Species        2: outer_partition_radius set to              5.019602836301480 AA .
  | Original list of interatomic distances with          12 x         12 entries is created.
  | Net number of integration points:    60944
  | of which are non-zero points    :    52352
  Renormalizing the initial density to the exact electron count on the 3D integration grid.
  | Initial density: Formal number of electrons (from input files) :      32.0000000000
  | Integrated number of electrons on 3D grid     :      31.9998217862
  | Charge integration error                      :      -0.0001782138
  | Normalization factor for density and gradient :       1.0000055692
  Obtaining max. number of non-zero basis functions in each batch (get_n_compute_maxes).
  | Maximal number of non-zero basis functions:       96 in task     0
  | Maximal number of non-zero basis functions:       96 in task     1
  | Maximal number of non-zero basis functions:       96 in task     2
  | Maximal number of non-zero basis functions:       96 in task     3
  | Maximal number of non-zero basis functions:       96 in task     4
  | Maximal number of non-zero basis functions:       96 in task     5
  | Maximal number of non-zero basis functions:       96 in task     6
  | Maximal number of non-zero basis functions:       96 in task     7
  Selecting the method for density update.
  Loop over occupied states selected for charge density update.
  Allocating        0.031 MB for KS_eigenvector
  Integrating Hamiltonian matrix: batch-based integration.
  Time summed over all CPUs for integration: real work        1.344 s, elapsed        1.383 s
  Integrating overlap matrix.
  Time summed over all CPUs for integration: real work        0.504 s, elapsed        0.515 s

  Updating Kohn-Sham eigenvalues, eigenvectors, occupation numbers, and Fermi level.
  Solving generalized eigenproblem
  Updating Kohn-Sham eigenvalues and eigenfunctions.
  Transforming overlap matrix and checking for singularities.
  Overlap matrix is nonsingular:
  | Lowest eigenvalue:  0.298902E-02
  Solving real generalised eigenvalue problem by standard LAPACK (fast)

  Obtaining occupation numbers and chemical potential using ELSI.
  | Chemical potential (Fermi level):    -8.52720319eV
  Writing Kohn-Sham eigenvalues.

  State    Occupation    Eigenvalue [Ha]    Eigenvalue [eV]
      1       2.00000         -10.166760         -276.65161
      2       2.00000         -10.166760         -276.65161
      3       2.00000         -10.151234         -276.22913
      4       2.00000         -10.150596         -276.21178
      5       2.00000          -0.927373          -25.23511
      6       2.00000          -0.850884          -23.15373
      7       2.00000          -0.795389          -21.64363
      8       2.00000          -0.656409          -17.86179
      9       2.00000          -0.611703          -16.64528
     10       2.00000          -0.574136          -15.62302
     11       2.00000          -0.546977          -14.88400
     12       2.00000          -0.533599          -14.51996
     13       2.00000          -0.526066          -14.31498
     14       2.00000          -0.503409          -13.69845
     15       2.00000          -0.478761          -13.02775
     16       2.00000          -0.385663          -10.49441
     17       0.00000          -0.177009           -4.81666
     18       0.00000          -0.047726           -1.29869
     19       0.00000          -0.032823           -0.89316
     20       0.00000          -0.002697           -0.07339
     21       0.00000           0.003847            0.10467
     22       0.00000           0.015650            0.42585
     23       0.00000           0.026926            0.73269
     24       0.00000           0.030314            0.82490
     25       0.00000           0.033818            0.92023
     26       0.00000           0.058291            1.58618
     27       0.00000           0.132419            3.60330
     28       0.00000           0.164818            4.48493
     29       0.00000           0.188967            5.14205
     30       0.00000           0.204853            5.57434
     31       0.00000           0.238686            6.49498
     32       0.00000           0.280041            7.62031
     33       0.00000           0.280335            7.62831
     34       0.00000           0.299154            8.14040
     35       0.00000           0.302508            8.23166
     36       0.00000           0.315749            8.59196
     37       0.00000           0.404531           11.00786
     38       0.00000           0.445061           12.11072
     39       0.00000           0.508616           13.84015
     40       0.00000           0.521664           14.19520

  Highest occupied state (VBM) at    -10.49441238 eV
  | Occupation number:      2.00000000

  Lowest unoccupied state (CBM) at    -4.81665658 eV
  | Occupation number:      0.00000000

  Overall HOMO-LUMO gap:      5.67775580 eV.
  Calculating total energy contributions from superposition of free atom densities.

  Total energy components:
  | Sum of eigenvalues            :         -96.05143335 Ha       -2613.69248475 eV
  | XC energy correction          :         -23.66215885 Ha        -643.88010263 eV
  | XC potential correction       :          30.39641438 Ha         827.12851907 eV
  | Free-atom electrostatic energy:         -68.00908328 Ha       -1850.62131476 eV
  | Hartree energy correction     :           0.00000000 Ha           0.00000000 eV
  | vdW energy correction         :           0.00000000 Ha           0.00000000 eV
  | Entropy correction            :           0.00000000 Ha           0.00000000 eV
  | ---------------------------
  | Total energy                  :        -157.32626111 Ha       -4281.06538307 eV
  | Total energy, T -> 0          :        -157.32626111 Ha       -4281.06538307 eV  <-- do not rely on this value for anything but (periodic) metals
  | Electronic free energy        :        -157.32626111 Ha       -4281.06538307 eV

  Derived energy quantities:
  | Kinetic energy                :         154.19758707 Ha        4195.92983071 eV
  | Electrostatic energy          :        -287.86168933 Ha       -7833.11511114 eV
  | Energy correction for multipole
  | error in Hartree potential    :           0.00000000 Ha           0.00000000 eV
  | Sum of eigenvalues per atom                           :        -217.80770706 eV
  | Total energy (T->0) per atom                          :        -356.75544859 eV  <-- do not rely on this value for anything but (periodic) metals
  | Electronic free energy per atom                       :        -356.75544859 eV
  Initialize hartree_potential_storage
  Max. number of atoms included in rho_multipole:           12

  End scf initialization - timings             :  max(cpu_time)    wall_clock(cpu1)
  | Time for scf. initialization               :        0.440 s           0.439 s
  | Boundary condition initialization          :        0.000 s           0.002 s
  | Integration                                :        0.248 s           0.248 s
  | Solution of K.-S. eqns.                    :        0.012 s           0.011 s
  | Grid partitioning                          :        0.072 s           0.071 s
  | Preloading free-atom quantities on grid    :        0.004 s           0.003 s
  | Free-atom superposition energy             :        0.024 s           0.022 s
  | Total energy evaluation                    :        0.004 s           0.001 s

  Partial memory accounting:
  | Current value for overall tracked memory usage on task 0  :           0.179 MB
  | Peak value for overall tracked memory usage on task 0     :           0.502 MB after allocating wave
  | Largest tracked array allocation on task 0 so far         :           0.107 MB  when allocating H_times_psi
  Note:  These values currently only include a subset of arrays which are explicitly tracked.
  The "true" memory usage will be greater.
------------------------------------------------------------

------------------------------------------------------------
          Begin self-consistency iteration #    1

  Date     :  20180215, Time     :  214515.564
------------------------------------------------------------
  Evaluating new KS density.
  Integration grid: deviation in total charge (<rho> - N_e) =   7.105427E-15
  Pulay mixing of updated and previous charge densities.

  Evaluating partitioned Hartree potential by multipole expansion.
  | Analytical far-field extrapolation by fixed multipoles:
  | Hartree multipole sum: apparent total charge =  -0.208592E-03
  Summing up the Hartree potential.
  Time summed over all CPUs for potential: real work        1.272 s, elapsed        1.289 s
  | RMS charge density error from multipole expansion :   0.135049E-02

  Integrating Hamiltonian matrix: batch-based integration.
  Time summed over all CPUs for integration: real work        1.319 s, elapsed        1.386 s

  Updating Kohn-Sham eigenvalues, eigenvectors, occupation numbers, and Fermi level.
  Solving generalized eigenproblem
  Updating Kohn-Sham eigenvalues and eigenfunctions.
  Solving real generalised eigenvalue problem by standard LAPACK (fast)

  Obtaining occupation numbers and chemical potential using ELSI.
  | Chemical potential (Fermi level):    -8.12488197eV
  Writing Kohn-Sham eigenvalues.

  State    Occupation    Eigenvalue [Ha]    Eigenvalue [eV]
      1       2.00000         -10.131900         -275.70304
      2       2.00000         -10.131900         -275.70304
      3       2.00000         -10.121744         -275.42667
      4       2.00000         -10.121106         -275.40931
      5       2.00000          -0.907049          -24.68207
      6       2.00000          -0.831905          -22.63730
      7       2.00000          -0.776094          -21.11860
      8       2.00000          -0.639394          -17.39880
      9       2.00000          -0.594712          -16.18293
     10       2.00000          -0.554055          -15.07660
     11       2.00000          -0.530446          -14.43417
     12       2.00000          -0.517193          -14.07354
     13       2.00000          -0.508567          -13.83882
     14       2.00000          -0.486774          -13.24579
     15       2.00000          -0.461602          -12.56084
     16       2.00000          -0.368526          -10.02810
     17       0.00000          -0.160465           -4.36648
     18       0.00000          -0.038774           -1.05510
     19       0.00000          -0.023487           -0.63911
     20       0.00000           0.005925            0.16121
     21       0.00000           0.020327            0.55312
     22       0.00000           0.025582            0.69611
     23       0.00000           0.038254            1.04096
     24       0.00000           0.040241            1.09501
     25       0.00000           0.044302            1.20553
     26       0.00000           0.069570            1.89309
     27       0.00000           0.145476            3.95862
     28       0.00000           0.174522            4.74898
     29       0.00000           0.201097            5.47212
     30       0.00000           0.215266            5.85769
     31       0.00000           0.252194            6.86255
     32       0.00000           0.290538            7.90594
     33       0.00000           0.291165            7.92299
     34       0.00000           0.309447            8.42048
     35       0.00000           0.319833            8.70310
     36       0.00000           0.325483            8.85685
     37       0.00000           0.416130           11.32346
     38       0.00000           0.457700           12.45465
     39       0.00000           0.519443           14.13476
     40       0.00000           0.534748           14.55123

  Highest occupied state (VBM) at    -10.02809713 eV
  | Occupation number:      2.00000000

  Lowest unoccupied state (CBM) at    -4.36647638 eV
  | Occupation number:      0.00000000

  Overall HOMO-LUMO gap:      5.66162075 eV.

  Total energy components:
  | Sum of eigenvalues            :         -95.36593882 Ha       -2595.03922932 eV
  | XC energy correction          :         -23.72244586 Ha        -645.52059568 eV
  | XC potential correction       :          30.47454170 Ha         829.25447179 eV
  | Free-atom electrostatic energy:         -68.00908328 Ha       -1850.62131476 eV
  | Hartree energy correction     :          -0.65419200 Ha         -17.80147014 eV
  | vdW energy correction         :           0.00000000 Ha           0.00000000 eV
  | Entropy correction            :           0.00000000 Ha           0.00000000 eV
  | ---------------------------
  | Total energy                  :        -157.27711826 Ha       -4279.72813810 eV
  | Total energy, T -> 0          :        -157.27711826 Ha       -4279.72813810 eV  <-- do not rely on this value for anything but (periodic) metals
  | Electronic free energy        :        -157.27711826 Ha       -4279.72813810 eV

  Derived energy quantities:
  | Kinetic energy                :         154.52536929 Ha        4204.84923870 eV
  | Electrostatic energy          :        -288.08004169 Ha       -7839.05678112 eV
  | Energy correction for multipole
  | error in Hartree potential    :           0.00233539 Ha           0.06354916 eV
  | Sum of eigenvalues per atom                           :        -216.25326911 eV
  | Total energy (T->0) per atom                          :        -356.64401151 eV  <-- do not rely on this value for anything but (periodic) metals
  | Electronic free energy per atom                       :        -356.64401151 eV

  Self-consistency convergence accuracy:
  | Change of charge density      :  0.4877E+00
  | Change of sum of eigenvalues  :  0.1865E+02 eV
  | Change of total energy        :  0.1337E+01 eV

  End self-consistency iteration #     1       :  max(cpu_time)    wall_clock(cpu1)
  | Time for this iteration                    :        0.536 s           0.535 s
  | Charge density update                      :        0.172 s           0.170 s
  | Density mixing                             :        0.004 s           0.001 s
  | Hartree multipole update                   :        0.012 s           0.010 s
  | Hartree multipole summation                :        0.168 s           0.169 s
  | Integration                                :        0.180 s           0.180 s
  | Solution of K.-S. eqns.                    :        0.004 s           0.002 s
  | Total energy evaluation                    :        0.000 s           0.001 s

  Partial memory accounting:
  | Current value for overall tracked memory usage on task 0  :           0.179 MB
  | Peak value for overall tracked memory usage on task 0     :           0.606 MB after allocating gradient_basis_wave
  | Largest tracked array allocation on task 0 so far         :           0.320 MB  when allocating gradient_basis_wave
  Note:  These values currently only include a subset of arrays which are explicitly tracked.
  The "true" memory usage will be greater.
------------------------------------------------------------

------------------------------------------------------------
          Begin self-consistency iteration #    2

  Date     :  20180215, Time     :  214516.100
------------------------------------------------------------
  Evaluating new KS density.
  Integration grid: deviation in total charge (<rho> - N_e) =   7.105427E-15
  Pulay mixing of updated and previous charge densities.

  Evaluating partitioned Hartree potential by multipole expansion.
  | Analytical far-field extrapolation by fixed multipoles:
  | Hartree multipole sum: apparent total charge =  -0.473243E-03
  Summing up the Hartree potential.
  Time summed over all CPUs for potential: real work        1.288 s, elapsed        1.314 s
  | RMS charge density error from multipole expansion :   0.132297E-01

  Integrating Hamiltonian matrix: batch-based integration.
  Time summed over all CPUs for integration: real work        1.355 s, elapsed        1.407 s

  Updating Kohn-Sham eigenvalues, eigenvectors, occupation numbers, and Fermi level.
  Solving generalized eigenproblem
  Updating Kohn-Sham eigenvalues and eigenfunctions.
  Solving real generalised eigenvalue problem by standard LAPACK (fast)

  Obtaining occupation numbers and chemical potential using ELSI.
  | Chemical potential (Fermi level):    -4.60153613eV
  Highest occupied state (VBM) at     -6.20900277 eV
  | Occupation number:      2.00000000

  Lowest unoccupied state (CBM) at    -0.70479033 eV
  | Occupation number:      0.00000000

  Overall HOMO-LUMO gap:      5.50421244 eV.

  Checking to see if s.c.f. parameters should be adjusted.
  The system likely has a gap. Increased the default Pulay mixing parameter (charge_mix_param). Value:   0.200000 .
  Kept the default occupation width. Value:   0.010000 eV.

  Total energy components:
  | Sum of eigenvalues            :         -89.67559252 Ha       -2440.19702821 eV
  | XC energy correction          :         -24.27517307 Ha        -660.56106828 eV
  | XC potential correction       :          31.19046309 Ha         848.73568375 eV
  | Free-atom electrostatic energy:         -68.00908328 Ha       -1850.62131476 eV
  | Hartree energy correction     :          -6.30692168 Ha        -171.62007095 eV
  | vdW energy correction         :           0.00000000 Ha           0.00000000 eV
  | Entropy correction            :           0.00000000 Ha           0.00000000 eV
  | ---------------------------
  | Total energy                  :        -157.07630747 Ha       -4274.26379845 eV
  | Total energy, T -> 0          :        -157.07630747 Ha       -4274.26379845 eV  <-- do not rely on this value for anything but (periodic) metals
  | Electronic free energy        :        -157.07630747 Ha       -4274.26379845 eV

  Derived energy quantities:
  | Kinetic energy                :         156.92930427 Ha        4270.26363780 eV
  | Electrostatic energy          :        -289.73043867 Ha       -7883.96636797 eV
  | Energy correction for multipole
  | error in Hartree potential    :           0.02205215 Ha           0.60006952 eV
  | Sum of eigenvalues per atom                           :        -203.34975235 eV
  | Total energy (T->0) per atom                          :        -356.18864987 eV  <-- do not rely on this value for anything but (periodic) metals
  | Electronic free energy per atom                       :        -356.18864987 eV

  Self-consistency convergence accuracy:
  | Change of charge density      :  0.4487E+00
  | Change of sum of eigenvalues  :  0.1548E+03 eV
  | Change of total energy        :  0.5464E+01 eV

  End self-consistency iteration #     2       :  max(cpu_time)    wall_clock(cpu1)
  | Time for this iteration                    :        0.540 s           0.540 s
  | Charge density update                      :        0.168 s           0.169 s
  | Density mixing                             :        0.004 s           0.003 s
  | Hartree multipole update                   :        0.012 s           0.010 s
  | Hartree multipole summation                :        0.172 s           0.171 s
  | Integration                                :        0.184 s           0.183 s
  | Solution of K.-S. eqns.                    :        0.004 s           0.002 s
  | Total energy evaluation                    :        0.000 s           0.001 s

  Partial memory accounting:
  | Current value for overall tracked memory usage on task 0  :           0.180 MB
  | Peak value for overall tracked memory usage on task 0     :           0.606 MB after allocating gradient_basis_wave
  | Largest tracked array allocation on task 0 so far         :           0.320 MB  when allocating gradient_basis_wave
  Note:  These values currently only include a subset of arrays which are explicitly tracked.
  The "true" memory usage will be greater.
------------------------------------------------------------

------------------------------------------------------------
          Begin self-consistency iteration #    3

  Date     :  20180215, Time     :  214516.641
------------------------------------------------------------
  Evaluating new KS density.
  Integration grid: deviation in total charge (<rho> - N_e) =   7.105427E-15
  Pulay mixing of updated and previous charge densities.

  Evaluating partitioned Hartree potential by multipole expansion.
  | Analytical far-field extrapolation by fixed multipoles:
  | Hartree multipole sum: apparent total charge =  -0.461564E-03
  Summing up the Hartree potential.
  Time summed over all CPUs for potential: real work        1.286 s, elapsed        1.356 s
  | RMS charge density error from multipole expansion :   0.164691E-01

  Integrating Hamiltonian matrix: batch-based integration.
  Time summed over all CPUs for integration: real work        1.339 s, elapsed        1.394 s

  Updating Kohn-Sham eigenvalues, eigenvectors, occupation numbers, and Fermi level.
  Solving generalized eigenproblem
  Updating Kohn-Sham eigenvalues and eigenfunctions.
  Solving real generalised eigenvalue problem by standard LAPACK (fast)

  Obtaining occupation numbers and chemical potential using ELSI.
  | Chemical potential (Fermi level):    -5.05228388eV
  Highest occupied state (VBM) at     -6.85035986 eV
  | Occupation number:      2.00000000

  Lowest unoccupied state (CBM) at    -1.32655068 eV
  | Occupation number:      0.00000000

  Overall HOMO-LUMO gap:      5.52380919 eV.

  Total energy components:
  | Sum of eigenvalues            :         -90.61534697 Ha       -2465.76904809 eV
  | XC energy correction          :         -24.23440368 Ha        -659.45167670 eV
  | XC potential correction       :          31.13400984 Ha         847.19951270 eV
  | Free-atom electrostatic energy:         -68.00908328 Ha       -1850.62131476 eV
  | Hartree energy correction     :          -5.34556268 Ha        -145.46016157 eV
  | vdW energy correction         :           0.00000000 Ha           0.00000000 eV
  | Entropy correction            :           0.00000000 Ha           0.00000000 eV
  | ---------------------------
  | Total energy                  :        -157.07038679 Ha       -4274.10268841 eV
  | Total energy, T -> 0          :        -157.07038679 Ha       -4274.10268841 eV  <-- do not rely on this value for anything but (periodic) metals
  | Electronic free energy        :        -157.07038679 Ha       -4274.10268841 eV

  Derived energy quantities:
  | Kinetic energy                :         156.28497277 Ha        4252.73048569 eV
  | Electrostatic energy          :        -289.12095588 Ha       -7867.38149740 eV
  | Energy correction for multipole
  | error in Hartree potential    :           0.02664704 Ha           0.72510286 eV
  | Sum of eigenvalues per atom                           :        -205.48075401 eV
  | Total energy (T->0) per atom                          :        -356.17522403 eV  <-- do not rely on this value for anything but (periodic) metals
  | Electronic free energy per atom                       :        -356.17522403 eV

  Self-consistency convergence accuracy:
  | Change of charge density      :  0.2106E+00
  | Change of sum of eigenvalues  : -0.2557E+02 eV
  | Change of total energy        :  0.1611E+00 eV

  End self-consistency iteration #     3       :  max(cpu_time)    wall_clock(cpu1)
  | Time for this iteration                    :        0.604 s           0.603 s
  | Charge density update                      :        0.224 s           0.222 s
  | Density mixing                             :        0.008 s           0.004 s
  | Hartree multipole update                   :        0.016 s           0.013 s
  | Hartree multipole summation                :        0.176 s           0.178 s
  | Integration                                :        0.184 s           0.181 s
  | Solution of K.-S. eqns.                    :        0.004 s           0.004 s
  | Total energy evaluation                    :        0.000 s           0.001 s

  Partial memory accounting:
  | Current value for overall tracked memory usage on task 0  :           0.180 MB
  | Peak value for overall tracked memory usage on task 0     :           0.607 MB after allocating gradient_basis_wave
  | Largest tracked array allocation on task 0 so far         :           0.320 MB  when allocating gradient_basis_wave
  Note:  These values currently only include a subset of arrays which are explicitly tracked.
  The "true" memory usage will be greater.
------------------------------------------------------------

------------------------------------------------------------
          Begin self-consistency iteration #    4

  Date     :  20180215, Time     :  214517.245
------------------------------------------------------------
  Evaluating new KS density.
  Integration grid: deviation in total charge (<rho> - N_e) =   7.105427E-15
  Pulay mixing of updated and previous charge densities.

  Evaluating partitioned Hartree potential by multipole expansion.
  | Analytical far-field extrapolation by fixed multipoles:
  | Hartree multipole sum: apparent total charge =  -0.534898E-03
  Summing up the Hartree potential.
  Time summed over all CPUs for potential: real work        1.292 s, elapsed        1.393 s
  | RMS charge density error from multipole expansion :   0.221903E-01

  Integrating Hamiltonian matrix: batch-based integration.
  Time summed over all CPUs for integration: real work        1.500 s, elapsed        1.735 s

  Updating Kohn-Sham eigenvalues, eigenvectors, occupation numbers, and Fermi level.
  Solving generalized eigenproblem
  Updating Kohn-Sham eigenvalues and eigenfunctions.
  Solving real generalised eigenvalue problem by standard LAPACK (fast)

  Obtaining occupation numbers and chemical potential using ELSI.
  | Chemical potential (Fermi level):    -4.41322225eV
  Highest occupied state (VBM) at     -6.20548278 eV
  | Occupation number:      2.00000000

  Lowest unoccupied state (CBM) at    -0.71292356 eV
  | Occupation number:      0.00000000

  Overall HOMO-LUMO gap:      5.49255922 eV.

  Total energy components:
  | Sum of eigenvalues            :         -89.71081620 Ha       -2441.15551344 eV
  | XC energy correction          :         -24.37185573 Ha        -663.19193735 eV
  | XC potential correction       :          31.30972925 Ha         851.98108129 eV
  | Free-atom electrostatic energy:         -68.00908328 Ha       -1850.62131476 eV
  | Hartree energy correction     :          -6.27799284 Ha        -170.83287702 eV
  | vdW energy correction         :           0.00000000 Ha           0.00000000 eV
  | Entropy correction            :           0.00000000 Ha           0.00000000 eV
  | ---------------------------
  | Total energy                  :        -157.06001880 Ha       -4273.82056127 eV
  | Total energy, T -> 0          :        -157.06001880 Ha       -4273.82056127 eV  <-- do not rely on this value for anything but (periodic) metals
  | Electronic free energy        :        -157.06001880 Ha       -4273.82056127 eV

  Derived energy quantities:
  | Kinetic energy                :         156.35797968 Ha        4254.71710469 eV
  | Electrostatic energy          :        -289.04614275 Ha       -7865.34572861 eV
  | Energy correction for multipole
  | error in Hartree potential    :           0.03433644 Ha           0.93434201 eV
  | Sum of eigenvalues per atom                           :        -203.42962612 eV
  | Total energy (T->0) per atom                          :        -356.15171344 eV  <-- do not rely on this value for anything but (periodic) metals
  | Electronic free energy per atom                       :        -356.15171344 eV

  Self-consistency convergence accuracy:
  | Change of charge density      :  0.1267E+00
  | Change of sum of eigenvalues  :  0.2461E+02 eV
  | Change of total energy        :  0.2821E+00 eV

  End self-consistency iteration #     4       :  max(cpu_time)    wall_clock(cpu1)
  | Time for this iteration                    :        0.644 s           0.643 s
  | Charge density update                      :        0.208 s           0.208 s
  | Density mixing                             :        0.008 s           0.006 s
  | Hartree multipole update                   :        0.012 s           0.011 s
  | Hartree multipole summation                :        0.184 s           0.185 s
  | Integration                                :        0.228 s           0.226 s
  | Solution of K.-S. eqns.                    :        0.004 s           0.006 s
  | Total energy evaluation                    :        0.004 s           0.001 s

  Partial memory accounting:
  | Current value for overall tracked memory usage on task 0  :           0.180 MB
  | Peak value for overall tracked memory usage on task 0     :           0.607 MB after allocating gradient_basis_wave
  | Largest tracked array allocation on task 0 so far         :           0.320 MB  when allocating gradient_basis_wave
  Note:  These values currently only include a subset of arrays which are explicitly tracked.
  The "true" memory usage will be greater.
------------------------------------------------------------

------------------------------------------------------------
          Begin self-consistency iteration #    5

  Date     :  20180215, Time     :  214517.889
------------------------------------------------------------
  Evaluating new KS density.
  Integration grid: deviation in total charge (<rho> - N_e) =   1.421085E-14
  Pulay mixing of updated and previous charge densities.

  Evaluating partitioned Hartree potential by multipole expansion.
  | Analytical far-field extrapolation by fixed multipoles:
  | Hartree multipole sum: apparent total charge =  -0.565182E-03
  Summing up the Hartree potential.
  Time summed over all CPUs for potential: real work        1.285 s, elapsed        1.321 s
  | RMS charge density error from multipole expansion :   0.229205E-01

  Integrating Hamiltonian matrix: batch-based integration.
  Time summed over all CPUs for integration: real work        1.363 s, elapsed        1.423 s

  Updating Kohn-Sham eigenvalues, eigenvectors, occupation numbers, and Fermi level.
  Solving generalized eigenproblem
  Updating Kohn-Sham eigenvalues and eigenfunctions.
  Solving real generalised eigenvalue problem by standard LAPACK (fast)

  Obtaining occupation numbers and chemical potential using ELSI.
  | Chemical potential (Fermi level):    -4.20216877eV
  Highest occupied state (VBM) at     -5.93921740 eV
  | Occupation number:      2.00000000

  Lowest unoccupied state (CBM) at    -0.44803840 eV
  | Occupation number:      0.00000000

  Overall HOMO-LUMO gap:      5.49117900 eV.

  Total energy components:
  | Sum of eigenvalues            :         -89.43401007 Ha       -2433.62323548 eV
  | XC energy correction          :         -24.39543917 Ha        -663.83367541 eV
  | XC potential correction       :          31.34033020 Ha         852.81377534 eV
  | Free-atom electrostatic energy:         -68.00908328 Ha       -1850.62131476 eV
  | Hartree energy correction     :          -6.56046304 Ha        -178.51928229 eV
  | vdW energy correction         :           0.00000000 Ha           0.00000000 eV
  | Entropy correction            :           0.00000000 Ha           0.00000000 eV
  | ---------------------------
  | Total energy                  :        -157.05866538 Ha       -4273.78373259 eV
  | Total energy, T -> 0          :        -157.05866538 Ha       -4273.78373259 eV  <-- do not rely on this value for anything but (periodic) metals
  | Electronic free energy        :        -157.05866538 Ha       -4273.78373259 eV

  Derived energy quantities:
  | Kinetic energy                :         156.32896515 Ha        4253.92757911 eV
  | Electrostatic energy          :        -288.99219135 Ha       -7863.87763629 eV
  | Energy correction for multipole
  | error in Hartree potential    :           0.03392996 Ha           0.92328124 eV
  | Sum of eigenvalues per atom                           :        -202.80193629 eV
  | Total energy (T->0) per atom                          :        -356.14864438 eV  <-- do not rely on this value for anything but (periodic) metals
  | Electronic free energy per atom                       :        -356.14864438 eV

  Self-consistency convergence accuracy:
  | Change of charge density      :  0.3393E-01
  | Change of sum of eigenvalues  :  0.7532E+01 eV
  | Change of total energy        :  0.3683E-01 eV

  End self-consistency iteration #     5       :  max(cpu_time)    wall_clock(cpu1)
  | Time for this iteration                    :        0.596 s           0.598 s
  | Charge density update                      :        0.216 s           0.217 s
  | Density mixing                             :        0.012 s           0.008 s
  | Hartree multipole update                   :        0.012 s           0.011 s
  | Hartree multipole summation                :        0.172 s           0.172 s
  | Integration                                :        0.184 s           0.186 s
  | Solution of K.-S. eqns.                    :        0.004 s           0.003 s
  | Total energy evaluation                    :        0.000 s           0.000 s

  Partial memory accounting:
  | Current value for overall tracked memory usage on task 0  :           0.180 MB
  | Peak value for overall tracked memory usage on task 0     :           0.607 MB after allocating gradient_basis_wave
  | Largest tracked array allocation on task 0 so far         :           0.320 MB  when allocating gradient_basis_wave
  Note:  These values currently only include a subset of arrays which are explicitly tracked.
  The "true" memory usage will be greater.
------------------------------------------------------------

------------------------------------------------------------
          Begin self-consistency iteration #    6

  Date     :  20180215, Time     :  214518.488
------------------------------------------------------------
  Evaluating new KS density.
  Integration grid: deviation in total charge (<rho> - N_e) =  -1.065814E-14
  Pulay mixing of updated and previous charge densities.

  Evaluating partitioned Hartree potential by multipole expansion.
  | Analytical far-field extrapolation by fixed multipoles:
  | Hartree multipole sum: apparent total charge =  -0.583508E-03
  Summing up the Hartree potential.
  Time summed over all CPUs for potential: real work        1.300 s, elapsed        1.519 s
  | RMS charge density error from multipole expansion :   0.231979E-01

  Integrating Hamiltonian matrix: batch-based integration.
  Time summed over all CPUs for integration: real work        1.359 s, elapsed        1.436 s

  Updating Kohn-Sham eigenvalues, eigenvectors, occupation numbers, and Fermi level.
  Solving generalized eigenproblem
  Updating Kohn-Sham eigenvalues and eigenfunctions.
  Solving real generalised eigenvalue problem by standard LAPACK (fast)

  Obtaining occupation numbers and chemical potential using ELSI.
  | Chemical potential (Fermi level):    -4.12211830eV
  Highest occupied state (VBM) at     -5.86503630 eV
  | Occupation number:      2.00000000

  Lowest unoccupied state (CBM) at    -0.37424468 eV
  | Occupation number:      0.00000000

  Overall HOMO-LUMO gap:      5.49079163 eV.

  Total energy components:
  | Sum of eigenvalues            :         -89.34753369 Ha       -2431.27009341 eV
  | XC energy correction          :         -24.40465553 Ha        -664.08446518 eV
  | XC potential correction       :          31.35228048 Ha         853.13895910 eV
  | Free-atom electrostatic energy:         -68.00908328 Ha       -1850.62131476 eV
  | Hartree energy correction     :          -6.64946000 Ha        -180.94101288 eV
  | vdW energy correction         :           0.00000000 Ha           0.00000000 eV
  | Entropy correction            :           0.00000000 Ha           0.00000000 eV
  | ---------------------------
  | Total energy                  :        -157.05845203 Ha       -4273.77792713 eV
  | Total energy, T -> 0          :        -157.05845203 Ha       -4273.77792713 eV  <-- do not rely on this value for anything but (periodic) metals
  | Electronic free energy        :        -157.05845203 Ha       -4273.77792713 eV

  Derived energy quantities:
  | Kinetic energy                :         156.28403377 Ha        4252.70493415 eV
  | Electrostatic energy          :        -288.93783027 Ha       -7862.39839610 eV
  | Energy correction for multipole
  | error in Hartree potential    :           0.03318792 Ha           0.90308930 eV
  | Sum of eigenvalues per atom                           :        -202.60584112 eV
  | Total energy (T->0) per atom                          :        -356.14816059 eV  <-- do not rely on this value for anything but (periodic) metals
  | Electronic free energy per atom                       :        -356.14816059 eV

  Self-consistency convergence accuracy:
  | Change of charge density      :  0.1523E-01
  | Change of sum of eigenvalues  :  0.2353E+01 eV
  | Change of total energy        :  0.5805E-02 eV

  End self-consistency iteration #     6       :  max(cpu_time)    wall_clock(cpu1)
  | Time for this iteration                    :        0.584 s           0.582 s
  | Charge density update                      :        0.176 s           0.173 s
  | Density mixing                             :        0.008 s           0.009 s
  | Hartree multipole update                   :        0.012 s           0.010 s
  | Hartree multipole summation                :        0.200 s           0.198 s
  | Integration                                :        0.188 s           0.187 s
  | Solution of K.-S. eqns.                    :        0.004 s           0.002 s
  | Total energy evaluation                    :        0.000 s           0.000 s

  Partial memory accounting:
  | Current value for overall tracked memory usage on task 0  :           0.180 MB
  | Peak value for overall tracked memory usage on task 0     :           0.607 MB after allocating gradient_basis_wave
  | Largest tracked array allocation on task 0 so far         :           0.320 MB  when allocating gradient_basis_wave
  Note:  These values currently only include a subset of arrays which are explicitly tracked.
  The "true" memory usage will be greater.
------------------------------------------------------------

------------------------------------------------------------
          Begin self-consistency iteration #    7

  Date     :  20180215, Time     :  214519.071
------------------------------------------------------------
  Evaluating new KS density.
  Integration grid: deviation in total charge (<rho> - N_e) =   1.421085E-14
  Pulay mixing of updated and previous charge densities.

  Evaluating partitioned Hartree potential by multipole expansion.
  | Analytical far-field extrapolation by fixed multipoles:
  | Hartree multipole sum: apparent total charge =  -0.587173E-03
  Summing up the Hartree potential.
  Time summed over all CPUs for potential: real work        1.278 s, elapsed        1.300 s
  | RMS charge density error from multipole expansion :   0.231813E-01

  Integrating Hamiltonian matrix: batch-based integration.
  Time summed over all CPUs for integration: real work        1.372 s, elapsed        1.493 s

  Updating Kohn-Sham eigenvalues, eigenvectors, occupation numbers, and Fermi level.
  Solving generalized eigenproblem
  Updating Kohn-Sham eigenvalues and eigenfunctions.
  Solving real generalised eigenvalue problem by standard LAPACK (fast)

  Obtaining occupation numbers and chemical potential using ELSI.
  | Chemical potential (Fermi level):    -4.10175662eV
  Highest occupied state (VBM) at     -5.84011036 eV
  | Occupation number:      2.00000000

  Lowest unoccupied state (CBM) at    -0.34959152 eV
  | Occupation number:      0.00000000

  Overall HOMO-LUMO gap:      5.49051884 eV.

  Total energy components:
  | Sum of eigenvalues            :         -89.32126029 Ha       -2430.55515776 eV
  | XC energy correction          :         -24.40628634 Ha        -664.12884184 eV
  | XC potential correction       :          31.35445279 Ha         853.19807057 eV
  | Free-atom electrostatic energy:         -68.00908328 Ha       -1850.62131476 eV
  | Hartree energy correction     :          -6.67623297 Ha        -181.66954241 eV
  | vdW energy correction         :           0.00000000 Ha           0.00000000 eV
  | Entropy correction            :           0.00000000 Ha           0.00000000 eV
  | ---------------------------
  | Total energy                  :        -157.05841010 Ha       -4273.77678621 eV
  | Total energy, T -> 0          :        -157.05841010 Ha       -4273.77678621 eV  <-- do not rely on this value for anything but (periodic) metals
  | Electronic free energy        :        -157.05841010 Ha       -4273.77678621 eV

  Derived energy quantities:
  | Kinetic energy                :         156.28318195 Ha        4252.68175487 eV
  | Electrostatic energy          :        -288.93530571 Ha       -7862.32969924 eV
  | Energy correction for multipole
  | error in Hartree potential    :           0.03294482 Ha           0.89647416 eV
  | Sum of eigenvalues per atom                           :        -202.54626315 eV
  | Total energy (T->0) per atom                          :        -356.14806552 eV  <-- do not rely on this value for anything but (periodic) metals
  | Electronic free energy per atom                       :        -356.14806552 eV

  Self-consistency convergence accuracy:
  | Change of charge density      :  0.6870E-02
  | Change of sum of eigenvalues  :  0.7149E+00 eV
  | Change of total energy        :  0.1141E-02 eV

  End self-consistency iteration #     7       :  max(cpu_time)    wall_clock(cpu1)
  | Time for this iteration                    :        0.576 s           0.578 s
  | Charge density update                      :        0.188 s           0.186 s
  | Density mixing                             :        0.012 s           0.011 s
  | Hartree multipole update                   :        0.012 s           0.010 s
  | Hartree multipole summation                :        0.168 s           0.170 s
  | Integration                                :        0.196 s           0.194 s
  | Solution of K.-S. eqns.                    :        0.004 s           0.002 s
  | Total energy evaluation                    :        0.000 s           0.003 s

  Partial memory accounting:
  | Current value for overall tracked memory usage on task 0  :           0.180 MB
  | Peak value for overall tracked memory usage on task 0     :           0.607 MB after allocating gradient_basis_wave
  | Largest tracked array allocation on task 0 so far         :           0.320 MB  when allocating gradient_basis_wave
  Note:  These values currently only include a subset of arrays which are explicitly tracked.
  The "true" memory usage will be greater.
------------------------------------------------------------

------------------------------------------------------------
          Begin self-consistency iteration #    8

  Date     :  20180215, Time     :  214519.650
------------------------------------------------------------
  Evaluating new KS density.
  Integration grid: deviation in total charge (<rho> - N_e) =  -1.776357E-14
  Pulay mixing of updated and previous charge densities.

  Evaluating partitioned Hartree potential by multipole expansion.
  | Analytical far-field extrapolation by fixed multipoles:
  | Hartree multipole sum: apparent total charge =  -0.597180E-03
  Summing up the Hartree potential.
  Time summed over all CPUs for potential: real work        1.279 s, elapsed        1.314 s
  | RMS charge density error from multipole expansion :   0.232340E-01

  Integrating Hamiltonian matrix: batch-based integration.
  Time summed over all CPUs for integration: real work        1.347 s, elapsed        1.410 s

  Updating Kohn-Sham eigenvalues, eigenvectors, occupation numbers, and Fermi level.
  Solving generalized eigenproblem
  Updating Kohn-Sham eigenvalues and eigenfunctions.
  Solving real generalised eigenvalue problem by standard LAPACK (fast)

  Obtaining occupation numbers and chemical potential using ELSI.
  | Chemical potential (Fermi level):    -4.04684046eV
  Highest occupied state (VBM) at     -5.77274458 eV
  | Occupation number:      2.00000000

  Lowest unoccupied state (CBM) at    -0.28421131 eV
  | Occupation number:      0.00000000

  Overall HOMO-LUMO gap:      5.48853327 eV.

  Total energy components:
  | Sum of eigenvalues            :         -89.25090974 Ha       -2428.64082199 eV
  | XC energy correction          :         -24.41273434 Ha        -664.30430096 eV
  | XC potential correction       :          31.36289434 Ha         853.42777699 eV
  | Free-atom electrostatic energy:         -68.00908328 Ha       -1850.62131476 eV
  | Hartree energy correction     :          -6.74852471 Ha        -183.63670077 eV
  | vdW energy correction         :           0.00000000 Ha           0.00000000 eV
  | Entropy correction            :           0.00000000 Ha           0.00000000 eV
  | ---------------------------
  | Total energy                  :        -157.05835774 Ha       -4273.77536149 eV
  | Total energy, T -> 0          :        -157.05835774 Ha       -4273.77536149 eV  <-- do not rely on this value for anything but (periodic) metals
  | Electronic free energy        :        -157.05835774 Ha       -4273.77536149 eV

  Derived energy quantities:
  | Kinetic energy                :         156.28343615 Ha        4252.68867211 eV
  | Electrostatic energy          :        -288.92905955 Ha       -7862.15973264 eV
  | Energy correction for multipole
  | error in Hartree potential    :           0.03250881 Ha           0.88460971 eV
  | Sum of eigenvalues per atom                           :        -202.38673517 eV
  | Total energy (T->0) per atom                          :        -356.14794679 eV  <-- do not rely on this value for anything but (periodic) metals
  | Electronic free energy per atom                       :        -356.14794679 eV

  Self-consistency convergence accuracy:
  | Change of charge density      :  0.5400E-02
  | Change of sum of eigenvalues  :  0.1914E+01 eV
  | Change of total energy        :  0.1425E-02 eV

  End self-consistency iteration #     8       :  max(cpu_time)    wall_clock(cpu1)
  | Time for this iteration                    :        0.560 s           0.556 s
  | Charge density update                      :        0.176 s           0.173 s
  | Density mixing                             :        0.012 s           0.013 s
  | Hartree multipole update                   :        0.012 s           0.010 s
  | Hartree multipole summation                :        0.172 s           0.173 s
  | Integration                                :        0.184 s           0.184 s
  | Solution of K.-S. eqns.                    :        0.004 s           0.002 s
  | Total energy evaluation                    :        0.000 s           0.001 s

  Partial memory accounting:
  | Current value for overall tracked memory usage on task 0  :           0.180 MB
  | Peak value for overall tracked memory usage on task 0     :           0.607 MB after allocating gradient_basis_wave
  | Largest tracked array allocation on task 0 so far         :           0.320 MB  when allocating gradient_basis_wave
  Note:  These values currently only include a subset of arrays which are explicitly tracked.
  The "true" memory usage will be greater.
------------------------------------------------------------

------------------------------------------------------------
          Begin self-consistency iteration #    9

  Date     :  20180215, Time     :  214520.207
------------------------------------------------------------
  Evaluating new KS density.
  Integration grid: deviation in total charge (<rho> - N_e) =   7.105427E-15
  Pulay mixing of updated and previous charge densities.

  Evaluating partitioned Hartree potential by multipole expansion.
  | Analytical far-field extrapolation by fixed multipoles:
  | Hartree multipole sum: apparent total charge =  -0.599440E-03
  Summing up the Hartree potential.
  Time summed over all CPUs for potential: real work        1.314 s, elapsed        1.517 s
  | RMS charge density error from multipole expansion :   0.232464E-01

  Integrating Hamiltonian matrix: batch-based integration.
  Time summed over all CPUs for integration: real work        1.438 s, elapsed        1.692 s

  Updating Kohn-Sham eigenvalues, eigenvectors, occupation numbers, and Fermi level.
  Solving generalized eigenproblem
  Updating Kohn-Sham eigenvalues and eigenfunctions.
  Solving real generalised eigenvalue problem by standard LAPACK (fast)

  Obtaining occupation numbers and chemical potential using ELSI.
  | Chemical potential (Fermi level):    -4.03423048eV
  Highest occupied state (VBM) at     -5.75836618 eV
  | Occupation number:      2.00000000

  Lowest unoccupied state (CBM) at    -0.27050357 eV
  | Occupation number:      0.00000000

  Overall HOMO-LUMO gap:      5.48786261 eV.

  Total energy components:
  | Sum of eigenvalues            :         -89.23399330 Ha       -2428.18050207 eV
  | XC energy correction          :         -24.41450027 Ha        -664.35235426 eV
  | XC potential correction       :          31.36519605 Ha         853.49040960 eV
  | Free-atom electrostatic energy:         -68.00908328 Ha       -1850.62131476 eV
  | Hartree energy correction     :          -6.76597542 Ha        -184.11155857 eV
  | vdW energy correction         :           0.00000000 Ha           0.00000000 eV
  | Entropy correction            :           0.00000000 Ha           0.00000000 eV
  | ---------------------------
  | Total energy                  :        -157.05835622 Ha       -4273.77532005 eV
  | Total energy, T -> 0          :        -157.05835622 Ha       -4273.77532005 eV  <-- do not rely on this value for anything but (periodic) metals
  | Electronic free energy        :        -157.05835622 Ha       -4273.77532005 eV

  Derived energy quantities:
  | Kinetic energy                :         156.28636762 Ha        4252.76844150 eV
  | Electrostatic energy          :        -288.93022357 Ha       -7862.19140729 eV
  | Energy correction for multipole
  | error in Hartree potential    :           0.03243929 Ha           0.88271794 eV
  | Sum of eigenvalues per atom                           :        -202.34837517 eV
  | Total energy (T->0) per atom                          :        -356.14794334 eV  <-- do not rely on this value for anything but (periodic) metals
  | Electronic free energy per atom                       :        -356.14794334 eV

  Self-consistency convergence accuracy:
  | Change of charge density      :  0.1076E-02
  | Change of sum of eigenvalues  :  0.4603E+00 eV
  | Change of total energy        :  0.4144E-04 eV

  End self-consistency iteration #     9       :  max(cpu_time)    wall_clock(cpu1)
  | Time for this iteration                    :        0.612 s           0.616 s
  | Charge density update                      :        0.168 s           0.167 s
  | Density mixing                             :        0.016 s           0.017 s
  | Hartree multipole update                   :        0.012 s           0.010 s
  | Hartree multipole summation                :        0.200 s           0.198 s
  | Integration                                :        0.220 s           0.221 s
  | Solution of K.-S. eqns.                    :        0.004 s           0.002 s
  | Total energy evaluation                    :        0.000 s           0.001 s

  Partial memory accounting:
  | Current value for overall tracked memory usage on task 0  :           0.180 MB
  | Peak value for overall tracked memory usage on task 0     :           0.607 MB after allocating gradient_basis_wave
  | Largest tracked array allocation on task 0 so far         :           0.320 MB  when allocating gradient_basis_wave
  Note:  These values currently only include a subset of arrays which are explicitly tracked.
  The "true" memory usage will be greater.
------------------------------------------------------------

------------------------------------------------------------
          Begin self-consistency iteration #   10

  Date     :  20180215, Time     :  214520.824
------------------------------------------------------------
  Evaluating new KS density.
  Integration grid: deviation in total charge (<rho> - N_e) =   2.131628E-14
  Pulay mixing of updated and previous charge densities.

  Evaluating partitioned Hartree potential by multipole expansion.
  | Analytical far-field extrapolation by fixed multipoles:
  | Hartree multipole sum: apparent total charge =  -0.599383E-03
  Summing up the Hartree potential.
  Time summed over all CPUs for potential: real work        1.307 s, elapsed        1.379 s
  | RMS charge density error from multipole expansion :   0.232480E-01

  Integrating Hamiltonian matrix: batch-based integration.
  Time summed over all CPUs for integration: real work        1.322 s, elapsed        1.356 s

[...]
  |   Hirshfeld dipole moment :      0.08852747
  |   Hirshfeld second moments:      0.10523856       0.00708667      -0.00202996
  |                                  0.00708667       0.08964816      -0.00263894
  |                                 -0.00202996      -0.00263894       0.10979720
  ----------------------------------------------------------------------
  | Atom     8: H
  |   Hirshfeld charge        :      0.03733113
  |   Free atom volume        :      9.95071624
  |   Hirshfeld volume        :      6.40722306
  |   Hirshfeld dipole vector :     -0.02152073      -0.03940198       0.07930451
  |   Hirshfeld dipole moment :      0.09113102
  |   Hirshfeld second moments:      0.09691319       0.00116929       0.00421865
  |                                  0.00116929       0.09839391       0.00770101
  |                                  0.00421865       0.00770101       0.09329704
  ----------------------------------------------------------------------
  | Atom     9: H
  |   Hirshfeld charge        :      0.03733113
  |   Free atom volume        :      9.95071624
  |   Hirshfeld volume        :      6.40722306
  |   Hirshfeld dipole vector :      0.02152073       0.03940198       0.07930451
  |   Hirshfeld dipole moment :      0.09113102
  |   Hirshfeld second moments:      0.09691319       0.00116929      -0.00421865
  |                                  0.00116929       0.09839391      -0.00770101
  |                                 -0.00421865      -0.00770101       0.09329704
  ----------------------------------------------------------------------
  | Atom    10: H
  |   Hirshfeld charge        :      0.04038736
  |   Free atom volume        :      9.95071624
  |   Hirshfeld volume        :      6.39358413
  |   Hirshfeld dipole vector :     -0.01712778      -0.02970652      -0.07792675
  |   Hirshfeld dipole moment :      0.08513763
  |   Hirshfeld second moments:      0.10489839      -0.00926358      -0.00373047
  |                                 -0.00926358       0.09302671      -0.00653116
  |                                 -0.00373047      -0.00653116       0.08997910
  ----------------------------------------------------------------------
  | Atom    11: H
  |   Hirshfeld charge        :      0.04327379
  |   Free atom volume        :      9.95071624
  |   Hirshfeld volume        :      6.12933554
  |   Hirshfeld dipole vector :     -0.03469557       0.08144101       0.00083223
  |   Hirshfeld dipole moment :      0.08852747
  |   Hirshfeld second moments:      0.10523856       0.00708667       0.00202996
  |                                  0.00708667       0.08964816       0.00263894
  |                                  0.00202996       0.00263894       0.10979720
  ----------------------------------------------------------------------
  | Atom    12: H
  |   Hirshfeld charge        :      0.04324592
  |   Free atom volume        :      9.95071624
  |   Hirshfeld volume        :      6.13182887
  |   Hirshfeld dipole vector :      0.08744688       0.01374005      -0.00006914
  |   Hirshfeld dipole moment :      0.08851977
  |   Hirshfeld second moments:      0.08761090      -0.00388907       0.00136908
  |                                 -0.00388907       0.10716901       0.00318823
  |                                  0.00136908       0.00318823       0.10972401
  ----------------------------------------------------------------------


  Total energy components:
  | Sum of eigenvalues            :         -89.23395241 Ha       -2428.17938949 eV
  | XC energy correction          :         -24.41462125 Ha        -664.35564624 eV
  | XC potential correction       :          31.36534883 Ha         853.49456702 eV
  | Free-atom electrostatic energy:         -68.00908328 Ha       -1850.62131476 eV
  | Hartree energy correction     :          -6.76604885 Ha        -184.11355692 eV
  | vdW energy correction         :          -0.00229239 Ha          -0.06237905 eV
  | Entropy correction            :           0.00000000 Ha           0.00000000 eV
  | ---------------------------
  | Total energy                  :        -157.06064936 Ha       -4273.83771944 eV
  | Total energy, T -> 0          :        -157.06064936 Ha       -4273.83771944 eV  <-- do not rely on this value for anything but (periodic) metals
  | Electronic free energy        :        -157.06064936 Ha       -4273.83771944 eV

  Derived energy quantities:
  | Kinetic energy                :         156.28694434 Ha        4252.78413473 eV
  | Electrostatic energy          :        -288.93068006 Ha       -7862.20382888 eV
  | Energy correction for multipole
  | error in Hartree potential    :           0.03244860 Ha           0.88297146 eV
  | Sum of eigenvalues per atom                           :        -202.34828246 eV
  | Total energy (T->0) per atom                          :        -356.15314329 eV  <-- do not rely on this value for anything but (periodic) metals
  | Electronic free energy per atom                       :        -356.15314329 eV

  atomic forces [eV/Ang]:
  -----------------------
  atom #    1
   Hellmann-Feynman              :  0.178317E+00  0.330999E+00  0.383655E+00
   Ionic forces                  :  0.000000E+00  0.000000E+00  0.000000E+00
   Multipole                     : -0.285592E+00 -0.526866E+00 -0.631682E+00
   Pulay + GGA                   :  0.113461E+00  0.207936E+00  0.244682E+00
   Van der Waals                 : -0.670825E-02 -0.123889E-01  0.317135E-02
   ----------------------------------------------------------------
   Total forces(   1)            : -0.521681E-03 -0.319749E-03 -0.173555E-03
  atom #    2
   Hellmann-Feynman              :  0.855469E+00  0.155734E+01  0.124137E+00
   Ionic forces                  :  0.000000E+00  0.000000E+00  0.000000E+00
   Multipole                     :  0.150607E-02  0.705945E-02  0.374099E+00
   Pulay + GGA                   : -0.857680E+00 -0.156538E+01 -0.503976E+00
   Van der Waals                 :  0.412681E-03  0.722739E-03  0.518332E-02
   ----------------------------------------------------------------
   Total forces(   2)            : -0.291412E-03 -0.264841E-03 -0.556275E-03
  atom #    3
   Hellmann-Feynman              : -0.855469E+00 -0.155734E+01  0.124137E+00
   Ionic forces                  :  0.000000E+00  0.000000E+00  0.000000E+00
   Multipole                     : -0.150607E-02 -0.705945E-02  0.374099E+00
   Pulay + GGA                   :  0.857680E+00  0.156538E+01 -0.503976E+00
   Van der Waals                 : -0.412681E-03 -0.722739E-03  0.518332E-02
   ----------------------------------------------------------------
   Total forces(   3)            :  0.291412E-03  0.264841E-03 -0.556275E-03
  atom #    4
   Hellmann-Feynman              : -0.178317E+00 -0.330999E+00  0.383655E+00
   Ionic forces                  :  0.000000E+00  0.000000E+00  0.000000E+00
   Multipole                     :  0.285592E+00  0.526866E+00 -0.631682E+00
   Pulay + GGA                   : -0.113461E+00 -0.207936E+00  0.244682E+00
   Van der Waals                 :  0.670825E-02  0.123889E-01  0.317135E-02
   ----------------------------------------------------------------
   Total forces(   4)            :  0.521681E-03  0.319749E-03 -0.173555E-03
  atom #    5
   Hellmann-Feynman              :  0.444510E-01  0.862800E-01  0.404543E-01
   Ionic forces                  :  0.000000E+00  0.000000E+00  0.000000E+00
   Multipole                     : -0.388506E-02 -0.105766E-01 -0.133847E+00
   Pulay + GGA                   : -0.373998E-01 -0.677034E-01  0.976759E-01
   Van der Waals                 : -0.462301E-02 -0.861782E-02 -0.479821E-02
   ----------------------------------------------------------------
   Total forces(   5)            : -0.145695E-02 -0.617877E-03 -0.515022E-03
  atom #    6
   Hellmann-Feynman              : -0.131521E-01  0.337832E-02  0.424179E-01
   Ionic forces                  :  0.000000E+00  0.000000E+00  0.000000E+00
   Multipole                     : -0.927711E-01 -0.363053E-01 -0.388093E-01
   Pulay + GGA                   :  0.103903E+00  0.280465E-01  0.331117E-03
   Van der Waals                 :  0.150348E-02  0.398811E-02 -0.325578E-02
   ----------------------------------------------------------------
   Total forces(   6)            : -0.516696E-03 -0.892350E-03  0.683922E-03
  atom #    7
   Hellmann-Feynman              :  0.106140E-01 -0.841873E-02  0.428671E-01
   Ionic forces                  :  0.000000E+00  0.000000E+00  0.000000E+00
   Multipole                     :  0.182672E-01 -0.980023E-01 -0.387547E-01
   Pulay + GGA                   : -0.315956E-01  0.102819E+00 -0.952835E-03
   Van der Waals                 :  0.252303E-02  0.334968E-02 -0.327742E-02
   ----------------------------------------------------------------
   Total forces(   7)            : -0.191349E-03 -0.252862E-03 -0.117901E-03
  atom #    8
   Hellmann-Feynman              : -0.224286E-01 -0.399412E-01 -0.587094E-01
   Ionic forces                  :  0.000000E+00  0.000000E+00  0.000000E+00
   Multipole                     : -0.820024E-02 -0.154570E-01  0.149575E+00
   Pulay + GGA                   :  0.281860E-01  0.513356E-01 -0.943726E-01
   Van der Waals                 :  0.240904E-02  0.442450E-02  0.297673E-02
   ----------------------------------------------------------------
   Total forces(   8)            : -0.337661E-04  0.361921E-03 -0.530227E-03
  atom #    9
   Hellmann-Feynman              :  0.224286E-01  0.399412E-01 -0.587094E-01
   Ionic forces                  :  0.000000E+00  0.000000E+00  0.000000E+00
   Multipole                     :  0.820024E-02  0.154570E-01  0.149575E+00
   Pulay + GGA                   : -0.281860E-01 -0.513356E-01 -0.943726E-01
   Van der Waals                 : -0.240904E-02 -0.442450E-02  0.297673E-02
   ----------------------------------------------------------------
   Total forces(   9)            :  0.337661E-04 -0.361921E-03 -0.530227E-03
  atom #   10
   Hellmann-Feynman              : -0.444510E-01 -0.862800E-01  0.404543E-01
   Ionic forces                  :  0.000000E+00  0.000000E+00  0.000000E+00
   Multipole                     :  0.388506E-02  0.105766E-01 -0.133847E+00
   Pulay + GGA                   :  0.373998E-01  0.677034E-01  0.976759E-01
   Van der Waals                 :  0.462301E-02  0.861782E-02 -0.479821E-02
   ----------------------------------------------------------------
   Total forces(  10)            :  0.145695E-02  0.617877E-03 -0.515022E-03
  atom #   11
   Hellmann-Feynman              : -0.106140E-01  0.841873E-02  0.428671E-01
   Ionic forces                  :  0.000000E+00  0.000000E+00  0.000000E+00
   Multipole                     : -0.182672E-01  0.980023E-01 -0.387547E-01
   Pulay + GGA                   :  0.315956E-01 -0.102819E+00 -0.952835E-03
   Van der Waals                 : -0.252303E-02 -0.334968E-02 -0.327742E-02
   ----------------------------------------------------------------
   Total forces(  11)            :  0.191349E-03  0.252862E-03 -0.117901E-03
  atom #   12
   Hellmann-Feynman              :  0.131521E-01 -0.337832E-02  0.424179E-01
   Ionic forces                  :  0.000000E+00  0.000000E+00  0.000000E+00
   Multipole                     :  0.927711E-01  0.363053E-01 -0.388093E-01
   Pulay + GGA                   : -0.103903E+00 -0.280465E-01  0.331117E-03
   Van der Waals                 : -0.150348E-02 -0.398811E-02 -0.325578E-02
   ----------------------------------------------------------------
   Total forces(  12)            :  0.516696E-03  0.892350E-03  0.683922E-03

  Timings for VdW correction (Tkatchenko-Scheffler 2009 or later):
  | CPU time:        0.040 s, Wall clock time:        0.043 s.
  Removing unitary transformations (pure translations, rotations) from forces on atoms.
  Atomic forces before filtering:
  | Net force on center of mass :  -0.728257E-12  0.247194E-11 -0.241811E-02 eV/A
  | Net torque on center of mass:   0.612328E-11  0.439868E-11 -0.277205E-02 eV
  Atomic forces after filtering:
  | Net force on center of mass :   0.217781E-18  0.174225E-18  0.522674E-18 eV/A
  | Net torque on center of mass:   0.138294E-18 -0.110635E-17 -0.829762E-18 eV

  Energy and forces in a compact form:
  | Total energy uncorrected      :         -0.427383771944007E+04 eV
  | Total energy corrected        :         -0.427383771944007E+04 eV  <-- do not rely on this value for anything but (periodic) metals
  | Electronic free energy        :         -0.427383771944007E+04 eV
  Total atomic forces (unitary forces cleaned) [eV/Ang]:
  |   1         -0.408836058772007E-03         -0.381277032423719E-03          0.279547540191170E-04
  |   2         -0.243766743855975E-03         -0.290839725721133E-03         -0.354764998019061E-03
  |   3          0.243766743910252E-03          0.290839717176095E-03         -0.354764995685771E-03
  |   4          0.408836056599877E-03          0.381277035520721E-03          0.279547544058164E-04
  |   5         -0.138164422526936E-02         -0.658049496498444E-03         -0.313512924048584E-03
  |   6         -0.391774296717533E-03         -0.104210142160682E-02          0.885431853885993E-03
  |   7          0.269891493143035E-05         -0.277894594786729E-03          0.836087841113726E-04
  |   8          0.492061450151890E-04          0.316618675576891E-03         -0.328717469814568E-03
  |   9         -0.492061419818308E-04         -0.316618691396517E-03         -0.328717467299585E-03
  |  10          0.138164421871380E-02          0.658049457888093E-03         -0.313512931099769E-03
  |  11         -0.269895057661359E-05          0.277894632418142E-03          0.836087772229418E-04
  |  12          0.391774338002781E-03          0.104210144385342E-02          0.885431862322097E-03

  ------------------------------------ 
  Start decomposition of the XC Energy 
  ------------------------------------ 
  X and C from original XC functional choice 
  Hartree-Fock Energy :          0.000000000 Ha              0.000000000 eV
  X Energy            :        -23.397926674 Ha           -636.689979224 eV
  C Energy            :         -1.016694576 Ha            -27.665667015 eV
  Total XC Energy     :        -24.414621249 Ha           -664.355646239 eV
  ------------------------------------ 
  LDA X and C from self-consistent density 
  X Energy LDA        :        -21.151803476 Ha           -575.569857260 eV
  C Energy LDA        :         -1.974717278 Ha            -53.734791135 eV
  ------------------------------------ 
  End decomposition of the XC Energy 
  ------------------------------------ 

------------------------------------------------------------

------------------------------------------------------------------------------
  Final output of selected total energy values:

  The following output summarizes some interesting total energy values
  at the end of a run (AFTER all relaxation, molecular dynamics, etc.).

  | Total energy of the DFT / Hartree-Fock s.c.f. calculation      :          -4273.837719440 eV
  | Final zero-broadening corrected energy (caution - metals only) :          -4273.837719440 eV
  | For reference only, the value of 1 Hartree used in FHI-aims is :             27.211384500 eV

  Before relying on these values, please be sure to understand exactly which
  total energy value is referred to by a given number. Different objects may
  all carry the same name 'total energy'. Definitions:

  Total energy of the DFT / Hartree-Fock s.c.f. calculation:
  | Note that this energy does not include ANY quantities calculated after the
  | s.c.f. cycle, in particular not ANY RPA, MP2, etc. many-body perturbation terms.

  Final zero-broadening corrected energy:
  | For metallic systems only, a broadening of the occupation numbers at the Fermi
  | level can be extrapolated back to zero broadening by an electron-gas inspired
  | formula. For all systems that are not real metals, this value can be
  | meaningless and should be avoided.

------------------------------------------------------------------------------
  Methods described in the following list of references were used in this FHI-aims run.
  If you publish the results, please make sure to cite these reference if they apply.
  FHI-aims is an academic code, and for our developers (often, Ph.D. students
  and postdocs), scientific credit in the community is essential.
  Thank you for helping us!

  For any use of FHI-aims, please cite:

    Volker Blum, Ralf Gehrke, Felix Hanke, Paula Havu, Ville Havu,
    Xinguo Ren, Karsten Reuter, and Matthias Scheffler
    'Ab initio molecular simulations with numeric atom-centered orbitals'
    Computer Physics Communications 180, 2175-2196 (2009)
    http://dx.doi.org/10.1016/j.cpc.2009.06.022


  For the real-space grid partitioning and parallelization used in this calculation, please cite:

    Ville Havu, Volker Blum, Paula Havu, and Matthias Scheffler,
    'Efficient O(N) integration for all-electron electronic structure calculation'
    'using numerically tabulated basis functions'
    Journal of Computational Physics 228, 8367-8379 (2009).
    http://dx.doi.org/10.1016/j.jcp.2009.08.008

  Of course, there are many other important community references, e.g., those cited in the
  above references. Our list is limited to references that describe implementations in the
  FHI-aims code. The reason is purely practical (length of this list) - please credit others as well.

------------------------------------------------------------
          Leaving FHI-aims.
          Date     :  20180215, Time     :  214524.974

          Computational steps:
          | Number of self-consistency cycles          :           15
          | Number of SCF (re)initializations          :            1

          Detailed time accounting                     :  max(cpu_time)    wall_clock(cpu1)
          | Total time                                 :        9.956 s          10.000 s
          | Preparation time                           :        0.128 s           0.130 s
          | Boundary condition initalization           :        0.000 s           0.002 s
          | Grid partitioning                          :        0.072 s           0.071 s
          | Preloading free-atom quantities on grid    :        0.004 s           0.003 s
          | Free-atom superposition energy             :        0.024 s           0.022 s
          | Total time for integrations                :        3.064 s           3.049 s
          | Total time for solution of K.-S. equations :        0.072 s           0.049 s
          | Total time for density & force components  :        3.148 s           3.125 s
          | Total time for mixing                      :        0.180 s           0.156 s
          | Total time for Hartree multipole update    :        0.188 s           0.160 s
          | Total time for Hartree multipole sum       :        3.028 s           3.028 s
          | Total time for total energy evaluation     :        0.012 s           0.016 s
          | Total time for vdW correction              :        0.040 s           0.043 s

          Partial memory accounting:
          | Residual value for overall tracked memory usage across tasks :           0.000 MB (should be 0.000 MB)
          | Peak values for overall tracked memory usage (after allocating hessian_basis_wave):
          |   Minimum:        1.354 MB (on task 1)
          |   Maximum:        1.354 MB (on task 1)
          |   Average:        1.354 MB
          | Largest tracked array allocation (hessian_basis_wave):
          |   Minimum:        0.641 MB (on task 1)
          |   Maximum:        0.641 MB (on task 1)
          |   Average:        0.641 MB
          Note:  These values currently only include a subset of arrays which are explicitly tracked.
          The "true" memory usage will be greater.

          Have a nice day.
------------------------------------------------------------
