  MPI-parallelism will be employed.
------------------------------------------------------------
          Invoking FHI-aims ...
          Version 180101-
          Git rev. (modified): fa29f3a Merge branch master of fhiaims.rzberlin.mp[...]
          Compiled on 2018/01/19 at 14:47:46 on host theobook132.

          When using FHI-aims, please cite the following reference:

          Volker Blum, Ralf Gehrke, Felix Hanke, Paula Havu,
          Ville Havu, Xinguo Ren, Karsten Reuter, and Matthias Scheffler,
          'Ab Initio Molecular Simulations with Numeric Atom-Centered Orbitals',
          Computer Physics Communications 180, 2175-2196 (2009)

          For any questions about FHI-aims, please visit the aimsclub website
          with its forums and wiki. Contributions to both the forums and the
          wiki are warmly encouraged - they are for you, and everyone is welcome there.

------------------------------------------------------------



  Date     :  20180215, Time     :  214429.585
  Time zero on CPU 1             :   0.400000000000000E-01  s.
  Internal wall clock time zero  :           287963069.585  s.

  FHI-aims created a unique identifier for this run for later identification
  aims_uuid : 07F002A2-8B8A-4069-AC5F-3E2B46C931DE

  Using        8 parallel tasks.
  Task        0 on host theobook132 reporting.
  Task        1 on host theobook132 reporting.
  Task        2 on host theobook132 reporting.
  Task        3 on host theobook132 reporting.
  Task        4 on host theobook132 reporting.
  Task        5 on host theobook132 reporting.
  Task        6 on host theobook132 reporting.
  Task        7 on host theobook132 reporting.

  Performing system and environment tests:
  *** Environment variable OMP_NUM_THREADS is not set
  *** For performance reasons you might want to set it to 1
  | Stacksize not measured: no C compiler
  | Checking for scalapack...
  | No scalapack compiled in.

  Obtaining array dimensions for all initial allocations:
  
  -----------------------------------------------------------------------
  Parsing control.in (first pass over file, find array dimensions only).
  The contents of control.in will be repeated verbatim below
  unless switched off by setting 'verbatim_writeout .false.' .
  in the first line of control.in .
  -----------------------------------------------------------------------
  
  ################################################################################
  #
  #		Control.in generated by mkcontrol
  #
  ################################################################################
  xc			pbe
  vdw_correction_hirshfeld
  relativistic		none
  sc_accuracy_rho		1E-5
  sc_accuracy_eev		1E-3
  sc_accuracy_etot	1E-6
  sc_iter_limit		1000	
  
  compute_forces .true.
  final_forces_cleaned .true.
  
  ################################################################################
  #
  #  FHI-aims code project
  #  VB, Fritz-Haber Institut, 2009
  #
  #  Suggested "light" defaults for H atom (to be pasted into control.in file)
  #  Be sure to double-check any results obtained with these settings for post-processing,
  #  e.g., with the "tight" defaults and larger basis sets.
  #
  ################################################################################
    species        H
  #     global species definitions
      nucleus             1
      mass                1.00794
  #
      l_hartree           4
  #
      cut_pot             3.5  1.5  1.0
      basis_dep_cutoff    1e-4
  #
      radial_base         24 5.0
      radial_multiplier   1
      angular_grids       specified
        division   0.2421   50
        division   0.3822  110
        division   0.4799  194
        division   0.5341  302
  #      division   0.5626  434
  #      division   0.5922  590
  #      division   0.6542  770
  #      division   0.6868 1202
  #      outer_grid  770
        outer_grid  302
  ################################################################################
  #
  #  Definition of "minimal" basis
  #
  ################################################################################
  #     valence basis states
      valence      1  s   1.
  #     ion occupancy
      ion_occ      1  s   0.5
  ################################################################################
  #
  #  Suggested additional basis functions. For production calculations,
  #  uncomment them one after another (the most important basis functions are
  #  listed first).
  #
  #  Basis constructed for dimers: 0.5 A, 0.7 A, 1.0 A, 1.5 A, 2.5 A
  #
  ################################################################################
  #  "First tier" - improvements: -1014.90 meV to -62.69 meV
       hydro 2 s 2.1
       hydro 2 p 3.5
  #  "Second tier" - improvements: -12.89 meV to -1.83 meV
  #     hydro 1 s 0.85
  #     hydro 2 p 3.7
  #     hydro 2 s 1.2
  #     hydro 3 d 7
  #  "Third tier" - improvements: -0.25 meV to -0.12 meV
  #     hydro 4 f 11.2
  #     hydro 3 p 4.8
  #     hydro 4 d 9
  #     hydro 3 s 3.2
  
  ################################################################################
  #
  #  FHI-aims code project
  #  VB, Fritz-Haber Institut, 2009
  #
  #  Suggested "light" defaults for C atom (to be pasted into control.in file)
  #  Be sure to double-check any results obtained with these settings forpost-processing,
  #  e.g., with the "tight" defaults and larger basis sets.
  #
  ################################################################################
    species        C
  #     global species definitions
      nucleus             6
      mass                12.0107
  #
      l_hartree           4
  #
      cut_pot             3.5  1.5  1.0
      basis_dep_cutoff    1e-4
  #
      radial_base         34 5.0
      radial_multiplier   1
      angular_grids specified
        division   0.3326   50
        division   0.5710  110
        division   0.7727  194
        division   0.8772  302
  #      division   0.9334  434
  #      division   0.9625  590
  #      division   0.9924  770
  #      division   1.0230  974
  #      division   1.4589 1202
  #     outer_grid  974
       outer_grid 302
  ################################################################################
  #
  #  Definition of "minimal" basis
  #
  ################################################################################
  #     valence basis states
      valence      2  s   2.
      valence      2  p   2.
  #     ion occupancy
      ion_occ      2  s   1.
      ion_occ      2  p   1.
  ################################################################################
  #
  #  Suggested additional basis functions. For production calculations,
  #  uncomment them one after another (the most important basis functions are
  #  listed first).
  #
  #  Constructed for dimers: 1.0 A, 1.25 A, 1.5 A, 2.0 A, 3.0 A
  #
  ################################################################################
  #  "First tier" - improvements: -1214.57 meV to -155.61 meV
       hydro 2 p 1.7
       hydro 3 d 6
       hydro 2 s 4.9
  #  "Second tier" - improvements: -67.75 meV to -5.23 meV
  #     hydro 4 f 9.8
  #     hydro 3 p 5.2
  #     hydro 3 s 4.3
  #     hydro 5 g 14.4
  #     hydro 3 d 6.2
  #  "Third tier" - improvements: -2.43 meV to -0.60 meV
  #     hydro 2 p 5.6
  #     hydro 2 s 1.4
  #     hydro 3 d 4.9
  #     hydro 4 f 11.2
  #  "Fourth tier" - improvements: -0.39 meV to -0.18 meV
  #     hydro 2 p 2.1
  #     hydro 5 g 16.4
  #     hydro 4 d 13.2
  #     hydro 3 s 13.6
  #     hydro 4 f 17.6
  #  Further basis functions - improvements: -0.08 meV and below
  #     hydro 3 s 2
  #     hydro 3 p 6
  #     hydro 4 d 20
  
  -----------------------------------------------------------------------
  Completed first pass over input file control.in .
  -----------------------------------------------------------------------
  
  
  -----------------------------------------------------------------------
  Parsing geometry.in (first pass over file, find array dimensions only).
  The contents of geometry.in will be repeated verbatim below
  unless switched off by setting 'verbatim_writeout .false.' .
  in the first line of geometry.in .
  -----------------------------------------------------------------------
  
  #=======================================#
  # iterations/iteration0037/aims-chain-node-0.58985/geometry.in
  #=======================================#
  atom -1.4008598240548136 -0.8753429120378075 -0.4019411421929643 C
  atom -0.6140202406427103 -0.2741894611756130 0.7264979141973437 C
  atom 0.6140201982674324 0.2741895313420891 0.7264979193860531 C
  atom 1.4008598403798358 0.8753428839340823 -0.4019411513614349 C
  atom -0.8388214985176815 -0.9399364687234933 -1.3426635556963549 H
  atom -2.3738751220632972 -0.3959811638015769 -0.5977680240042199 H
  atom -1.6330110600912433 -1.9084609140862592 -0.0927632064876124 H
  atom -1.0838181388982204 -0.3899856607714167 1.7086380361140669 H
  atom 1.0838180560523532 0.3899857947218321 1.7086380526724081 H
  atom 0.8388214834121840 0.9399365404606661 -1.3426635395000639 H
  atom 1.6330112523866358 1.9084608441255702 -0.0927632122067865 H
  atom 2.3738750537695088 0.3959809860119231 -0.5977680909204434 H
  
  -----------------------------------------------------------------------
  Completed first pass over input file geometry.in .
  -----------------------------------------------------------------------
  

  Basic array size parameters:
  | Number of species                 :        2
  | Number of atoms                   :       12
  | Max. basis fn. angular momentum   :        2
  | Max. atomic/ionic basis occupied n:        2
  | Max. number of basis fn. types    :        2
  | Max. radial fns per species/type  :        3
  | Max. logarithmic grid size        :     1277
  | Max. radial integration grid size :       34
  | Max. angular integration grid size:      302
  | Max. angular grid division number :        8
  | Radial grid for Hartree potential :     1277
  | Number of spin channels           :        1

------------------------------------------------------------
          Reading file control.in.
------------------------------------------------------------
  XC: Using PBE gradient-corrected functionals.
  Non-relativistic treatment of kinetic energy.
  Convergence accuracy of self-consistent charge density:  0.1000E-04
  Convergence accuracy of sum of eigenvalues:  0.1000E-02
  Convergence accuracy of total energy:  0.1000E-05
  Maximum number of s.-c. iterations  :  1000
  Forces will be computed.
  Cleaning forces before final output.
 
  Reading configuration options for species H                   .
  | Found nuclear charge :   1.0000
  | Found atomic mass :    1.00794000000000      amu
  | Found l_max for Hartree potential  :   4
  | Found cutoff potl. onset [A], width [A], scale factor :    3.50000    1.50000    1.00000
  | Threshold for basis-dependent cutoff potential is   0.100000E-03
  | Found data for basic radial integration grid :    24 points, outermost radius =    5.000 A
  | Found multiplier for basic radial grid :   1
  | Found angular grid specification: user-specified.
  | Specified grid contains     5 separate shells.
  | Check grid settings after all constraints further below.
  | Found free-atom valence shell :  1 s   1.000
  | No ionic wave fns used. Skipping ion_occ.
  | Found hydrogenic basis function :  2 s   2.100
  | Found hydrogenic basis function :  2 p   3.500
  Species H                   : Missing cutoff potential type.
  Defaulting to exp(1/x)/(1-x)^2 type cutoff potential.
  Species H : No 'logarithmic' tag. Using default grid for free atom:
  | Default logarithmic grid data [bohr] : 0.1000E-03 0.1000E+03 0.1012E+01
  Species H : On-site basis accuracy parameter (for Gram-Schmidt orthonormalisation) not specified.
  Using default value basis_acc =  0.1000000E-03.
  Species H                   : Using default innermost maximum threshold i_radial=  2 for radial functions.
  Species H                   : Default cutoff onset for free atom density etc. : 0.35000000E+01 AA.
  Species H                   : Basic radial grid will be enhanced according to radial_multiplier =   1, to contain    24 grid points.
 
  Reading configuration options for species C                   .
  | Found nuclear charge :   6.0000
  | Found atomic mass :    12.0107000000000      amu
  | Found l_max for Hartree potential  :   4
  | Found cutoff potl. onset [A], width [A], scale factor :    3.50000    1.50000    1.00000
  | Threshold for basis-dependent cutoff potential is   0.100000E-03
  | Found data for basic radial integration grid :    34 points, outermost radius =    5.000 A
  | Found multiplier for basic radial grid :   1
  | Found angular grid specification: user-specified.
  | Specified grid contains     5 separate shells.
  | Check grid settings after all constraints further below.
  | Found free-atom valence shell :  2 s   2.000
  | Found free-atom valence shell :  2 p   2.000
  | No ionic wave fns used. Skipping ion_occ.
  | No ionic wave fns used. Skipping ion_occ.
  | Found hydrogenic basis function :  2 p   1.700
  | Found hydrogenic basis function :  3 d   6.000
  | Found hydrogenic basis function :  2 s   4.900
  Species C                   : Missing cutoff potential type.
  Defaulting to exp(1/x)/(1-x)^2 type cutoff potential.
  Species C : No 'logarithmic' tag. Using default grid for free atom:
  | Default logarithmic grid data [bohr] : 0.1000E-03 0.1000E+03 0.1012E+01
  Species C : On-site basis accuracy parameter (for Gram-Schmidt orthonormalisation) not specified.
  Using default value basis_acc =  0.1000000E-03.
  Species C                   : Using default innermost maximum threshold i_radial=  2 for radial functions.
  Species C                   : Default cutoff onset for free atom density etc. : 0.35000000E+01 AA.
  Species C                   : Basic radial grid will be enhanced according to radial_multiplier =   1, to contain    34 grid points.
 
  Finished reading input file 'control.in'. Consistency checks are next.
 
  MPI_IN_PLACE appears to work with this MPI implementation.
  | Keeping use_mpi_in_place .true. (see manual).
  Target number of points in a grid batch is not set. Defaulting to  100
  Method for grid partitioning is not set. Defaulting to parallel hash+maxmin partitioning.
  Batch size limit is not set. Defaulting to    200
  By default, will store active basis functions for each batch.
  If in need of memory, prune_basis_once .false. can be used to disable this option.
  communication_type for Hartree potential was not specified.
  Defaulting to calc_hartree .
  Defaulting to Pulay charge density mixer.
  Pulay mixer: Number of relevant iterations not set.
  Defaulting to    8 iterations.
  Pulay mixer: Number of initial linear mixing iterations not set.
  Defaulting to    0 iterations.
  Work space size for distributed Hartree potential not set.
  Defaulting to   0.200000E+03 MB.
  Mixing parameter for charge density mixing has not been set.
  Using default: charge_mix_param =     0.0500.
  The mixing parameter will be adjusted in iteration number     2 of the first full s.c.f. cycle only.
  Algorithm-dependent basis array size parameters:
  | n_max_pulay                         :        8
  Presetting        40 iterations before the initial mixing cycle
  is restarted anyway using the sc_init_iter criterion / keyword.
  Presetting a factor      1.000 between actual scf density residual
  and density convergence criterion sc_accuracy_rho below which sc_init_iter
  takes no effect.
  Geometry relaxation not requested: no relaxation will be performed.
  Force calculation: scf convergence accuracy of forces not set.
  Defaulting to 'sc_accuracy_forces not_checked'.
  Handling of forces: Unphysical translation and rotation will be removed from forces.
  No accuracy limit for integral partition fn. given. Defaulting to  0.1000E-14.
  No threshold value for u(r) in integrations given. Defaulting to  0.1000E-05.
  No occupation type (smearing scheme) given. Defaulting to Gaussian broadening, width =  0.1000E-01 eV.
  The width will be adjusted in iteration number     2 of the first full s.c.f. cycle only.
  S.C.F. convergence parameters will be adjusted in iteration number     2 of the first full s.c.f. cycle only.
  No accuracy for occupation numbers given. Defaulting to  0.1000E-12.
  No threshold value for occupation numbers given. Defaulting to  0.0000E+00.
  No accuracy for fermi level given. Defaulting to  0.1000E-19.
  Maximum # of iterations to find E_F not set. Defaulting to  200.
  Preferred method for the eigenvalue solver ('KS_method') not specified in 'control.in'.
  Calling BLACS routine to test compilation state
  The best choice would be 'elsi', but your version of FHI-aims is compiled without ScaLAPACK support.
  Defaulting to 'lapack_fast' instead (serial solution, time will not improve with more CPUs).
  Will not use alltoall communication since running on < 1024 CPUs.
  Threshold for basis singularities not set.
  Default threshold for basis singularities:  0.1000E-04
  partition_type (choice of integration weights) for integrals was not specified.
  | Using a version of the partition function of Stratmann and coworkers ('stratmann_smoother').
  | At each grid point, the set of atoms used to build the partition table is smoothly restricted to
  | only those atoms whose free-atom density would be non-zero at that grid point.
  Partitioning for Hartree potential was not defined. Using partition_type for integrals.
  | Adjusted default value of keyword multip_moments_threshold to:       0.10000000E-11
  | This value may affect high angular momentum components of the Hartree potential in periodic systems.
  Spin handling was not defined in control.in. Defaulting to unpolarized case.
  No q(lm)/r^(l+1) cutoff set for long-range Hartree potential.
  | Using default value of  0.100000E-09 .
  | Verify using the multipole_threshold keyword.
  Defaulting to new monopole extrapolation.
  Density update method: automatic selection selected.
------------------------------------------------------------


------------------------------------------------------------
          Reading geometry description geometry.in.
------------------------------------------------------------
  Input structure read successfully.
  The structure contains       12 atoms,  and a total of         32.000 electrons.

  Input geometry:
  | No unit cell requested.
  | Atomic structure:
  |       Atom                x [A]            y [A]            z [A]
  |    1: Species C            -1.40085982       -0.87534291       -0.40194114
  |    2: Species C            -0.61402024       -0.27418946        0.72649791
  |    3: Species C             0.61402020        0.27418953        0.72649792
  |    4: Species C             1.40085984        0.87534288       -0.40194115
  |    5: Species H            -0.83882150       -0.93993647       -1.34266356
  |    6: Species H            -2.37387512       -0.39598116       -0.59776802
  |    7: Species H            -1.63301106       -1.90846091       -0.09276321
  |    8: Species H            -1.08381814       -0.38998566        1.70863804
  |    9: Species H             1.08381806        0.38998579        1.70863805
  |   10: Species H             0.83882148        0.93993654       -1.34266354
  |   11: Species H             1.63301125        1.90846084       -0.09276321
  |   12: Species H             2.37387505        0.39598099       -0.59776809
  |

  | The smallest distance between any two atoms is         1.09485983 AA.
  |
  | The first atom of this pair is atom number                      3 .
  | The second atom of this pair is atom number                     9 .

  Number of empty states per atom not set in control.in - providing a guess from actual geometry.
  | Total number of empty states used during s.c.f. cycle:       24
  If you use a very high smearing, use empty_states (per atom!) in control.in to increase this value.

  Structure-dependent array size parameters: 
  | Maximum number of distinct radial functions  :        9
  | Maximum number of basis functions            :       96
  | Number of Kohn-Sham states (occupied + empty):       40
------------------------------------------------------------

------------------------------------------------------------
          Preparing all fixed parts of the calculation.
------------------------------------------------------------
  Determining machine precision:
    2.225073858507201E-308
  Setting up grids for atomic and cluster calculations.

  Creating wave function, potential, and density for free atoms.

  Species: H

  List of occupied orbitals and eigenvalues:
    n    l              occ      energy [Ha]    energy [eV]
    1    0           1.0000        -0.237589        -6.4651


  Species: C

  List of occupied orbitals and eigenvalues:
    n    l              occ      energy [Ha]    energy [eV]
    1    0           2.0000       -10.038835      -273.1706
    2    0           2.0000        -0.502696       -13.6791
    2    1           2.0000        -0.191971        -5.2238

  Creating fixed part of basis set: Ionic, confined, hydrogenic.
 
  H                    hydrogenic:
 
  List of hydrogenic basis orbitals: 
    n    l      effective z      eigenvalue [eV]  inner max. [A]     outer max. [A]     outer radius [A]   
    2    0         2.100000       -14.9728           0.193243           1.317208           4.583499
    2    1         3.500000       -41.6669           0.602369           0.602369           3.723403
 
 
  C                    hydrogenic:
 
  List of hydrogenic basis orbitals: 
    n    l      effective z      eigenvalue [eV]  inner max. [A]     outer max. [A]     outer radius [A]   
    2    1         1.700000        -9.7616           1.230570           1.230570           4.607917
    3    2         6.000000       -54.4224           0.792453           0.792453           3.883070
    2    0         4.900000       -81.6679           0.082559           0.562749           3.078220
 

  Adding cutoff potential to free-atom effective potential.
  Creating atomic-like basis functions for current effective potential.

  Species H                   :

  List of atomic basis orbitals and eigenvalues:
    n    l      energy [Ha]    energy [eV]    outer radius [A]
    1    0        -0.237589        -6.4651       4.527807


  Species C                   :

  List of atomic basis orbitals and eigenvalues:
    n    l      energy [Ha]    energy [eV]    outer radius [A]
    1    0       -10.038835      -273.1706       1.934409
    2    0        -0.502696       -13.6791       4.496620
    2    1        -0.191971        -5.2238       4.551928

  Assembling full basis from fixed parts.
  | Species H :   atomic orbital   1 s accepted.
  | Species H :    hydro orbital   2 s accepted.
  | Species H :    hydro orbital   2 p accepted.
  | Species C :   atomic orbital   1 s accepted.
  | Species C :    hydro orbital   2 s accepted.
  | Species C :   atomic orbital   2 s accepted.
  | Species C :   atomic orbital   2 p accepted.
  | Species C :    hydro orbital   2 p accepted.
  | Species C :    hydro orbital   3 d accepted.
 
  Basis size parameters after reduction:
  | Total number of radial functions:        9
  | Total number of basis functions :       96
 
  Per-task memory consumption for arrays in subroutine allocate_ext:
  |           2.209696MB.
  Testing on-site integration grid accuracy.
  |  Species  Function  <phi|h_atom|phi> (log., in eV)  <phi|h_atom|phi> (rad., in eV)
           1        1                 -6.4663192853                 -6.4651273558
           1        2                 13.7111246313                 13.7170609718
           1        3                 25.2673269279                 25.2674696378
           2        4               -273.1705927641               -273.1705631568
           2        5                -10.7109323383                -10.7107120029
           2        6                 17.4381822266                 17.4352413244
           2        7                 -5.2255326521                 -5.2270484734
           2        8                  8.6835629259                  8.6603288385
           2        9                 27.4952418996                 27.4953360207

  Preparing densities etc. for the partition functions (integrals / Hartree potential).

  Preparations completed.
  max(cpu_time)          :      0.124 s.
  Wall clock time (cpu1) :      0.158 s.
------------------------------------------------------------

------------------------------------------------------------
          Begin self-consistency loop: Initialization.

          Date     :  20180215, Time     :  214429.755
------------------------------------------------------------

  Initializing index lists of integration centers etc. from given atomic structure:
  | Number of centers in hartree potential         :        12
  | Number of centers in hartree multipole         :        12
  | Number of centers in electron density summation:        12
  | Number of centers in basis integrals           :        12
  | Number of centers in integrals                 :        12
  | Number of centers in hamiltonian               :        12
  Partitioning the integration grid into batches with parallel hashing+maxmin method.
  | Number of batches:      834
  | Maximal batch size:     141
  | Minimal batch size:      52
  | Average batch size:      73.074
  | Standard deviation of batch sizes:      22.820

  Integration load balanced across     8 MPI tasks.
  Work distribution over tasks is as follows:
  Task     0 has       7642 integration points.
  Task     1 has       7647 integration points.
  Task     2 has       7600 integration points.
  Task     3 has       7641 integration points.
  Task     4 has       7578 integration points.
  Task     5 has       7621 integration points.
  Task     6 has       7619 integration points.
  Task     7 has       7596 integration points.
  Initializing partition tables, free-atom densities, potentials, etc. across the integration grid (initialize_grid_storage).
  | initialize_grid_storage: Actual outermost partition radius vs. multipole_radius_free
  | (-- VB: in principle, multipole_radius_free should be larger, hence this output)
  | Species        1: Confinement radius =              4.999999999999999 AA, multipole_radius_free =              5.054417573612229 AA.
  | Species        1: outer_partition_radius set to              5.054417573612229 AA .
  | Species        2: Confinement radius =              4.999999999999999 AA, multipole_radius_free =              5.019602836301480 AA.
  | Species        2: outer_partition_radius set to              5.019602836301480 AA .
  | Original list of interatomic distances with          12 x         12 entries is created.
  | Net number of integration points:    60944
  | of which are non-zero points    :    52368
  Renormalizing the initial density to the exact electron count on the 3D integration grid.
  | Initial density: Formal number of electrons (from input files) :      32.0000000000
  | Integrated number of electrons on 3D grid     :      31.9998940505
  | Charge integration error                      :      -0.0001059495
  | Normalization factor for density and gradient :       1.0000033109
  Obtaining max. number of non-zero basis functions in each batch (get_n_compute_maxes).
  | Maximal number of non-zero basis functions:       96 in task     0
  | Maximal number of non-zero basis functions:       96 in task     1
  | Maximal number of non-zero basis functions:       96 in task     2
  | Maximal number of non-zero basis functions:       96 in task     3
  | Maximal number of non-zero basis functions:       96 in task     4
  | Maximal number of non-zero basis functions:       96 in task     5
  | Maximal number of non-zero basis functions:       96 in task     6
  | Maximal number of non-zero basis functions:       96 in task     7
  Selecting the method for density update.
  Loop over occupied states selected for charge density update.
  Allocating        0.031 MB for KS_eigenvector
  Integrating Hamiltonian matrix: batch-based integration.
  Time summed over all CPUs for integration: real work        1.411 s, elapsed        1.582 s
  Integrating overlap matrix.
  Time summed over all CPUs for integration: real work        0.505 s, elapsed        0.572 s

  Updating Kohn-Sham eigenvalues, eigenvectors, occupation numbers, and Fermi level.
  Solving generalized eigenproblem
  Updating Kohn-Sham eigenvalues and eigenfunctions.
  Transforming overlap matrix and checking for singularities.
  Overlap matrix is nonsingular:
  | Lowest eigenvalue:  0.332093E-02
  Solving real generalised eigenvalue problem by standard LAPACK (fast)

  Obtaining occupation numbers and chemical potential using ELSI.
  | Chemical potential (Fermi level):    -8.39615308eV
  Writing Kohn-Sham eigenvalues.

  State    Occupation    Eigenvalue [Ha]    Eigenvalue [eV]
      1       2.00000         -10.166392         -276.64160
      2       2.00000         -10.166392         -276.64160
      3       2.00000         -10.150940         -276.22113
      4       2.00000         -10.150311         -276.20402
      5       2.00000          -0.925076          -25.17259
      6       2.00000          -0.852567          -23.19954
      7       2.00000          -0.795554          -21.64813
      8       2.00000          -0.656730          -17.87052
      9       2.00000          -0.608942          -16.57016
     10       2.00000          -0.573799          -15.61387
     11       2.00000          -0.547954          -14.91059
     12       2.00000          -0.532586          -14.49241
     13       2.00000          -0.527665          -14.35850
     14       2.00000          -0.498760          -13.57196
     15       2.00000          -0.479629          -13.05136
     16       2.00000          -0.380916          -10.36526
     17       0.00000          -0.182487           -4.96572
     18       0.00000          -0.047808           -1.30093
     19       0.00000          -0.021874           -0.59521
     20       0.00000          -0.004892           -0.13311
     21       0.00000           0.002373            0.06456
     22       0.00000           0.013503            0.36743
     23       0.00000           0.023015            0.62627
     24       0.00000           0.030005            0.81649
     25       0.00000           0.038438            1.04595
     26       0.00000           0.043695            1.18899
     27       0.00000           0.127441            3.46784
     28       0.00000           0.172574            4.69597
     29       0.00000           0.183067            4.98149
     30       0.00000           0.209261            5.69429
     31       0.00000           0.238377            6.48657
     32       0.00000           0.258341            7.02981
     33       0.00000           0.278586            7.58070
     34       0.00000           0.295290            8.03525
     35       0.00000           0.316445            8.61089
     36       0.00000           0.318624            8.67020
     37       0.00000           0.405657           11.03848
     38       0.00000           0.437912           11.91619
     39       0.00000           0.516394           14.05179
     40       0.00000           0.526857           14.33651

  Highest occupied state (VBM) at    -10.36526419 eV
  | Occupation number:      2.00000000

  Lowest unoccupied state (CBM) at    -4.96572286 eV
  | Occupation number:      0.00000000

  Overall HOMO-LUMO gap:      5.39954133 eV.
  Calculating total energy contributions from superposition of free atom densities.

  Total energy components:
  | Sum of eigenvalues            :         -96.02842795 Ha       -2613.06647588 eV
  | XC energy correction          :         -23.65665196 Ha        -643.73025242 eV
  | XC potential correction       :          30.38878143 Ha         826.92081587 eV
  | Free-atom electrostatic energy:         -68.02313189 Ha       -1851.00359672 eV
  | Hartree energy correction     :           0.00000000 Ha           0.00000000 eV
  | vdW energy correction         :           0.00000000 Ha           0.00000000 eV
  | Entropy correction            :           0.00000000 Ha           0.00000000 eV
  | ---------------------------
  | Total energy                  :        -157.31943037 Ha       -4280.87950916 eV
  | Total energy, T -> 0          :        -157.31943037 Ha       -4280.87950916 eV  <-- do not rely on this value for anything but (periodic) metals
  | Electronic free energy        :        -157.31943037 Ha       -4280.87950916 eV

  Derived energy quantities:
  | Kinetic energy                :         154.19356302 Ha        4195.82033074 eV
  | Electrostatic energy          :        -287.85634143 Ha       -7832.96958748 eV
  | Energy correction for multipole
  | error in Hartree potential    :           0.00000000 Ha           0.00000000 eV
  | Sum of eigenvalues per atom                           :        -217.75553966 eV
  | Total energy (T->0) per atom                          :        -356.73995910 eV  <-- do not rely on this value for anything but (periodic) metals
  | Electronic free energy per atom                       :        -356.73995910 eV
  Initialize hartree_potential_storage
  Max. number of atoms included in rho_multipole:           12

  End scf initialization - timings             :  max(cpu_time)    wall_clock(cpu1)
  | Time for scf. initialization               :        0.496 s           0.495 s
  | Boundary condition initialization          :        0.000 s           0.000 s
  | Integration                                :        0.296 s           0.295 s
  | Solution of K.-S. eqns.                    :        0.012 s           0.012 s
  | Grid partitioning                          :        0.072 s           0.071 s
  | Preloading free-atom quantities on grid    :        0.004 s           0.003 s
  | Free-atom superposition energy             :        0.032 s           0.031 s
  | Total energy evaluation                    :        0.000 s           0.000 s

  Partial memory accounting:
  | Current value for overall tracked memory usage on task 0  :           0.179 MB
  | Peak value for overall tracked memory usage on task 0     :           0.506 MB after allocating wave
  | Largest tracked array allocation on task 0 so far         :           0.108 MB  when allocating H_times_psi
  Note:  These values currently only include a subset of arrays which are explicitly tracked.
  The "true" memory usage will be greater.
------------------------------------------------------------

------------------------------------------------------------
          Begin self-consistency iteration #    1

  Date     :  20180215, Time     :  214430.250
------------------------------------------------------------
  Evaluating new KS density.
  Integration grid: deviation in total charge (<rho> - N_e) =   1.421085E-14
  Pulay mixing of updated and previous charge densities.

  Evaluating partitioned Hartree potential by multipole expansion.
  | Analytical far-field extrapolation by fixed multipoles:
  | Hartree multipole sum: apparent total charge =  -0.137533E-03
  Summing up the Hartree potential.
  Time summed over all CPUs for potential: real work        1.248 s, elapsed        1.299 s
  | RMS charge density error from multipole expansion :   0.131013E-02

  Integrating Hamiltonian matrix: batch-based integration.
  Time summed over all CPUs for integration: real work        1.511 s, elapsed        1.800 s

  Updating Kohn-Sham eigenvalues, eigenvectors, occupation numbers, and Fermi level.
  Solving generalized eigenproblem
  Updating Kohn-Sham eigenvalues and eigenfunctions.
  Solving real generalised eigenvalue problem by standard LAPACK (fast)

  Obtaining occupation numbers and chemical potential using ELSI.
  | Chemical potential (Fermi level):    -8.03489842eV
  Writing Kohn-Sham eigenvalues.

  State    Occupation    Eigenvalue [Ha]    Eigenvalue [eV]
      1       2.00000         -10.131719         -275.69810
      2       2.00000         -10.131719         -275.69810
      3       2.00000         -10.121593         -275.42256
      4       2.00000         -10.120964         -275.40544
      5       2.00000          -0.904931          -24.62443
      6       2.00000          -0.833695          -22.68599
      7       2.00000          -0.776285          -21.12380
      8       2.00000          -0.639719          -17.40764
      9       2.00000          -0.591943          -16.10759
     10       2.00000          -0.553812          -15.06999
     11       2.00000          -0.531401          -14.46017
     12       2.00000          -0.516253          -14.04795
     13       2.00000          -0.510551          -13.89279
     14       2.00000          -0.482113          -13.11897
     15       2.00000          -0.462533          -12.58617
     16       2.00000          -0.363880           -9.90168
     17       0.00000          -0.165977           -4.51646
     18       0.00000          -0.038919           -1.05903
     19       0.00000          -0.013025           -0.35443
     20       0.00000           0.003841            0.10453
     21       0.00000           0.017842            0.48551
     22       0.00000           0.023088            0.62827
     23       0.00000           0.035184            0.95742
     24       0.00000           0.040556            1.10358
     25       0.00000           0.048706            1.32535
     26       0.00000           0.054600            1.48573
     27       0.00000           0.140281            3.81725
     28       0.00000           0.182946            4.97821
     29       0.00000           0.194921            5.30407
     30       0.00000           0.219773            5.98033
     31       0.00000           0.251469            6.84281
     32       0.00000           0.268322            7.30141
     33       0.00000           0.291393            7.92921
     34       0.00000           0.307560            8.36914
     35       0.00000           0.326967            8.89723
     36       0.00000           0.330771            9.00073
     37       0.00000           0.417445           11.35925
     38       0.00000           0.450026           12.24584
     39       0.00000           0.529815           14.41699
     40       0.00000           0.538320           14.64842

  Highest occupied state (VBM) at     -9.90168284 eV
  | Occupation number:      2.00000000

  Lowest unoccupied state (CBM) at    -4.51645665 eV
  | Occupation number:      0.00000000

  Overall HOMO-LUMO gap:      5.38522619 eV.

  Total energy components:
  | Sum of eigenvalues            :         -95.34622386 Ha       -2594.50275795 eV
  | XC energy correction          :         -23.71702840 Ha        -645.37317886 eV
  | XC potential correction       :          30.46703096 Ha         829.05009414 eV
  | Free-atom electrostatic energy:         -68.02313189 Ha       -1851.00359672 eV
  | Hartree energy correction     :          -0.65110948 Ha         -17.71759051 eV
  | vdW energy correction         :           0.00000000 Ha           0.00000000 eV
  | Entropy correction            :           0.00000000 Ha           0.00000000 eV
  | ---------------------------
  | Total energy                  :        -157.27046266 Ha       -4279.54702990 eV
  | Total energy, T -> 0          :        -157.27046266 Ha       -4279.54702990 eV  <-- do not rely on this value for anything but (periodic) metals
  | Electronic free energy        :        -157.27046266 Ha       -4279.54702990 eV

  Derived energy quantities:
  | Kinetic energy                :         154.52027571 Ha        4204.71063526 eV
  | Electrostatic energy          :        -288.07370997 Ha       -7838.88448630 eV
  | Energy correction for multipole
  | error in Hartree potential    :           0.00223440 Ha           0.06080115 eV
  | Sum of eigenvalues per atom                           :        -216.20856316 eV
  | Total energy (T->0) per atom                          :        -356.62891916 eV  <-- do not rely on this value for anything but (periodic) metals
  | Electronic free energy per atom                       :        -356.62891916 eV

  Self-consistency convergence accuracy:
  | Change of charge density      :  0.4873E+00
  | Change of sum of eigenvalues  :  0.1856E+02 eV
  | Change of total energy        :  0.1332E+01 eV

  End self-consistency iteration #     1       :  max(cpu_time)    wall_clock(cpu1)
  | Time for this iteration                    :        0.612 s           0.621 s
  | Charge density update                      :        0.180 s           0.179 s
  | Density mixing                             :        0.004 s           0.002 s
  | Hartree multipole update                   :        0.012 s           0.010 s
  | Hartree multipole summation                :        0.176 s           0.174 s
  | Integration                                :        0.240 s           0.243 s
  | Solution of K.-S. eqns.                    :        0.004 s           0.002 s
  | Total energy evaluation                    :        0.000 s           0.001 s

  Partial memory accounting:
  | Current value for overall tracked memory usage on task 0  :           0.179 MB
  | Peak value for overall tracked memory usage on task 0     :           0.612 MB after allocating gradient_basis_wave
  | Largest tracked array allocation on task 0 so far         :           0.325 MB  when allocating gradient_basis_wave
  Note:  These values currently only include a subset of arrays which are explicitly tracked.
  The "true" memory usage will be greater.
------------------------------------------------------------

------------------------------------------------------------
          Begin self-consistency iteration #    2

  Date     :  20180215, Time     :  214430.871
------------------------------------------------------------
  Evaluating new KS density.
  Integration grid: deviation in total charge (<rho> - N_e) =  -1.776357E-14
  Pulay mixing of updated and previous charge densities.

  Evaluating partitioned Hartree potential by multipole expansion.
  | Analytical far-field extrapolation by fixed multipoles:
  | Hartree multipole sum: apparent total charge =  -0.413418E-03
  Summing up the Hartree potential.
  Time summed over all CPUs for potential: real work        1.371 s, elapsed        1.903 s
  | RMS charge density error from multipole expansion :   0.128500E-01

  Integrating Hamiltonian matrix: batch-based integration.
  Time summed over all CPUs for integration: real work        1.427 s, elapsed        1.805 s

  Updating Kohn-Sham eigenvalues, eigenvectors, occupation numbers, and Fermi level.
  Solving generalized eigenproblem
  Updating Kohn-Sham eigenvalues and eigenfunctions.
  Solving real generalised eigenvalue problem by standard LAPACK (fast)

  Obtaining occupation numbers and chemical potential using ELSI.
  | Chemical potential (Fermi level):    -4.72939970eV
  Highest occupied state (VBM) at     -6.09317057 eV
  | Occupation number:      2.00000000

  Lowest unoccupied state (CBM) at    -0.86016480 eV
  | Occupation number:      0.00000000

  Overall HOMO-LUMO gap:      5.23300578 eV.

  Checking to see if s.c.f. parameters should be adjusted.
  The system likely has a gap. Increased the default Pulay mixing parameter (charge_mix_param). Value:   0.200000 .
  Kept the default occupation width. Value:   0.010000 eV.

  Total energy components:
  | Sum of eigenvalues            :         -89.66706654 Ha       -2439.96502468 eV
  | XC energy correction          :         -24.27126045 Ha        -660.45460045 eV
  | XC potential correction       :          31.18499048 Ha         848.58676653 eV
  | Free-atom electrostatic energy:         -68.02313189 Ha       -1851.00359672 eV
  | Hartree energy correction     :          -6.29316782 Ha        -171.24580917 eV
  | vdW energy correction         :           0.00000000 Ha           0.00000000 eV
  | Entropy correction            :           0.00000000 Ha           0.00000000 eV
  | ---------------------------
  | Total energy                  :        -157.06963622 Ha       -4274.08226450 eV
  | Total energy, T -> 0          :        -157.06963622 Ha       -4274.08226450 eV  <-- do not rely on this value for anything but (periodic) metals
  | Electronic free energy        :        -157.06963622 Ha       -4274.08226450 eV

  Derived energy quantities:
  | Kinetic energy                :         156.92407605 Ha        4270.12137065 eV
  | Electrostatic energy          :        -289.72245182 Ha       -7883.74903470 eV
  | Energy correction for multipole
  | error in Hartree potential    :           0.02111140 Ha           0.57447055 eV
  | Sum of eigenvalues per atom                           :        -203.33041872 eV
  | Total energy (T->0) per atom                          :        -356.17352204 eV  <-- do not rely on this value for anything but (periodic) metals
  | Electronic free energy per atom                       :        -356.17352204 eV

  Self-consistency convergence accuracy:
  | Change of charge density      :  0.4483E+00
  | Change of sum of eigenvalues  :  0.1545E+03 eV
  | Change of total energy        :  0.5465E+01 eV

  End self-consistency iteration #     2       :  max(cpu_time)    wall_clock(cpu1)
  | Time for this iteration                    :        0.752 s           0.755 s
  | Charge density update                      :        0.232 s           0.222 s
  | Density mixing                             :        0.004 s           0.003 s
  | Hartree multipole update                   :        0.024 s           0.021 s
  | Hartree multipole summation                :        0.264 s           0.264 s
  | Integration                                :        0.236 s           0.241 s
  | Solution of K.-S. eqns.                    :        0.004 s           0.002 s
  | Total energy evaluation                    :        0.000 s           0.001 s

  Partial memory accounting:
  | Current value for overall tracked memory usage on task 0  :           0.180 MB
  | Peak value for overall tracked memory usage on task 0     :           0.612 MB after allocating gradient_basis_wave
  | Largest tracked array allocation on task 0 so far         :           0.325 MB  when allocating gradient_basis_wave
  Note:  These values currently only include a subset of arrays which are explicitly tracked.
  The "true" memory usage will be greater.
------------------------------------------------------------

------------------------------------------------------------
          Begin self-consistency iteration #    3

  Date     :  20180215, Time     :  214431.627
------------------------------------------------------------
  Evaluating new KS density.
  Integration grid: deviation in total charge (<rho> - N_e) =   7.105427E-15
  Pulay mixing of updated and previous charge densities.

  Evaluating partitioned Hartree potential by multipole expansion.
  | Analytical far-field extrapolation by fixed multipoles:
  | Hartree multipole sum: apparent total charge =  -0.405634E-03
  Summing up the Hartree potential.
  Time summed over all CPUs for potential: real work        1.245 s, elapsed        1.288 s
  | RMS charge density error from multipole expansion :   0.159888E-01

  Integrating Hamiltonian matrix: batch-based integration.
  Time summed over all CPUs for integration: real work        1.289 s, elapsed        1.323 s

  Updating Kohn-Sham eigenvalues, eigenvectors, occupation numbers, and Fermi level.
  Solving generalized eigenproblem
  Updating Kohn-Sham eigenvalues and eigenfunctions.
  Solving real generalised eigenvalue problem by standard LAPACK (fast)

  Obtaining occupation numbers and chemical potential using ELSI.
  | Chemical potential (Fermi level):    -5.18749443eV
  Highest occupied state (VBM) at     -6.73040615 eV
  | Occupation number:      2.00000000

  Lowest unoccupied state (CBM) at    -1.48193032 eV
  | Occupation number:      0.00000000

  Overall HOMO-LUMO gap:      5.24847583 eV.

  Total energy components:
  | Sum of eigenvalues            :         -90.61504253 Ha       -2465.76076382 eV
  | XC energy correction          :         -24.22844608 Ha        -659.28956202 eV
  | XC potential correction       :          31.12591966 Ha         846.97936774 eV
  | Free-atom electrostatic energy:         -68.02313189 Ha       -1851.00359672 eV
  | Hartree energy correction     :          -5.32322507 Ha        -144.85232412 eV
  | vdW energy correction         :           0.00000000 Ha           0.00000000 eV
  | Entropy correction            :           0.00000000 Ha           0.00000000 eV
  | ---------------------------
  | Total energy                  :        -157.06392591 Ha       -4273.92687894 eV
  | Total energy, T -> 0          :        -157.06392591 Ha       -4273.92687894 eV  <-- do not rely on this value for anything but (periodic) metals
  | Electronic free energy        :        -157.06392591 Ha       -4273.92687894 eV

  Derived energy quantities:
  | Kinetic energy                :         156.27128525 Ha        4252.35802935 eV
  | Electrostatic energy          :        -289.10676508 Ha       -7866.99534628 eV
  | Energy correction for multipole
  | error in Hartree potential    :           0.02540443 Ha           0.69128985 eV
  | Sum of eigenvalues per atom                           :        -205.48006365 eV
  | Total energy (T->0) per atom                          :        -356.16057325 eV  <-- do not rely on this value for anything but (periodic) metals
  | Electronic free energy per atom                       :        -356.16057325 eV

  Self-consistency convergence accuracy:
  | Change of charge density      :  0.2102E+00
  | Change of sum of eigenvalues  : -0.2580E+02 eV
  | Change of total energy        :  0.1554E+00 eV

  End self-consistency iteration #     3       :  max(cpu_time)    wall_clock(cpu1)
  | Time for this iteration                    :        0.568 s           0.568 s
  | Charge density update                      :        0.200 s           0.201 s
  | Density mixing                             :        0.004 s           0.004 s
  | Hartree multipole update                   :        0.012 s           0.010 s
  | Hartree multipole summation                :        0.176 s           0.172 s
  | Integration                                :        0.180 s           0.177 s
  | Solution of K.-S. eqns.                    :        0.004 s           0.003 s
  | Total energy evaluation                    :        0.000 s           0.001 s

  Partial memory accounting:
  | Current value for overall tracked memory usage on task 0  :           0.180 MB
  | Peak value for overall tracked memory usage on task 0     :           0.613 MB after allocating gradient_basis_wave
  | Largest tracked array allocation on task 0 so far         :           0.325 MB  when allocating gradient_basis_wave
  Note:  These values currently only include a subset of arrays which are explicitly tracked.
  The "true" memory usage will be greater.
------------------------------------------------------------

------------------------------------------------------------
          Begin self-consistency iteration #    4

  Date     :  20180215, Time     :  214432.196
------------------------------------------------------------
  Evaluating new KS density.
  Integration grid: deviation in total charge (<rho> - N_e) =   7.105427E-15
  Pulay mixing of updated and previous charge densities.

  Evaluating partitioned Hartree potential by multipole expansion.
  | Analytical far-field extrapolation by fixed multipoles:
  | Hartree multipole sum: apparent total charge =  -0.485554E-03
  Summing up the Hartree potential.
  Time summed over all CPUs for potential: real work        1.314 s, elapsed        1.449 s
  | RMS charge density error from multipole expansion :   0.216030E-01

  Integrating Hamiltonian matrix: batch-based integration.
  Time summed over all CPUs for integration: real work        1.362 s, elapsed        1.450 s

  Updating Kohn-Sham eigenvalues, eigenvectors, occupation numbers, and Fermi level.
  Solving generalized eigenproblem
  Updating Kohn-Sham eigenvalues and eigenfunctions.
  Solving real generalised eigenvalue problem by standard LAPACK (fast)

  Obtaining occupation numbers and chemical potential using ELSI.
  | Chemical potential (Fermi level):    -4.52711674eV
  Highest occupied state (VBM) at     -6.07581606 eV
  | Occupation number:      2.00000000

  Lowest unoccupied state (CBM) at    -0.86425038 eV
  | Occupation number:      0.00000000

  Overall HOMO-LUMO gap:      5.21156568 eV.

  Total energy components:
  | Sum of eigenvalues            :         -89.70335804 Ha       -2440.95256665 eV
  | XC energy correction          :         -24.36669369 Ha        -663.05147098 eV
  | XC potential correction       :          31.30273020 Ha         851.79062744 eV
  | Free-atom electrostatic energy:         -68.02313189 Ha       -1851.00359672 eV
  | Hartree energy correction     :          -6.26289597 Ha        -170.42207044 eV
  | vdW energy correction         :           0.00000000 Ha           0.00000000 eV
  | Entropy correction            :           0.00000000 Ha           0.00000000 eV
  | ---------------------------
  | Total energy                  :        -157.05334939 Ha       -4273.63907735 eV
  | Total energy, T -> 0          :        -157.05334939 Ha       -4273.63907735 eV  <-- do not rely on this value for anything but (periodic) metals
  | Electronic free energy        :        -157.05334939 Ha       -4273.63907735 eV

  Derived energy quantities:
  | Kinetic energy                :         156.34491622 Ha        4254.36162999 eV
  | Electrostatic energy          :        -289.03157193 Ha       -7864.94923636 eV
  | Energy correction for multipole
  | error in Hartree potential    :           0.03273802 Ha           0.89084679 eV
  | Sum of eigenvalues per atom                           :        -203.41271389 eV
  | Total energy (T->0) per atom                          :        -356.13658978 eV  <-- do not rely on this value for anything but (periodic) metals
  | Electronic free energy per atom                       :        -356.13658978 eV

  Self-consistency convergence accuracy:
  | Change of charge density      :  0.1268E+00
  | Change of sum of eigenvalues  :  0.2481E+02 eV
  | Change of total energy        :  0.2878E+00 eV

  End self-consistency iteration #     4       :  max(cpu_time)    wall_clock(cpu1)
  | Time for this iteration                    :        0.580 s           0.584 s
  | Charge density update                      :        0.172 s           0.169 s
  | Density mixing                             :        0.008 s           0.006 s
  | Hartree multipole update                   :        0.016 s           0.012 s
  | Hartree multipole summation                :        0.192 s           0.195 s
  | Integration                                :        0.196 s           0.197 s
  | Solution of K.-S. eqns.                    :        0.004 s           0.002 s
  | Total energy evaluation                    :        0.000 s           0.001 s

  Partial memory accounting:
  | Current value for overall tracked memory usage on task 0  :           0.180 MB
  | Peak value for overall tracked memory usage on task 0     :           0.613 MB after allocating gradient_basis_wave
  | Largest tracked array allocation on task 0 so far         :           0.325 MB  when allocating gradient_basis_wave
  Note:  These values currently only include a subset of arrays which are explicitly tracked.
  The "true" memory usage will be greater.
------------------------------------------------------------

------------------------------------------------------------
          Begin self-consistency iteration #    5

  Date     :  20180215, Time     :  214432.781
------------------------------------------------------------
  Evaluating new KS density.
  Integration grid: deviation in total charge (<rho> - N_e) =   2.131628E-14
  Pulay mixing of updated and previous charge densities.

  Evaluating partitioned Hartree potential by multipole expansion.
  | Analytical far-field extrapolation by fixed multipoles:
  | Hartree multipole sum: apparent total charge =  -0.516122E-03
  Summing up the Hartree potential.
  Time summed over all CPUs for potential: real work        1.392 s, elapsed        1.903 s
  | RMS charge density error from multipole expansion :   0.223233E-01

  Integrating Hamiltonian matrix: batch-based integration.
  Time summed over all CPUs for integration: real work        1.480 s, elapsed        1.837 s

  Updating Kohn-Sham eigenvalues, eigenvectors, occupation numbers, and Fermi level.
  Solving generalized eigenproblem
  Updating Kohn-Sham eigenvalues and eigenfunctions.
  Solving real generalised eigenvalue problem by standard LAPACK (fast)

  Obtaining occupation numbers and chemical potential using ELSI.
  | Chemical potential (Fermi level):    -4.31634600eV
  Highest occupied state (VBM) at     -5.81304251 eV
  | Occupation number:      2.00000000

  Lowest unoccupied state (CBM) at    -0.60358598 eV
  | Occupation number:      0.00000000

  Overall HOMO-LUMO gap:      5.20945654 eV.

  Total energy components:
  | Sum of eigenvalues            :         -89.42896805 Ha       -2433.48603512 eV
  | XC energy correction          :         -24.39028369 Ha        -663.69338742 eV
  | XC potential correction       :          31.33335255 Ha         852.62390382 eV
  | Free-atom electrostatic energy:         -68.02313189 Ha       -1851.00359672 eV
  | Hartree energy correction     :          -6.54298151 Ha        -178.04358556 eV
  | vdW energy correction         :           0.00000000 Ha           0.00000000 eV
  | Entropy correction            :           0.00000000 Ha           0.00000000 eV
  | ---------------------------
  | Total energy                  :        -157.05201259 Ha       -4273.60270100 eV
  | Total energy, T -> 0          :        -157.05201259 Ha       -4273.60270100 eV  <-- do not rely on this value for anything but (periodic) metals
  | Electronic free energy        :        -157.05201259 Ha       -4273.60270100 eV

  Derived energy quantities:
  | Kinetic energy                :         156.31690609 Ha        4253.59943547 eV
  | Electrostatic energy          :        -288.97863499 Ha       -7863.50874904 eV
  | Energy correction for multipole
  | error in Hartree potential    :           0.03227649 Ha           0.87828786 eV
  | Sum of eigenvalues per atom                           :        -202.79050293 eV
  | Total energy (T->0) per atom                          :        -356.13355842 eV  <-- do not rely on this value for anything but (periodic) metals
  | Electronic free energy per atom                       :        -356.13355842 eV

  Self-consistency convergence accuracy:
  | Change of charge density      :  0.3364E-01
  | Change of sum of eigenvalues  :  0.7467E+01 eV
  | Change of total energy        :  0.3638E-01 eV

  End self-consistency iteration #     5       :  max(cpu_time)    wall_clock(cpu1)
  | Time for this iteration                    :        0.792 s           0.819 s
  | Charge density update                      :        0.208 s           0.231 s
  | Density mixing                             :        0.032 s           0.015 s
  | Hartree multipole update                   :        0.064 s           0.062 s
  | Hartree multipole summation                :        0.256 s           0.256 s
  | Integration                                :        0.248 s           0.252 s
  | Solution of K.-S. eqns.                    :        0.004 s           0.002 s
  | Total energy evaluation                    :        0.000 s           0.001 s

  Partial memory accounting:
  | Current value for overall tracked memory usage on task 0  :           0.180 MB
  | Peak value for overall tracked memory usage on task 0     :           0.613 MB after allocating gradient_basis_wave
  | Largest tracked array allocation on task 0 so far         :           0.325 MB  when allocating gradient_basis_wave
  Note:  These values currently only include a subset of arrays which are explicitly tracked.
  The "true" memory usage will be greater.
------------------------------------------------------------

------------------------------------------------------------
          Begin self-consistency iteration #    6

  Date     :  20180215, Time     :  214433.601
------------------------------------------------------------
  Evaluating new KS density.
  Integration grid: deviation in total charge (<rho> - N_e) =  -7.105427E-15
  Pulay mixing of updated and previous charge densities.

  Evaluating partitioned Hartree potential by multipole expansion.
  | Analytical far-field extrapolation by fixed multipoles:
  | Hartree multipole sum: apparent total charge =  -0.534305E-03
  Summing up the Hartree potential.
  Time summed over all CPUs for potential: real work        1.289 s, elapsed        1.377 s
  | RMS charge density error from multipole expansion :   0.225998E-01

  Integrating Hamiltonian matrix: batch-based integration.
  Time summed over all CPUs for integration: real work        1.482 s, elapsed        1.862 s

  Updating Kohn-Sham eigenvalues, eigenvectors, occupation numbers, and Fermi level.
  Solving generalized eigenproblem
  Updating Kohn-Sham eigenvalues and eigenfunctions.
  Solving real generalised eigenvalue problem by standard LAPACK (fast)

  Obtaining occupation numbers and chemical potential using ELSI.
  | Chemical potential (Fermi level):    -4.23899739eV
  Highest occupied state (VBM) at     -5.73953867 eV
  | Occupation number:      2.00000000

  Lowest unoccupied state (CBM) at    -0.53032279 eV
  | Occupation number:      0.00000000

  Overall HOMO-LUMO gap:      5.20921587 eV.

  Total energy components:
  | Sum of eigenvalues            :         -89.34229691 Ha       -2431.12759324 eV
  | XC energy correction          :         -24.39972840 Ha        -663.95039109 eV
  | XC potential correction       :          31.34560404 Ha         852.95728391 eV
  | Free-atom electrostatic energy:         -68.02313189 Ha       -1851.00359672 eV
  | Hartree energy correction     :          -6.63224983 Ha        -180.47270025 eV
  | vdW energy correction         :           0.00000000 Ha           0.00000000 eV
  | Entropy correction            :           0.00000000 Ha           0.00000000 eV
  | ---------------------------
  | Total energy                  :        -157.05180298 Ha       -4273.59699738 eV
  | Total energy, T -> 0          :        -157.05180298 Ha       -4273.59699738 eV  <-- do not rely on this value for anything but (periodic) metals
  | Electronic free energy        :        -157.05180298 Ha       -4273.59699738 eV

  Derived energy quantities:
  | Kinetic energy                :         156.27365149 Ha        4252.42241794 eV
  | Electrostatic energy          :        -288.92572608 Ha       -7862.06902424 eV
  | Energy correction for multipole
  | error in Hartree potential    :           0.03153062 Ha           0.85799194 eV
  | Sum of eigenvalues per atom                           :        -202.59396610 eV
  | Total energy (T->0) per atom                          :        -356.13308312 eV  <-- do not rely on this value for anything but (periodic) metals
  | Electronic free energy per atom                       :        -356.13308312 eV

  Self-consistency convergence accuracy:
  | Change of charge density      :  0.1517E-01
  | Change of sum of eigenvalues  :  0.2358E+01 eV
  | Change of total energy        :  0.5704E-02 eV

  End self-consistency iteration #     6       :  max(cpu_time)    wall_clock(cpu1)
  | Time for this iteration                    :        0.724 s           0.739 s
  | Charge density update                      :        0.200 s           0.198 s
  | Density mixing                             :        0.012 s           0.029 s
  | Hartree multipole update                   :        0.072 s           0.073 s
  | Hartree multipole summation                :        0.180 s           0.184 s
  | Integration                                :        0.248 s           0.249 s
  | Solution of K.-S. eqns.                    :        0.004 s           0.005 s
  | Total energy evaluation                    :        0.000 s           0.001 s

  Partial memory accounting:
  | Current value for overall tracked memory usage on task 0  :           0.180 MB
  | Peak value for overall tracked memory usage on task 0     :           0.613 MB after allocating gradient_basis_wave
  | Largest tracked array allocation on task 0 so far         :           0.325 MB  when allocating gradient_basis_wave
  Note:  These values currently only include a subset of arrays which are explicitly tracked.
  The "true" memory usage will be greater.
------------------------------------------------------------

------------------------------------------------------------
          Begin self-consistency iteration #    7

  Date     :  20180215, Time     :  214434.341
------------------------------------------------------------
  Evaluating new KS density.
  Integration grid: deviation in total charge (<rho> - N_e) =   2.842171E-14
  Pulay mixing of updated and previous charge densities.

  Evaluating partitioned Hartree potential by multipole expansion.
  | Analytical far-field extrapolation by fixed multipoles:
  | Hartree multipole sum: apparent total charge =  -0.537935E-03
  Summing up the Hartree potential.
  Time summed over all CPUs for potential: real work        1.899 s, elapsed        2.485 s
  | RMS charge density error from multipole expansion :   0.225831E-01

  Integrating Hamiltonian matrix: batch-based integration.
  Time summed over all CPUs for integration: real work        1.621 s, elapsed        2.258 s => Consider using load balancing!

  Updating Kohn-Sham eigenvalues, eigenvectors, occupation numbers, and Fermi level.
  Solving generalized eigenproblem
  Updating Kohn-Sham eigenvalues and eigenfunctions.
  Solving real generalised eigenvalue problem by standard LAPACK (fast)

  Obtaining occupation numbers and chemical potential using ELSI.
  | Chemical potential (Fermi level):    -4.21898659eV
  Highest occupied state (VBM) at     -5.71431308 eV
  | Occupation number:      2.00000000

  Lowest unoccupied state (CBM) at    -0.50539912 eV
  | Occupation number:      0.00000000

  Overall HOMO-LUMO gap:      5.20891396 eV.

  Total energy components:
  | Sum of eigenvalues            :         -89.31565344 Ha       -2430.40258754 eV
  | XC energy correction          :         -24.40139498 Ha        -663.99574117 eV
  | XC potential correction       :          31.34782466 Ha         853.01771009 eV
  | Free-atom electrostatic energy:         -68.02313189 Ha       -1851.00359672 eV
  | Hartree energy correction     :          -6.65940588 Ha        -181.21165388 eV
  | vdW energy correction         :           0.00000000 Ha           0.00000000 eV
  | Entropy correction            :           0.00000000 Ha           0.00000000 eV
  | ---------------------------
  | Total energy                  :        -157.05176152 Ha       -4273.59586922 eV
  | Total energy, T -> 0          :        -157.05176152 Ha       -4273.59586922 eV  <-- do not rely on this value for anything but (periodic) metals
  | Electronic free energy        :        -157.05176152 Ha       -4273.59586922 eV

  Derived energy quantities:
  | Kinetic energy                :         156.27288340 Ha        4252.40151718 eV
  | Electrostatic energy          :        -288.92324994 Ha       -7862.00164523 eV
  | Energy correction for multipole
  | error in Hartree potential    :           0.03128247 Ha           0.85123940 eV
  | Sum of eigenvalues per atom                           :        -202.53354896 eV
  | Total energy (T->0) per atom                          :        -356.13298910 eV  <-- do not rely on this value for anything but (periodic) metals
  | Electronic free energy per atom                       :        -356.13298910 eV

  Self-consistency convergence accuracy:
  | Change of charge density      :  0.6879E-02
  | Change of sum of eigenvalues  :  0.7250E+00 eV
  | Change of total energy        :  0.1128E-02 eV

  End self-consistency iteration #     7       :  max(cpu_time)    wall_clock(cpu1)
  | Time for this iteration                    :        0.936 s           1.066 s
  | Charge density update                      :        0.308 s           0.339 s
  | Density mixing                             :        0.020 s           0.036 s
  | Hartree multipole update                   :        0.044 s           0.041 s
  | Hartree multipole summation                :        0.332 s           0.335 s
  | Integration                                :        0.308 s           0.313 s
  | Solution of K.-S. eqns.                    :        0.004 s           0.001 s
  | Total energy evaluation                    :        0.000 s           0.001 s

  Partial memory accounting:
  | Current value for overall tracked memory usage on task 0  :           0.180 MB
  | Peak value for overall tracked memory usage on task 0     :           0.613 MB after allocating gradient_basis_wave
  | Largest tracked array allocation on task 0 so far         :           0.325 MB  when allocating gradient_basis_wave
  Note:  These values currently only include a subset of arrays which are explicitly tracked.
  The "true" memory usage will be greater.
------------------------------------------------------------

------------------------------------------------------------
          Begin self-consistency iteration #    8

  Date     :  20180215, Time     :  214435.416
------------------------------------------------------------
  Evaluating new KS density.
  Integration grid: deviation in total charge (<rho> - N_e) =   0.000000E+00
  Pulay mixing of updated and previous charge densities.

  Evaluating partitioned Hartree potential by multipole expansion.
  | Analytical far-field extrapolation by fixed multipoles:
  | Hartree multipole sum: apparent total charge =  -0.547860E-03
  Summing up the Hartree potential.
  Time summed over all CPUs for potential: real work        1.607 s, elapsed        2.444 s
  | RMS charge density error from multipole expansion :   0.226333E-01

  Integrating Hamiltonian matrix: batch-based integration.
  Time summed over all CPUs for integration: real work        1.856 s, elapsed        2.969 s => Consider using load balancing!

  Updating Kohn-Sham eigenvalues, eigenvectors, occupation numbers, and Fermi level.
  Solving generalized eigenproblem
  Updating Kohn-Sham eigenvalues and eigenfunctions.
  Solving real generalised eigenvalue problem by standard LAPACK (fast)

  Obtaining occupation numbers and chemical potential using ELSI.
  | Chemical potential (Fermi level):    -4.16501364eV
  Highest occupied state (VBM) at     -5.64680382 eV
  | Occupation number:      2.00000000

  Lowest unoccupied state (CBM) at    -0.44034796 eV
  | Occupation number:      0.00000000

  Overall HOMO-LUMO gap:      5.20645586 eV.

  Total energy components:
  | Sum of eigenvalues            :         -89.24487552 Ha       -2428.47662240 eV
  | XC energy correction          :         -24.40792742 Ha        -664.17349776 eV
  | XC potential correction       :          31.35637943 Ha         853.25049707 eV
  | Free-atom electrostatic energy:         -68.02313189 Ha       -1851.00359672 eV
  | Hartree energy correction     :          -6.73215521 Ha        -183.19126399 eV
  | vdW energy correction         :           0.00000000 Ha           0.00000000 eV
  | Entropy correction            :           0.00000000 Ha           0.00000000 eV
  | ---------------------------
  | Total energy                  :        -157.05171061 Ha       -4273.59448380 eV
  | Total energy, T -> 0          :        -157.05171061 Ha       -4273.59448380 eV  <-- do not rely on this value for anything but (periodic) metals
  | Electronic free energy        :        -157.05171061 Ha       -4273.59448380 eV

  Derived energy quantities:
  | Kinetic energy                :         156.27339091 Ha        4252.41532723 eV
  | Electrostatic energy          :        -288.91717411 Ha       -7861.83631328 eV
  | Energy correction for multipole
  | error in Hartree potential    :           0.03083595 Ha           0.83908889 eV
  | Sum of eigenvalues per atom                           :        -202.37305187 eV
  | Total energy (T->0) per atom                          :        -356.13287365 eV  <-- do not rely on this value for anything but (periodic) metals
  | Electronic free energy per atom                       :        -356.13287365 eV

  Self-consistency convergence accuracy:
  | Change of charge density      :  0.5388E-02
  | Change of sum of eigenvalues  :  0.1926E+01 eV
  | Change of total energy        :  0.1385E-02 eV

  End self-consistency iteration #     8       :  max(cpu_time)    wall_clock(cpu1)
  | Time for this iteration                    :        0.948 s           1.133 s
  | Charge density update                      :        0.312 s           0.319 s
  | Density mixing                             :        0.020 s           0.028 s
  | Hartree multipole update                   :        0.028 s           0.030 s
  | Hartree multipole summation                :        0.308 s           0.334 s
  | Integration                                :        0.392 s           0.403 s
  | Solution of K.-S. eqns.                    :        0.004 s           0.003 s
  | Total energy evaluation                    :        0.000 s           0.003 s

  Partial memory accounting:
  | Current value for overall tracked memory usage on task 0  :           0.180 MB
  | Peak value for overall tracked memory usage on task 0     :           0.613 MB after allocating gradient_basis_wave
  | Largest tracked array allocation on task 0 so far         :           0.325 MB  when allocating gradient_basis_wave
  Note:  These values currently only include a subset of arrays which are explicitly tracked.
  The "true" memory usage will be greater.
------------------------------------------------------------

------------------------------------------------------------
          Begin self-consistency iteration #    9

  Date     :  20180215, Time     :  214436.550
------------------------------------------------------------
  Evaluating new KS density.
  Integration grid: deviation in total charge (<rho> - N_e) =   2.131628E-14
  Pulay mixing of updated and previous charge densities.

  Evaluating partitioned Hartree potential by multipole expansion.
  | Analytical far-field extrapolation by fixed multipoles:
  | Hartree multipole sum: apparent total charge =  -0.550034E-03
  Summing up the Hartree potential.
  Time summed over all CPUs for potential: real work        1.497 s, elapsed        2.452 s
  | RMS charge density error from multipole expansion :   0.226448E-01

  Integrating Hamiltonian matrix: batch-based integration.
  Time summed over all CPUs for integration: real work        1.666 s, elapsed        2.150 s

  Updating Kohn-Sham eigenvalues, eigenvectors, occupation numbers, and Fermi level.
  Solving generalized eigenproblem
  Updating Kohn-Sham eigenvalues and eigenfunctions.
  Solving real generalised eigenvalue problem by standard LAPACK (fast)

  Obtaining occupation numbers and chemical potential using ELSI.
  | Chemical potential (Fermi level):    -4.15266801eV
  Highest occupied state (VBM) at     -5.63281251 eV
  | Occupation number:      2.00000000

  Lowest unoccupied state (CBM) at    -0.42705828 eV
  | Occupation number:      0.00000000

  Overall HOMO-LUMO gap:      5.20575423 eV.

  Total energy components:
  | Sum of eigenvalues            :         -89.22841845 Ha       -2428.02880286 eV
  | XC energy correction          :         -24.40967049 Ha        -664.22092927 eV
  | XC potential correction       :          31.35865170 Ha         853.31232877 eV
  | Free-atom electrostatic energy:         -68.02313189 Ha       -1851.00359672 eV
  | Hartree energy correction     :          -6.74914008 Ha        -183.65344581 eV
  | vdW energy correction         :           0.00000000 Ha           0.00000000 eV
  | Entropy correction            :           0.00000000 Ha           0.00000000 eV
  | ---------------------------
  | Total energy                  :        -157.05170922 Ha       -4273.59444589 eV
  | Total energy, T -> 0          :        -157.05170922 Ha       -4273.59444589 eV  <-- do not rely on this value for anything but (periodic) metals
  | Electronic free energy        :        -157.05170922 Ha       -4273.59444589 eV

  Derived energy quantities:
  | Kinetic energy                :         156.27626465 Ha        4252.49352550 eV
  | Electrostatic energy          :        -288.91830337 Ha       -7861.86704212 eV
  | Energy correction for multipole
  | error in Hartree potential    :           0.03076521 Ha           0.83716384 eV
  | Sum of eigenvalues per atom                           :        -202.33573357 eV
  | Total energy (T->0) per atom                          :        -356.13287049 eV  <-- do not rely on this value for anything but (periodic) metals
  | Electronic free energy per atom                       :        -356.13287049 eV

  Self-consistency convergence accuracy:
  | Change of charge density      :  0.1061E-02
  | Change of sum of eigenvalues  :  0.4478E+00 eV
  | Change of total energy        :  0.3791E-04 eV

  End self-consistency iteration #     9       :  max(cpu_time)    wall_clock(cpu1)
  | Time for this iteration                    :        0.864 s           1.029 s
  | Charge density update                      :        0.320 s           0.325 s
  | Density mixing                             :        0.020 s           0.031 s
  | Hartree multipole update                   :        0.028 s           0.026 s
  | Hartree multipole summation                :        0.328 s           0.335 s
  | Integration                                :        0.288 s           0.306 s
  | Solution of K.-S. eqns.                    :        0.004 s           0.002 s
  | Total energy evaluation                    :        0.000 s           0.004 s

  Partial memory accounting:
  | Current value for overall tracked memory usage on task 0  :           0.180 MB
  | Peak value for overall tracked memory usage on task 0     :           0.613 MB after allocating gradient_basis_wave
  | Largest tracked array allocation on task 0 so far         :           0.325 MB  when allocating gradient_basis_wave
  Note:  These values currently only include a subset of arrays which are explicitly tracked.
  The "true" memory usage will be greater.
------------------------------------------------------------

------------------------------------------------------------
          Begin self-consistency iteration #   10

  Date     :  20180215, Time     :  214437.579
------------------------------------------------------------
  Evaluating new KS density.
  Integration grid: deviation in total charge (<rho> - N_e) =   1.421085E-14
  Pulay mixing of updated and previous charge densities.

  Evaluating partitioned Hartree potential by multipole expansion.
  | Analytical far-field extrapolation by fixed multipoles:
  | Hartree multipole sum: apparent total charge =  -0.549976E-03
  Summing up the Hartree potential.
  Time summed over all CPUs for potential: real work        1.496 s, elapsed        2.102 s
  | RMS charge density error from multipole expansion :   0.226461E-01

  Integrating Hamiltonian matrix: batch-based integration.
[...]
  |   Hirshfeld dipole moment :      0.08919504
  |   Hirshfeld second moments:      0.10574467      -0.00641351      -0.00292596
  |                                 -0.00641351       0.08931570       0.00369088
  |                                 -0.00292596       0.00369088       0.10764076
  ----------------------------------------------------------------------
  | Atom     8: H
  |   Hirshfeld charge        :      0.03547104
  |   Free atom volume        :      9.95071624
  |   Hirshfeld volume        :      6.43026029
  |   Hirshfeld dipole vector :     -0.04292969      -0.00961248       0.07941487
  |   Hirshfeld dipole moment :      0.09078590
  |   Hirshfeld second moments:      0.09874927       0.00005906       0.00807600
  |                                  0.00005906       0.09545691       0.00248769
  |                                  0.00807600       0.00248769       0.09219932
  ----------------------------------------------------------------------
  | Atom     9: H
  |   Hirshfeld charge        :      0.03547104
  |   Free atom volume        :      9.95071624
  |   Hirshfeld volume        :      6.43026030
  |   Hirshfeld dipole vector :      0.04292968       0.00961249       0.07941487
  |   Hirshfeld dipole moment :      0.09078590
  |   Hirshfeld second moments:      0.09874927       0.00005906      -0.00807600
  |                                  0.00005906       0.09545690      -0.00248769
  |                                 -0.00807600      -0.00248769       0.09219932
  ----------------------------------------------------------------------
  | Atom    10: H
  |   Hirshfeld charge        :      0.04168880
  |   Free atom volume        :      9.95071624
  |   Hirshfeld volume        :      6.30740313
  |   Hirshfeld dipole vector :     -0.04134102       0.00897231      -0.07676884
  |   Hirshfeld dipole moment :      0.08765294
  |   Hirshfeld second moments:      0.09774376      -0.00408762      -0.00744274
  |                                 -0.00408762       0.10626415       0.00110607
  |                                 -0.00744274       0.00110607       0.09054619
  ----------------------------------------------------------------------
  | Atom    11: H
  |   Hirshfeld charge        :      0.04436412
  |   Free atom volume        :      9.95071624
  |   Hirshfeld volume        :      6.16569215
  |   Hirshfeld dipole vector :      0.02086104       0.08319640       0.02447309
  |   Hirshfeld dipole moment :      0.08919504
  |   Hirshfeld second moments:      0.10574467      -0.00641351       0.00292596
  |                                 -0.00641351       0.08931570      -0.00369088
  |                                  0.00292596      -0.00369088       0.10764076
  ----------------------------------------------------------------------
  | Atom    12: H
  |   Hirshfeld charge        :      0.04258152
  |   Free atom volume        :      9.95071624
  |   Hirshfeld volume        :      6.10758869
  |   Hirshfeld dipole vector :      0.07886502      -0.03552104      -0.01641491
  |   Hirshfeld dipole moment :      0.08803911
  |   Hirshfeld second moments:      0.09168735       0.00768953       0.00586726
  |                                  0.00768953       0.10413203      -0.00097279
  |                                  0.00586726      -0.00097279       0.10973946
  ----------------------------------------------------------------------


  Total energy components:
  | Sum of eigenvalues            :         -89.22823699 Ha       -2428.02386494 eV
  | XC energy correction          :         -24.40980205 Ha        -664.22450912 eV
  | XC potential correction       :          31.35881845 Ha         853.31686629 eV
  | Free-atom electrostatic energy:         -68.02313189 Ha       -1851.00359672 eV
  | Hartree energy correction     :          -6.74935740 Ha        -183.65935932 eV
  | vdW energy correction         :          -0.00242390 Ha          -0.06595756 eV
  | Entropy correction            :           0.00000000 Ha           0.00000000 eV
  | ---------------------------
  | Total energy                  :        -157.05413377 Ha       -4273.66042138 eV
  | Total energy, T -> 0          :        -157.05413377 Ha       -4273.66042138 eV  <-- do not rely on this value for anything but (periodic) metals
  | Electronic free energy        :        -157.05413377 Ha       -4273.66042138 eV

  Derived energy quantities:
  | Kinetic energy                :         156.27687099 Ha        4252.51002504 eV
  | Electrostatic energy          :        -288.91877882 Ha       -7861.87997973 eV
  | Energy correction for multipole
  | error in Hartree potential    :           0.03077372 Ha           0.83739543 eV
  | Sum of eigenvalues per atom                           :        -202.33532208 eV
  | Total energy (T->0) per atom                          :        -356.13836845 eV  <-- do not rely on this value for anything but (periodic) metals
  | Electronic free energy per atom                       :        -356.13836845 eV

  atomic forces [eV/Ang]:
  -----------------------
  atom #    1
   Hellmann-Feynman              :  0.231046E+00  0.748981E-01  0.247487E+00
   Ionic forces                  :  0.000000E+00  0.000000E+00  0.000000E+00
   Multipole                     : -0.423676E+00 -0.331191E+00 -0.496972E+00
   Pulay + GGA                   :  0.225501E+00  0.273261E+00  0.244922E+00
   Van der Waals                 : -0.486576E-02 -0.398601E-02  0.144934E-02
   ----------------------------------------------------------------
   Total forces(   1)            :  0.280051E-01  0.129827E-01 -0.311351E-02
  atom #    2
   Hellmann-Feynman              :  0.159143E+01  0.517129E+00  0.292678E+00
   Ionic forces                  :  0.000000E+00  0.000000E+00  0.000000E+00
   Multipole                     :  0.446458E-01  0.259560E-01  0.361785E+00
   Pulay + GGA                   : -0.159630E+01 -0.640477E+00 -0.606697E+00
   Van der Waals                 :  0.769270E-03 -0.854599E-03  0.548859E-02
   ----------------------------------------------------------------
   Total forces(   2)            :  0.405383E-01 -0.982465E-01  0.532543E-01
  atom #    3
   Hellmann-Feynman              : -0.159143E+01 -0.517129E+00  0.292678E+00
   Ionic forces                  :  0.000000E+00  0.000000E+00  0.000000E+00
   Multipole                     : -0.446458E-01 -0.259559E-01  0.361785E+00
   Pulay + GGA                   :  0.159630E+01  0.640477E+00 -0.606697E+00
   Van der Waals                 : -0.769270E-03  0.854600E-03  0.548859E-02
   ----------------------------------------------------------------
   Total forces(   3)            : -0.405382E-01  0.982465E-01  0.532543E-01
  atom #    4
   Hellmann-Feynman              : -0.231046E+00 -0.748980E-01  0.247487E+00
   Ionic forces                  :  0.000000E+00  0.000000E+00  0.000000E+00
   Multipole                     :  0.423676E+00  0.331191E+00 -0.496972E+00
   Pulay + GGA                   : -0.225501E+00 -0.273261E+00  0.244922E+00
   Van der Waals                 :  0.486576E-02  0.398601E-02  0.144934E-02
   ----------------------------------------------------------------
   Total forces(   4)            : -0.280051E-01 -0.129827E-01 -0.311350E-02
  atom #    5
   Hellmann-Feynman              :  0.565893E-01  0.180351E+00  0.224097E-02
   Ionic forces                  :  0.000000E+00  0.000000E+00  0.000000E+00
   Multipole                     :  0.146619E-01 -0.500454E-01 -0.125557E+00
   Pulay + GGA                   : -0.540009E-01 -0.365276E-02  0.994282E-01
   Van der Waals                 : -0.738868E-02 -0.728499E-02 -0.357992E-02
   ----------------------------------------------------------------
   Total forces(   5)            :  0.986162E-02  0.119368E+00 -0.274675E-01
  atom #    6
   Hellmann-Feynman              :  0.676396E-01  0.135012E+00  0.836174E-01
   Ionic forces                  :  0.000000E+00  0.000000E+00  0.000000E+00
   Multipole                     : -0.105714E+00  0.188373E-01 -0.552291E-01
   Pulay + GGA                   :  0.984085E-01 -0.354008E-01  0.205828E-01
   Van der Waals                 :  0.442905E-02  0.238119E-02 -0.179827E-02
   ----------------------------------------------------------------
   Total forces(   6)            :  0.647634E-01  0.120830E+00  0.471728E-01
  atom #    7
   Hellmann-Feynman              : -0.597049E-01 -0.157347E-01 -0.965913E-01
   Ionic forces                  :  0.000000E+00  0.000000E+00  0.000000E+00
   Multipole                     : -0.315059E-01 -0.958013E-01 -0.167823E-01
   Pulay + GGA                   :  0.360228E-01  0.941304E-01 -0.266209E-01
   Van der Waals                 :  0.277892E-02  0.148893E-03 -0.268394E-02
   ----------------------------------------------------------------
   Total forces(   7)            : -0.524090E-01 -0.172567E-01 -0.142678E+00
  atom #    8
   Hellmann-Feynman              :  0.655846E-01 -0.312655E+00  0.102489E-01
   Ionic forces                  :  0.000000E+00  0.000000E+00  0.000000E+00
   Multipole                     : -0.219129E-01  0.250273E-02  0.154871E+00
   Pulay + GGA                   :  0.541443E-01  0.250733E-01 -0.943075E-01
   Van der Waals                 :  0.396464E-02  0.362962E-02  0.112421E-02
   ----------------------------------------------------------------
   Total forces(   8)            :  0.101781E+00 -0.281449E+00  0.719365E-01
  atom #    9
   Hellmann-Feynman              : -0.655846E-01  0.312655E+00  0.102489E-01
   Ionic forces                  :  0.000000E+00  0.000000E+00  0.000000E+00
   Multipole                     :  0.219128E-01 -0.250272E-02  0.154871E+00
   Pulay + GGA                   : -0.541443E-01 -0.250733E-01 -0.943075E-01
   Van der Waals                 : -0.396464E-02 -0.362962E-02  0.112420E-02
   ----------------------------------------------------------------
   Total forces(   9)            : -0.101781E+00  0.281449E+00  0.719365E-01
  atom #   10
   Hellmann-Feynman              : -0.565893E-01 -0.180351E+00  0.224095E-02
   Ionic forces                  :  0.000000E+00  0.000000E+00  0.000000E+00
   Multipole                     : -0.146619E-01  0.500454E-01 -0.125557E+00
   Pulay + GGA                   :  0.540009E-01  0.365275E-02  0.994282E-01
   Van der Waals                 :  0.738868E-02  0.728499E-02 -0.357992E-02
   ----------------------------------------------------------------
   Total forces(  10)            : -0.986162E-02 -0.119368E+00 -0.274675E-01
  atom #   11
   Hellmann-Feynman              :  0.597049E-01  0.157347E-01 -0.965913E-01
   Ionic forces                  :  0.000000E+00  0.000000E+00  0.000000E+00
   Multipole                     :  0.315059E-01  0.958013E-01 -0.167823E-01
   Pulay + GGA                   : -0.360228E-01 -0.941304E-01 -0.266209E-01
   Van der Waals                 : -0.277892E-02 -0.148894E-03 -0.268394E-02
   ----------------------------------------------------------------
   Total forces(  11)            :  0.524090E-01  0.172567E-01 -0.142678E+00
  atom #   12
   Hellmann-Feynman              : -0.676396E-01 -0.135012E+00  0.836174E-01
   Ionic forces                  :  0.000000E+00  0.000000E+00  0.000000E+00
   Multipole                     :  0.105714E+00 -0.188374E-01 -0.552291E-01
   Pulay + GGA                   : -0.984085E-01  0.354009E-01  0.205828E-01
   Van der Waals                 : -0.442906E-02 -0.238119E-02 -0.179827E-02
   ----------------------------------------------------------------
   Total forces(  12)            : -0.647634E-01 -0.120830E+00  0.471729E-01

  Timings for VdW correction (Tkatchenko-Scheffler 2009 or later):
  | CPU time:        0.040 s, Wall clock time:        0.042 s.
  Removing unitary transformations (pure translations, rotations) from forces on atoms.
  Atomic forces before filtering:
  | Net force on center of mass :   0.154353E-08  0.319217E-08 -0.179160E-02 eV/A
  | Net torque on center of mass:   0.340710E-08 -0.437745E-08 -0.277730E-02 eV
  Atomic forces after filtering:
  | Net force on center of mass :   0.111504E-16  0.223008E-16  0.557519E-17 eV/A
  | Net torque on center of mass:  -0.354032E-16  0.259623E-15 -0.206518E-16 eV

  Energy and forces in a compact form:
  | Total energy uncorrected      :         -0.427366042137600E+04 eV
  | Total energy corrected        :         -0.427366042137600E+04 eV  <-- do not rely on this value for anything but (periodic) metals
  | Electronic free energy        :         -0.427366042137600E+04 eV
  Total atomic forces (unitary forces cleaned) [eV/Ang]:
  |   1          0.280718814046382E-01          0.128758377946283E-01         -0.296420894523751E-02
  |   2          0.405591785975935E-01         -0.982933689781569E-01          0.534036471805244E-01
  |   3         -0.405591651813920E-01          0.982933654951524E-01          0.534036421471029E-01
  |   4         -0.280718767282108E-01         -0.128758370631447E-01         -0.296420265937842E-02
  |   5          0.993334937412458E-02          0.119304020205673E+00         -0.273181683357800E-01
  |   6          0.647936449345007E-01          0.120648676555196E+00          0.473221250202194E-01
  |   7         -0.522633547141057E-01         -0.173813451016453E-01         -0.142529195617985E+00
  |   8          0.101810465207916E+00         -0.281532103745796E+00          0.720857956674766E-01
  |   9         -0.101810459649812E+00          0.281532113534548E+00          0.720857757445140E-01
  |  10         -0.993334923401937E-02         -0.119304023258478E+00         -0.273181798954342E-01
  |  11          0.522633391161551E-01          0.173813345389290E-01         -0.142529187781671E+00
  |  12         -0.647936531273873E-01         -0.120648669976905E+00          0.473221574756492E-01

  ------------------------------------ 
  Start decomposition of the XC Energy 
  ------------------------------------ 
  X and C from original XC functional choice 
  Hartree-Fock Energy :          0.000000000 Ha              0.000000000 eV
  X Energy            :        -23.393894104 Ha           -636.580247408 eV
  C Energy            :         -1.015907945 Ha            -27.644261715 eV
  Total XC Energy     :        -24.409802049 Ha           -664.224509123 eV
  ------------------------------------ 
  LDA X and C from self-consistent density 
  X Energy LDA        :        -21.146720737 Ha           -575.431548876 eV
  C Energy LDA        :         -1.974312848 Ha            -53.723786026 eV
  ------------------------------------ 
  End decomposition of the XC Energy 
  ------------------------------------ 

------------------------------------------------------------

------------------------------------------------------------------------------
  Final output of selected total energy values:

  The following output summarizes some interesting total energy values
  at the end of a run (AFTER all relaxation, molecular dynamics, etc.).

  | Total energy of the DFT / Hartree-Fock s.c.f. calculation      :          -4273.660421376 eV
  | Final zero-broadening corrected energy (caution - metals only) :          -4273.660421376 eV
  | For reference only, the value of 1 Hartree used in FHI-aims is :             27.211384500 eV

  Before relying on these values, please be sure to understand exactly which
  total energy value is referred to by a given number. Different objects may
  all carry the same name 'total energy'. Definitions:

  Total energy of the DFT / Hartree-Fock s.c.f. calculation:
  | Note that this energy does not include ANY quantities calculated after the
  | s.c.f. cycle, in particular not ANY RPA, MP2, etc. many-body perturbation terms.

  Final zero-broadening corrected energy:
  | For metallic systems only, a broadening of the occupation numbers at the Fermi
  | level can be extrapolated back to zero broadening by an electron-gas inspired
  | formula. For all systems that are not real metals, this value can be
  | meaningless and should be avoided.

------------------------------------------------------------------------------
  Methods described in the following list of references were used in this FHI-aims run.
  If you publish the results, please make sure to cite these reference if they apply.
  FHI-aims is an academic code, and for our developers (often, Ph.D. students
  and postdocs), scientific credit in the community is essential.
  Thank you for helping us!

  For any use of FHI-aims, please cite:

    Volker Blum, Ralf Gehrke, Felix Hanke, Paula Havu, Ville Havu,
    Xinguo Ren, Karsten Reuter, and Matthias Scheffler
    'Ab initio molecular simulations with numeric atom-centered orbitals'
    Computer Physics Communications 180, 2175-2196 (2009)
    http://dx.doi.org/10.1016/j.cpc.2009.06.022


  For the real-space grid partitioning and parallelization used in this calculation, please cite:

    Ville Havu, Volker Blum, Paula Havu, and Matthias Scheffler,
    'Efficient O(N) integration for all-electron electronic structure calculation'
    'using numerically tabulated basis functions'
    Journal of Computational Physics 228, 8367-8379 (2009).
    http://dx.doi.org/10.1016/j.jcp.2009.08.008

  Of course, there are many other important community references, e.g., those cited in the
  above references. Our list is limited to references that describe implementations in the
  FHI-aims code. The reason is purely practical (length of this list) - please credit others as well.

------------------------------------------------------------
          Leaving FHI-aims.
          Date     :  20180215, Time     :  214443.860

          Computational steps:
          | Number of self-consistency cycles          :           15
          | Number of SCF (re)initializations          :            1

          Detailed time accounting                     :  max(cpu_time)    wall_clock(cpu1)
          | Total time                                 :       12.500 s          14.275 s
          | Preparation time                           :        0.124 s           0.158 s
          | Boundary condition initalization           :        0.000 s           0.000 s
          | Grid partitioning                          :        0.072 s           0.071 s
          | Preloading free-atom quantities on grid    :        0.004 s           0.003 s
          | Free-atom superposition energy             :        0.032 s           0.031 s
          | Total time for integrations                :        4.144 s           4.208 s
          | Total time for solution of K.-S. equations :        0.072 s           0.055 s
          | Total time for density & force components  :        4.420 s           4.512 s
          | Total time for mixing                      :        0.268 s           0.347 s
          | Total time for Hartree multipole update    :        0.468 s           0.444 s
          | Total time for Hartree multipole sum       :        4.148 s           4.209 s
          | Total time for total energy evaluation     :        0.012 s           0.030 s
          | Total time for vdW correction              :        0.040 s           0.042 s

          Partial memory accounting:
          | Residual value for overall tracked memory usage across tasks :           0.000 MB (should be 0.000 MB)
          | Peak values for overall tracked memory usage (after allocating hessian_basis_wave):
          |   Minimum:        1.371 MB (on task 1)
          |   Maximum:        1.371 MB (on task 1)
          |   Average:        1.371 MB
          | Largest tracked array allocation (hessian_basis_wave):
          |   Minimum:        0.650 MB (on task 1)
          |   Maximum:        0.650 MB (on task 1)
          |   Average:        0.650 MB
          Note:  These values currently only include a subset of arrays which are explicitly tracked.
          The "true" memory usage will be greater.

          Have a nice day.
------------------------------------------------------------
