  MPI-parallelism will be employed.
------------------------------------------------------------
          Invoking FHI-aims ...
          Version 171221
          Git rev.: 70e78bb6 VB: Updated error message for aborted rel[...]
          Compiled on 2017/12/22 at 19:14:53 on host egr-vwb3-mbp2.local.

          When using FHI-aims, please cite the following reference:

          Volker Blum, Ralf Gehrke, Felix Hanke, Paula Havu,
          Ville Havu, Xinguo Ren, Karsten Reuter, and Matthias Scheffler,
          'Ab Initio Molecular Simulations with Numeric Atom-Centered Orbitals',
          Computer Physics Communications 180, 2175-2196 (2009)

          For any questions about FHI-aims, please visit the aimsclub website
          with its forums and wiki. Contributions to both the forums and the
          wiki are warmly encouraged - they are for you, and everyone is welcome there.

------------------------------------------------------------



  Date     :  20171223, Time     :  122558.146
  Time zero on CPU 1             :   0.943320000000000E-01  s.
  Internal wall clock time zero  :           283263958.146  s.

  FHI-aims created a unique identifier for this run for later identification
  aims_uuid : 7C363CFF-3E60-4576-A025-8B2BE3DEA216

  Using        4 parallel tasks.
  Task        0 on host egr-vwb3-mbp2.netgear.com reporting.
  Task        1 on host egr-vwb3-mbp2.netgear.com reporting.
  Task        2 on host egr-vwb3-mbp2.netgear.com reporting.
  Task        3 on host egr-vwb3-mbp2.netgear.com reporting.

  Performing system and environment tests:
  *** Environment variable OMP_NUM_THREADS is not set
  *** For performance reasons you might want to set it to 1
  | Maximum stacksize for task 0: 48 [Mb]
  | Maximum stacksize for task 1: 48 [Mb]
  | Maximum stacksize for task 2: 48 [Mb]
  | Maximum stacksize for task 3: 48 [Mb]
   *** Stacksize is not set to unlimited. This might cause problems...
  | Current stacksize for task 0: 48 [Mb]
  | Current stacksize for task 1: 48 [Mb]
  | Current stacksize for task 2: 48 [Mb]
  | Current stacksize for task 3: 48 [Mb]
  | Checking for scalapack...
  | Testing pdtran()...
  | All pdtran() tests passed.

  Obtaining array dimensions for all initial allocations:
  
  -----------------------------------------------------------------------
  Parsing control.in (first pass over file, find array dimensions only).
  The contents of control.in will be repeated verbatim below
  unless switched off by setting 'verbatim_writeout .false.' .
  in the first line of control.in .
  -----------------------------------------------------------------------
  
  #########################################################################################
  #
  #  Volker Blum, 2016 : Test run input file control.in for Au dimer
  #
  #########################################################################################
  #
  #  Physical model
  #
    xc                 pw-lda
    spin               none
    relativistic       atomic_zora scalar
    charge             0.
  #
  #  Relaxation
  #
    relax_geometry   bfgs 5.e-3
  #
  #  Post-scf treatment
  #
    include_spin_orbit
  
  ################################################################################
  #
  #  FHI-aims code project
  #  Volker Blum, Fritz Haber Institute Berlin, 2009
  #
  #  Suggested "tight" defaults for Au atom (to be pasted into control.in file)
  #
  #  Feb. 16, 2013: Commented out the "h" basis function from tier 1 in the default.
  #                 Au is the only element to have this, and it usually does not
  #                 make a difference. With the advent of hybrid functionals, the
  #                 extra effort is critical.
  #
  ################################################################################
    species        Au
  #     global species definitions
      nucleus             79
      mass                196.966569
  #
      l_hartree           6
  #
      cut_pot             4.0  2.0  1.0
      basis_dep_cutoff    1e-4
  #
      radial_base         73 7.0
      radial_multiplier   2
      angular_grids specified
        division   0.3416   50
        division   0.7206  110
        division   1.1171  194
        division   1.2821  302
        division   1.5560  434
  #      division   2.1046  590
  #      division   2.2363  770
  #      division   2.2710  974
  #      division   2.8078 1202
  #      outer_grid 1202
        outer_grid  434
   ################################################################################
  #
  #  Definition of "minimal" basis
  #
  ################################################################################
  #     valence basis states
      valence      6  s   1.
      valence      5  p   6.
      valence      5  d  10.
      valence      4  f  14.
  #     ion occupancy
      ion_occ     6  s   0.
      ion_occ     5  p   6.
      ion_occ     5  d   9.
      ion_occ     4  f   14.
  ################################################################################
  #
  #  Suggested additional basis functions. For production calculations,
  #  uncomment them one after another (the most important basis functions are
  #  listed first).
  #
  #  Constructed for dimers: 2.10, 2.45, 3.00, 4.00 AA
  #
  ################################################################################
  #  "First tier" - max. impr. -161.60  meV, min. impr. -4.53 meV
       ionic 6 p auto
       hydro 4 f 7.4
       ionic 6 s auto
       hydro 5 g 10
  #     hydro 6 h 12.8
       hydro 3 d 2.5
  #  "Second tier" - max. impr. -2.46  meV, min. impr. -0.28 meV
  #     hydro 5 f 14.8
  #     hydro 4 d 3.9
  #     hydro 3 p 3.3
  #     hydro 1 s 0.45
  #     hydro 5 g 16.4
  #     hydro 6 h 13.6
  #  "Third tier" - max. impr. -0.49  meV, min. impr. -0.09 meV
  #     hydro 4 f 5.2
  #     hydro 4 d 5
  #     hydro 5 g 8
  #     hydro 5 p 8.2
  #     hydro 6 d 12.4
  #     hydro 6 s 14.8
  #  Further basis functions: -0.08 meV and below
  #     hydro 5 f 18.8
  #     hydro 5 g 20
  #    hydro 5 g 15.2
  
  -----------------------------------------------------------------------
  Completed first pass over input file control.in .
  -----------------------------------------------------------------------
  
  
  -----------------------------------------------------------------------
  Parsing geometry.in (first pass over file, find array dimensions only).
  The contents of geometry.in will be repeated verbatim below
  unless switched off by setting 'verbatim_writeout .false.' .
  in the first line of geometry.in .
  -----------------------------------------------------------------------
  
  #
  # This is the geometry file that corresponds to the current relaxation step.
  # If you do not want this file to be written, set the "write_restart_geometry" flag to .false.
  #  aims_uuid : 47F94293-24E5-4C16-AC05-DF11861A036F
  #
  atom      -0.00000000      0.00000000      0.26778616 Au
  atom      -0.00000000     -0.00000000      2.73221384 Au
  #
  # What follows is the current estimated Hessian matrix constructed by the BFGS algorithm.
  # This is NOT the true Hessian matrix of the system.
  # If you do not want this information here, switch it off using the "hessian_to_restart_geometry" keyword.
  #
  trust_radius             0.1000000015
  hessian_block                1       1           2.000000          -0.000000          -0.000000          -0.000000           2.00000
  hessian_block                1       2           0.000000          -0.000000          -0.000000          -0.000000           0.00000
  hessian_block                2       2           2.000000          -0.000000           0.000000          -0.000000           2.00000
  
  -----------------------------------------------------------------------
  Completed first pass over input file geometry.in .
  -----------------------------------------------------------------------
  

  Basic array size parameters:
  | Number of species                 :        1
  | Number of atoms                   :        2
  | Max. basis fn. angular momentum   :        4
  | Max. atomic/ionic basis occupied n:        6
  | Max. number of basis fn. types    :        3
  | Max. radial fns per species/type  :       14
  | Max. logarithmic grid size        :     1488
  | Max. radial integration grid size :      147
  | Max. angular integration grid size:      434
  | Max. angular grid division number :        8
  | Radial grid for Hartree potential :     1488
  | Number of spin channels           :        1

------------------------------------------------------------
          Reading file control.in.
------------------------------------------------------------
  XC: Using Perdew-Wang parametrisation of Ceperley-Alder LDA.
  Spin treatment: No spin polarisation.
  Scalar relativistic treatment of kinetic energy: on-site free-atom approximation to ZORA.
  Charge =   0.000000E+00: Neutral system requested explicitly.
  Geometry relaxation: Modified BFGS - TRM (trust radius method, i.e., trusted quadratic extrapolation).
  Convergence accuracy for geometry relaxation: Maximum force <   0.500000E-02 eV/A.
  Calculating non-self-consistent second-variational spin-orbit coupling after scf-cycle
 
  Reading configuration options for species Au                  .
  | Found nuclear charge :  79.0000
  | Found atomic mass :    196.966569000000      amu
  | Found l_max for Hartree potential  :   6
  | Found cutoff potl. onset [A], width [A], scale factor :    4.00000    2.00000    1.00000
  | Threshold for basis-dependent cutoff potential is   0.100000E-03
  | Found data for basic radial integration grid :    73 points, outermost radius =    7.000 A
  | Found multiplier for basic radial grid :   2
  | Found angular grid specification: user-specified.
  | Specified grid contains     6 separate shells.
  | Check grid settings after all constraints further below.
  | Found free-atom valence shell :  6 s   1.000
  | Found free-atom valence shell :  5 p   6.000
  | Found free-atom valence shell :  5 d  10.000
  | Found free-atom valence shell :  4 f  14.000
  | Found free-ion valence shell :  6 s   0.000
  | Found free-ion valence shell :  5 p   6.000
  | Found free-ion valence shell :  5 d   9.000
  | Found free-ion valence shell :  4 f  14.000
  | Found ionic basis function :  6 p , default cutoff radius.
  | Found hydrogenic basis function :  4 f   7.400
  | Found ionic basis function :  6 s , default cutoff radius.
  | Found hydrogenic basis function :  5 g  10.000
  | Found hydrogenic basis function :  3 d   2.500
  Species Au                  : Missing cutoff potential type.
  Defaulting to exp(1/x)/(1-x)^2 type cutoff potential.
  Species Au: No 'logarithmic' tag. Using default grid for free atom:
  | Default logarithmic grid data [bohr] : 0.1000E-03 0.1000E+03 0.1012E+01
  | Will include ionic basis functions of  2.0-fold positive Au                   ion.
  Species Au: On-site basis accuracy parameter (for Gram-Schmidt orthonormalisation) not specified.
  Using default value basis_acc =  0.1000000E-03.
  Species Au                  : Using default innermost maximum threshold i_radial=  2 for radial functions.
  Species Au                  : Default cutoff onset for free atom density etc. : 0.40000000E+01 AA.
  Species Au                  : Basic radial grid will be enhanced according to radial_multiplier =   2, to contain   147 grid points.
 
  Finished reading input file 'control.in'. Consistency checks are next.
 
  MPI_IN_PLACE appears to work with this MPI implementation.
  | Keeping use_mpi_in_place .true. (see manual).
  Target number of points in a grid batch is not set. Defaulting to  100
  Method for grid partitioning is not set. Defaulting to parallel hash+maxmin partitioning.
  Batch size limit is not set. Defaulting to    200
  By default, will store active basis functions for each batch.
  If in need of memory, prune_basis_once .false. can be used to disable this option.
  communication_type for Hartree potential was not specified.
  Defaulting to calc_hartree .
  Defaulting to Pulay charge density mixer.
  Pulay mixer: Number of relevant iterations not set.
  Defaulting to    8 iterations.
  Pulay mixer: Number of initial linear mixing iterations not set.
  Defaulting to    0 iterations.
  Work space size for distributed Hartree potential not set.
  Defaulting to   0.200000E+03 MB.
  Mixing parameter for charge density mixing has not been set.
  Using default: charge_mix_param =     0.0500.
  The mixing parameter will be adjusted in iteration number     2 of the first full s.c.f. cycle only.
  Algorithm-dependent basis array size parameters:
  | n_max_pulay                         :        8
 * Notice: The s.c.f. convergence criterion sc_accuracy_rho was not provided.
 * We used to stop in this case, and ask the user to provide reasonable
 * scf convergence criteria. However, this led some users to employ criteria
 * that led to extremely long run times, e.g., for simple relaxation.
 * We now preset a default value for sc_accuracy_rho if it is not set.
 * You may still wish to check if this setting is too tight or too loose for your needs.
 * Based on n_atoms, FHI-aims chose sc_accuracy_rho =  0.100000E-05 .
  Maximum number of self-consistency iterations not provided.
  Presetting  1000 iterations.
  Presetting        40 iterations before the initial mixing cycle
  is restarted anyway using the sc_init_iter criterion / keyword.
  Presetting a factor      1.000 between actual scf density residual
  and density convergence criterion sc_accuracy_rho below which sc_init_iter
  takes no effect.
 * No s.c.f. convergence criteria (sc_accuracy_*) were provided in control.in.
 * The run will proceed with a reasonable default guess, but please check whether.
 * the s.c.f. cycles seem to take too much or too little time.
  No maximum number of relaxation steps, defaulting to     1000
  Using explicit Hessian from geometry.in.
  No maximum energy tolerance for TRM/BFGS moves, defaulting to   0.200000E-03
  No harmonic length scale. Defaulting to   0.250000E-01 A.
  No trust radius initializer. Defaulting to   0.200000E+00 A.
  Force calculation: scf convergence accuracy of forces not set.
  Defaulting to 'sc_accuracy_forces not_checked'.
  Handling of forces: Unphysical translation and rotation will be removed from forces.
  No accuracy limit for integral partition fn. given. Defaulting to  0.1000E-14.
  No threshold value for u(r) in integrations given. Defaulting to  0.1000E-05.
  No occupation type (smearing scheme) given. Defaulting to Gaussian broadening, width =  0.1000E-01 eV.
  The width will be adjusted in iteration number     2 of the first full s.c.f. cycle only.
  S.C.F. convergence parameters will be adjusted in iteration number     2 of the first full s.c.f. cycle only.
  No accuracy for occupation numbers given. Defaulting to  0.1000E-12.
  No threshold value for occupation numbers given. Defaulting to  0.0000E+00.
  No accuracy for fermi level given. Defaulting to  0.1000E-19.
  Maximum # of iterations to find E_F not set. Defaulting to  200.
  Preferred method for the eigenvalue solver ('KS_method') not specified in 'control.in'.
  Calling BLACS routine to test compilation state
  Since ScaLAPACK support is enabled, defaulting to 'elsi'.
  Will not use alltoall communication since running on < 1024 CPUs.
  Threshold for basis singularities not set.
  Default threshold for basis singularities:  0.1000E-04
  partition_type (choice of integration weights) for integrals was not specified.
  | Using a version of the partition function of Stratmann and coworkers ('stratmann_smoother').
  | At each grid point, the set of atoms used to build the partition table is smoothly restricted to
  | only those atoms whose free-atom density would be non-zero at that grid point.
  Partitioning for Hartree potential was not defined. Using partition_type for integrals.
  | Adjusted default value of keyword multip_moments_threshold to:       0.10000000E-11
  | This value may affect high angular momentum components of the Hartree potential in periodic systems.
  No q(lm)/r^(l+1) cutoff set for long-range Hartree potential.
  | Using default value of  0.100000E-09 .
  | Verify using the multipole_threshold keyword.
  Defaulting to new monopole extrapolation.
  Density update method: automatic selection selected.
  Geometry relaxation: A file "geometry.in.next_step" is written out by default after each step.
  | This file contains the geometry of the current relaxation step as well as
  | the current Hessian matrix needed to restart the relaxation algorithm.
  | If you do not want part or all of this information, use the keywords
  | "write_restart_geometry" or "hessian_to_restart_geometry" to switch the output off.
------------------------------------------------------------


------------------------------------------------------------
          Reading geometry description geometry.in.
------------------------------------------------------------
  Input structure read successfully.
  The structure contains        2 atoms,  and a total of        158.000 electrons.

  Input geometry:
  | No unit cell requested.
  | Atomic structure:
  |       Atom                x [A]            y [A]            z [A]
  |    1: Species Au            0.00000000        0.00000000        0.26778616
  |    2: Species Au            0.00000000        0.00000000        2.73221384
  |

  | The smallest distance between any two atoms is         2.46442768 AA.
  |
  | The first atom of this pair is atom number                      1 .
  | The second atom of this pair is atom number                     2 .

  Number of empty states per atom not set in control.in - providing a guess from actual geometry.
  | Total number of empty states used during s.c.f. cycle:       18
  If you use a very high smearing, use empty_states (per atom!) in control.in to increase this value.

  Structure-dependent array size parameters: 
  | Maximum number of distinct radial functions  :       19
  | Maximum number of basis functions            :      130
  | Number of Kohn-Sham states (occupied + empty):       97
------------------------------------------------------------

------------------------------------------------------------
          Preparing all fixed parts of the calculation.
------------------------------------------------------------
  Determining machine precision:
    2.225073858507201E-308
  Setting up grids for atomic and cluster calculations.

  Creating wave function, potential, and density for free atoms.

  Species: Au

  List of occupied orbitals and eigenvalues:
    n    l              occ      energy [Ha]    energy [eV]
    1    0           2.0000     -3253.504221    -88532.3543
    2    0           2.0000      -533.272878    -14511.0933
    3    0           2.0000      -124.133751     -3377.8512
    4    0           2.0000       -26.800728      -729.2849
    5    0           2.0000        -3.992501      -108.6415
    6    0           1.0000        -0.222361        -6.0508
    2    1           6.0000      -460.272909    -12524.6631
    3    1           6.0000      -103.428411     -2814.4303
    4    1           6.0000       -20.054932      -545.7225
    5    1           6.0000        -2.203250       -59.9535
    3    2          10.0000       -81.378267     -2214.4153
    4    2          10.0000       -11.977320      -325.9195
    5    2          10.0000        -0.260924        -7.1001
    4    3          14.0000        -3.005792       -81.7918

  Creating fixed part of basis set: Ionic, confined, hydrogenic.
 
  Au                   ion:

  List of free ionic orbitals and eigenvalues:
    n    l      energy [Ha]    energy [eV]
    1    0     -3254.377409    -88556.1150
    2    0      -534.086180    -14533.2244
    3    0      -124.937984     -3399.7355
    4    0       -27.602784      -751.1100
    5    0        -4.790082      -130.3448
    2    1      -461.084679    -12546.7525
    3    1      -104.232198     -2836.3024
    4    1       -20.856809      -567.5427
    5    1        -2.996012       -81.5256
    3    2       -82.181550     -2236.2738
    4    2       -12.778936      -347.7325
    5    2        -1.015310       -27.6280
    4    3        -3.806916      -103.5915


  List of ionic basis orbitals and eigenvalues:
    n    l      energy [Ha]    energy [eV]    outer radius [A]
    6    1        -0.543848       -14.7989       5.411271
    6    0        -0.850631       -23.1468       5.028562

 
  Au                   hydrogenic:
 
  List of hydrogenic basis orbitals: 
    n    l      effective z      eigenvalue [eV]  inner max. [A]     outer max. [A]     outer radius [A]   
    4    3         7.400000       -46.5653           1.145580           1.145580           4.907105
    5    4        10.000000       -54.4226           1.326589           1.326589           5.028562
    3    2         2.500000        -9.3396           1.868078           1.868078           5.477829
 

  Adding cutoff potential to free-atom effective potential.
  Creating atomic-like basis functions for current effective potential.

  Species Au                  :

  List of atomic basis orbitals and eigenvalues:
    n    l      energy [Ha]    energy [eV]    outer radius [A]
    1    0     -3253.504221    -88532.3543       0.120816
    2    0      -533.272878    -14511.0933       0.313506
    3    0      -124.133751     -3377.8512       0.660860
    4    0       -26.800728      -729.2849       1.376144
    5    0        -3.992501      -108.6415       3.318406
    6    0        -0.222361        -6.0508       5.411271
    2    1      -460.272909    -12524.6631       0.329217
    3    1      -103.428411     -2814.4303       0.702515
    4    1       -20.054932      -545.7225       1.536198
    5    1        -2.203250       -59.9535       4.237546
    3    2       -81.378267     -2214.4153       0.755981
    4    2       -11.977320      -325.9195       1.868078
    5    2        -0.260924        -7.1001       5.345521
    4    3        -3.005792       -81.7918       3.160040

  Assembling full basis from fixed parts.
  | Species Au :   atomic orbital   1 s accepted.
  | Species Au :   atomic orbital   2 s accepted.
  | Species Au :   atomic orbital   3 s accepted.
  | Species Au :   atomic orbital   4 s accepted.
  | Species Au :   atomic orbital   5 s accepted.
  | Species Au :    ionic orbital   6 s accepted.
  | Species Au :   atomic orbital   6 s accepted.
  | Species Au :   atomic orbital   2 p accepted.
  | Species Au :   atomic orbital   3 p accepted.
  | Species Au :   atomic orbital   4 p accepted.
  | Species Au :   atomic orbital   5 p accepted.
  | Species Au :    ionic orbital   6 p accepted.
  | Species Au :   atomic orbital   3 d accepted.
  | Species Au :   atomic orbital   4 d accepted.
  | Species Au :   atomic orbital   5 d accepted.
  | Species Au :    hydro orbital   3 d accepted.
  | Species Au :   atomic orbital   4 f accepted.
  | Species Au :    hydro orbital   4 f accepted.
  | Species Au :    hydro orbital   5 g accepted.
 
  Basis size parameters after reduction:
  | Total number of radial functions:       19
  | Total number of basis functions :      130
 
  Per-task memory consumption for arrays in subroutine allocate_ext:
  |           7.241492MB.
  Testing on-site integration grid accuracy.
  |  Species  Function  <phi|h_atom|phi> (log., in eV)  <phi|h_atom|phi> (rad., in eV)
           1        1             -88532.3543419992             -88532.3343936620
           1        2             -14511.0933175829             -14511.0929189747
           1        3              -3377.8512299488              -3377.8511931876
           1        4               -729.2849102997               -729.2849026383
           1        5               -108.6414693839               -108.6414672425
           1        6                 -5.4446658751                 -5.4446655127
           1        7                  5.1472665138                  5.1472765889
           1        8             -12524.6631134573             -12524.6631049383
           1        9              -2814.4302518233              -2814.4302395519
           1       10               -545.7224734400               -545.7224683456
           1       11                -59.9534842779                -59.9534829447
           1       12                  0.5979237008                  0.5979236526
           1       13              -2214.4153252778              -2214.4153210371
           1       14               -325.9194533093               -325.9194508115
           1       15                 -7.1001748465                 -7.1001744710
           1       16                  5.6255798224                  5.6255907370
           1       17                -81.7917639572                -81.7917634432
           1       18                 21.3101330483                 21.3101329864
           1       19                 37.1289775966                 37.1289776743

  Preparing densities etc. for the partition functions (integrals / Hartree potential).

  Preparations completed.
  max(cpu_time)          :      0.274 s.
  Wall clock time (cpu1) :      0.281 s.
------------------------------------------------------------

------------------------------------------------------------
          Begin self-consistency loop: Initialization.

          Date     :  20171223, Time     :  122558.488
------------------------------------------------------------

  Initializing index lists of integration centers etc. from given atomic structure:
  | Number of centers in hartree potential         :         2
  | Number of centers in hartree multipole         :         2
  | Number of centers in electron density summation:         2
  | Number of centers in basis integrals           :         2
  | Number of centers in integrals                 :         2
  | Number of centers in hamiltonian               :         2
  Initializing relaxation algorithms.
  * Using 4 tasks for Scalapack Eigenvalue solver.
  Detailed listing of tasks and assigned k-points:
  (for non-periodic systems, the "k-point" denotes an internal label only)
   Task     0 k-point     1 on egr-vwb3-mbp2.netgear.com
   Task     1 k-point     1 on egr-vwb3-mbp2.netgear.com
   Task     2 k-point     1 on egr-vwb3-mbp2.netgear.com
   Task     3 k-point     1 on egr-vwb3-mbp2.netgear.com
  Tasks:     4 split into      2 X      2 BLACS grid
  Calculating block size based on n_basis =          130  max_nprow =            2  max_npcol =            2
  ScaLAPACK block size set to:           16
  Allocating        0.035 MB for ovlp
  Allocating        0.035 MB for ham
  Allocating        0.035 MB for eigenvec
  Required Scalapack workspace - INTEGER:            1  REAL:             1
  Partitioning the integration grid into batches with parallel hashing+maxmin method.
  | Number of batches:      734
  | Maximal batch size:     134
  | Minimal batch size:      51
  | Average batch size:      79.537
  | Standard deviation of batch sizes:      25.606

  Integration load balanced across     4 MPI tasks.
  Work distribution over tasks is as follows:
  Task     0 has      14564 integration points.
  Task     1 has      14600 integration points.
  Task     2 has      14662 integration points.
  Task     3 has      14554 integration points.
  Initializing partition tables, free-atom densities, potentials, etc. across the integration grid (initialize_grid_storage).
  | initialize_grid_storage: Actual outermost partition radius vs. multipole_radius_free
  | (-- VB: in principle, multipole_radius_free should be larger, hence this output)
  | Species        1: Confinement radius =              6.000000000000000 AA, multipole_radius_free =              6.040632965187119 AA.
  | Species        1: outer_partition_radius set to              6.040632965187119 AA .
  | Original list of interatomic distances with           2 x          2 entries is created.
  | Net number of integration points:    58380
  | of which are non-zero points    :    56742
  Renormalizing the initial density to the exact electron count on the 3D integration grid.
  | Initial density: Formal number of electrons (from input files) :     158.0000000000
  | Integrated number of electrons on 3D grid     :     157.9999986824
  | Charge integration error                      :      -0.0000013176
  | Normalization factor for density and gradient :       1.0000000083
  Obtaining max. number of non-zero basis functions in each batch (get_n_compute_maxes).
  | Maximal number of non-zero basis functions:      112 in task     0
  | Maximal number of non-zero basis functions:      114 in task     1
  | Maximal number of non-zero basis functions:      112 in task     2
  | Maximal number of non-zero basis functions:      114 in task     3
  Selecting the method for density update.
  Loop over occupied states selected for charge density update.
  Allocating        0.101 MB for KS_eigenvector
  Integrating Hamiltonian matrix: batch-based integration.
  Time summed over all CPUs for integration: real work        0.141 s, elapsed        0.143 s
  Integrating overlap matrix.
  Time summed over all CPUs for integration: real work        0.081 s, elapsed        0.089 s
  Deallocating overlap matrix.

  Updating Kohn-Sham eigenvalues and eigenvectors using ELSI and the ELPA eigensolver.
  ELPA settings:
  | ELPA solver          1
  | Time full => band           :     0.001 s
  | Time band => tridiagonal    :     0.001 s
  | Time solve tridiagonal      :     0.001 s
  Overlap matrix is nonsingular
  | Lowest eigenvalue of overlap  :  0.24E-01
  | Highest eigenvalue of overlap :  0.20E+01
  Finished singularity check of overlap matrix
  | Time :     0.003 s
  Finished Cholesky decomposition
  | Time :     0.001 s
  Finished transformation to standard eigenproblem
  | Time :     0.001 s
  Starting ELPA eigensolver
  | Time full => tridiagonal    :     0.001 s
  | Time solve tridiagonal      :     0.000 s
  | Time ev tridiagonal => full :     0.000 s
  Finished solving standard eigenproblem
  | Time :     0.001 s
  Finished back-transformation of eigenvectors
  | Time :     0.000 s

  Obtaining occupation numbers and chemical potential using ELSI.
  | Chemical potential (Fermi level):    -6.38673315eV
  Writing Kohn-Sham eigenvalues.

  State    Occupation    Eigenvalue [Ha]    Eigenvalue [eV]
      1       2.00000       -3253.506869       -88532.42638
      2       2.00000       -3253.506869       -88532.42638
      3       2.00000        -533.275532       -14511.16554
      4       2.00000        -533.275532       -14511.16554
      5       2.00000        -460.275569       -12524.73548
      6       2.00000        -460.275569       -12524.73548
      7       2.00000        -460.275560       -12524.73523
      8       2.00000        -460.275560       -12524.73523
      9       2.00000        -460.275560       -12524.73523
     10       2.00000        -460.275560       -12524.73523
     11       2.00000        -124.136444        -3377.92451
     12       2.00000        -124.136444        -3377.92451
     13       2.00000        -103.431156        -2814.50496
     14       2.00000        -103.431156        -2814.50496
     15       2.00000        -103.431080        -2814.50288
     16       2.00000        -103.431080        -2814.50288
     17       2.00000        -103.431080        -2814.50288
     18       2.00000        -103.431080        -2814.50288
     19       2.00000         -81.380984        -2214.48926
     20       2.00000         -81.380984        -2214.48926
     21       2.00000         -81.380969        -2214.48884
     22       2.00000         -81.380969        -2214.48884
     23       2.00000         -81.380969        -2214.48884
     24       2.00000         -81.380969        -2214.48884
     25       2.00000         -81.380924        -2214.48762
     26       2.00000         -81.380924        -2214.48762
     27       2.00000         -81.380924        -2214.48762
     28       2.00000         -81.380924        -2214.48762
     29       2.00000         -26.803603         -729.36313
     30       2.00000         -26.803603         -729.36313
     31       2.00000         -20.058131         -545.80952
     32       2.00000         -20.058131         -545.80952
     33       2.00000         -20.057697         -545.79772
     34       2.00000         -20.057697         -545.79772
     35       2.00000         -20.057697         -545.79772
     36       2.00000         -20.057697         -545.79772
     37       2.00000         -11.980523         -326.00662
     38       2.00000         -11.980523         -326.00662
     39       2.00000         -11.980379         -326.00269
     40       2.00000         -11.980379         -326.00269
     41       2.00000         -11.980379         -326.00269
     42       2.00000         -11.980379         -326.00269
     43       2.00000         -11.980034         -325.99330
     44       2.00000         -11.980034         -325.99330
     45       2.00000         -11.980034         -325.99330
     46       2.00000         -11.980034         -325.99330
     47       2.00000          -3.997007         -108.76410
     48       2.00000          -3.996230         -108.74296
     49       2.00000          -3.009212          -81.88482
     50       2.00000          -3.009092          -81.88155
     51       2.00000          -3.009080          -81.88124
     52       2.00000          -3.009080          -81.88124
     53       2.00000          -3.009028          -81.87982
     54       2.00000          -3.009028          -81.87982
     55       2.00000          -3.008814          -81.87399
     56       2.00000          -3.008814          -81.87399
     57       2.00000          -3.008804          -81.87373
     58       2.00000          -3.008804          -81.87373
     59       2.00000          -3.008478          -81.86486
     60       2.00000          -3.008478          -81.86486
     61       2.00000          -3.008478          -81.86484
     62       2.00000          -3.008478          -81.86484
     63       2.00000          -2.217175          -60.33241
     64       2.00000          -2.207435          -60.06738
     65       2.00000          -2.207435          -60.06738
     66       2.00000          -2.206192          -60.03353
     67       2.00000          -2.206192          -60.03353
     68       2.00000          -2.204571          -59.98944
     69       2.00000          -0.351987           -9.57805
     70       2.00000          -0.306825           -8.34913
     71       2.00000          -0.306825           -8.34913
     72       2.00000          -0.272321           -7.41023
     73       2.00000          -0.272321           -7.41023
     74       2.00000          -0.261121           -7.10546
     75       2.00000          -0.257653           -7.01109
     76       2.00000          -0.257653           -7.01109
     77       2.00000          -0.237904           -6.47370
     78       2.00000          -0.236922           -6.44698
     79       2.00000          -0.236922           -6.44698
     80       0.00000          -0.158084           -4.30169
     81       0.00000          -0.024971           -0.67949
     82       0.00000          -0.024971           -0.67949
     83       0.00000          -0.010904           -0.29671
     84       0.00000           0.060555            1.64777
     85       0.00000           0.060555            1.64777
     86       0.00000           0.158652            4.31715
     87       0.00000           0.164651            4.48039
     88       0.00000           0.170314            4.63447
     89       0.00000           0.170314            4.63448
     90       0.00000           0.239524            6.51778
     91       0.00000           0.239524            6.51778
     92       0.00000           0.264968            7.21016
     93       0.00000           0.264969            7.21017
     94       0.00000           0.269568            7.33531
     95       0.00000           0.360320            9.80481
     96       0.00000           0.361093            9.82584
     97       0.00000           0.361093            9.82584

  Highest occupied state (VBM) at     -6.44698264 eV
  | Occupation number:      2.00000000

  Lowest unoccupied state (CBM) at    -4.30169276 eV
  | Occupation number:      0.00000000

  Overall HOMO-LUMO gap:      2.14528988 eV.
  Calculating total energy contributions from superposition of free atom densities.

  Total energy components:
  | Sum of eigenvalues            :      -24756.01710262 Ha     -673645.50006784 eV
  | XC energy correction          :        -713.35185638 Ha      -19411.29164778 eV
  | XC potential correction       :         947.06639102 Ha       25770.98771308 eV
  | Free-atom electrostatic energy:      -14823.76837293 Ha     -403375.26093485 eV
  | Hartree energy correction     :           0.00000000 Ha           0.00000000 eV
  | Entropy correction            :          -0.00000000 Ha          -0.00000000 eV
  | ---------------------------
  | Total energy                  :      -39346.07094091 Ha    -1070661.06493738 eV
  | Total energy, T -> 0          :      -39346.07094091 Ha    -1070661.06493738 eV  <-- do not rely on this value for anything but (periodic) metals
  | Electronic free energy        :      -39346.07094091 Ha    -1070661.06493738 eV

  Derived energy quantities:
  | Kinetic energy                :       44141.16004193 Ha     1201142.07817703 eV
  | Electrostatic energy          :      -82773.87912646 Ha    -2252391.85146663 eV
  | Energy correction for multipole
  | error in Hartree potential    :           0.00000000 Ha           0.00000000 eV
  | Sum of eigenvalues per atom                           :     -336822.75003392 eV
  | Total energy (T->0) per atom                          :     -535330.53246869 eV  <-- do not rely on this value for anything but (periodic) metals
  | Electronic free energy per atom                       :     -535330.53246869 eV
  Initialize hartree_potential_storage
  Max. number of atoms included in rho_multipole:            2

  End scf initialization - timings             :  max(cpu_time)    wall_clock(cpu1)
  | Time for scf. initialization               :        0.111 s           0.115 s
  | Boundary condition initialization          :        0.000 s           0.000 s
  | Relaxation initialization                  :        0.000 s           0.000 s
  | Integration                                :        0.056 s           0.059 s
  | Solution of K.-S. eqns.                    :        0.007 s           0.008 s
  | Grid partitioning                          :        0.025 s           0.024 s
  | Preloading free-atom quantities on grid    :        0.005 s           0.004 s
  | Free-atom superposition energy             :        0.006 s           0.007 s
  | Total energy evaluation                    :        0.000 s           0.000 s

  Partial memory accounting:
  | Current value for overall tracked memory usage on task 0  :           0.274 MB
  | Peak value for overall tracked memory usage on task 0     :           0.803 MB after allocating wave
  | Largest tracked array allocation on task 0 so far         :           0.120 MB  when allocating H_times_psi
  Note:  These values currently only include a subset of arrays which are explicitly tracked.
  The "true" memory usage will be greater.
------------------------------------------------------------

------------------------------------------------------------
          Begin self-consistency iteration #    1

  Date     :  20171223, Time     :  122558.603
------------------------------------------------------------
  Evaluating new KS density.
  Integration grid: deviation in total charge (<rho> - N_e) =   0.000000E+00
  Pulay mixing of updated and previous charge densities.

  Evaluating partitioned Hartree potential by multipole expansion.
  | Analytical far-field extrapolation by fixed multipoles:
  | Hartree multipole sum: apparent total charge =  -0.133650E-05
  Summing up the Hartree potential.
  Time summed over all CPUs for potential: real work        0.049 s, elapsed        0.049 s
  | RMS charge density error from multipole expansion :   0.886143E-04

  Integrating Hamiltonian matrix: batch-based integration.
  Time summed over all CPUs for integration: real work        0.126 s, elapsed        0.127 s

  Updating Kohn-Sham eigenvalues and eigenvectors using ELSI and the ELPA eigensolver.
  ELPA settings:
  | ELPA solver          1
  Finished transformation to standard eigenproblem
  | Time :     0.000 s
  Starting ELPA eigensolver
  | Time full => tridiagonal    :     0.003 s
  | Time solve tridiagonal      :     0.000 s
  | Time ev tridiagonal => full :     0.000 s
  Finished solving standard eigenproblem
  | Time :     0.004 s
  Finished back-transformation of eigenvectors
  | Time :     0.000 s

  Obtaining occupation numbers and chemical potential using ELSI.
  | Chemical potential (Fermi level):    -6.37670673eV
  Writing Kohn-Sham eigenvalues.

  State    Occupation    Eigenvalue [Ha]    Eigenvalue [eV]
      1       2.00000       -3253.510026       -88532.51230
      2       2.00000       -3253.510026       -88532.51230
      3       2.00000        -533.278692       -14511.25154
      4       2.00000        -533.278692       -14511.25154
      5       2.00000        -460.278743       -12524.82185
      6       2.00000        -460.278743       -12524.82185
      7       2.00000        -460.278725       -12524.82136
      8       2.00000        -460.278725       -12524.82136
      9       2.00000        -460.278725       -12524.82136
     10       2.00000        -460.278725       -12524.82136
     11       2.00000        -124.139367        -3378.00405
     12       2.00000        -124.139367        -3378.00405
     13       2.00000        -103.434027        -2814.58307
     14       2.00000        -103.434027        -2814.58307
     15       2.00000        -103.434026        -2814.58305
     16       2.00000        -103.434026        -2814.58305
     17       2.00000        -103.434026        -2814.58305
     18       2.00000        -103.434026        -2814.58305
     19       2.00000         -81.383923        -2214.56922
     20       2.00000         -81.383923        -2214.56922
     21       2.00000         -81.383920        -2214.56915
     22       2.00000         -81.383920        -2214.56915
     23       2.00000         -81.383920        -2214.56915
     24       2.00000         -81.383920        -2214.56915
     25       2.00000         -81.383906        -2214.56876
     26       2.00000         -81.383906        -2214.56876
     27       2.00000         -81.383906        -2214.56876
     28       2.00000         -81.383906        -2214.56876
     29       2.00000         -26.806177         -729.43319
     30       2.00000         -26.806177         -729.43319
     31       2.00000         -20.060690         -545.87916
     32       2.00000         -20.060690         -545.87916
     33       2.00000         -20.060223         -545.86645
     34       2.00000         -20.060223         -545.86645
     35       2.00000         -20.060223         -545.86645
     36       2.00000         -20.060223         -545.86645
     37       2.00000         -11.983092         -326.07652
     38       2.00000         -11.983092         -326.07651
     39       2.00000         -11.982877         -326.07066
     40       2.00000         -11.982877         -326.07066
     41       2.00000         -11.982877         -326.07066
     42       2.00000         -11.982877         -326.07066
     43       2.00000         -11.982515         -326.06083
     44       2.00000         -11.982515         -326.06083
     45       2.00000         -11.982515         -326.06083
     46       2.00000         -11.982515         -326.06083
     47       2.00000          -3.998776         -108.81223
     48       2.00000          -3.998005         -108.79125
     49       2.00000          -3.011728          -81.95329
     50       2.00000          -3.011608          -81.95003
     51       2.00000          -3.011564          -81.94883
     52       2.00000          -3.011564          -81.94883
     53       2.00000          -3.011512          -81.94742
     54       2.00000          -3.011512          -81.94742
     55       2.00000          -3.011229          -81.93972
     56       2.00000          -3.011229          -81.93971
     57       2.00000          -3.011220          -81.93946
     58       2.00000          -3.011220          -81.93946
     59       2.00000          -3.010871          -81.92997
     60       2.00000          -3.010871          -81.92997
     61       2.00000          -3.010870          -81.92995
     62       2.00000          -3.010870          -81.92995
     63       2.00000          -2.219155          -60.38628
     64       2.00000          -2.208637          -60.10007
     65       2.00000          -2.208637          -60.10007
     66       2.00000          -2.207403          -60.06650
     67       2.00000          -2.207403          -60.06650
     68       2.00000          -2.206637          -60.04563
     69       2.00000          -0.352081           -9.58060
     70       2.00000          -0.307099           -8.35659
     71       2.00000          -0.307099           -8.35659
     72       2.00000          -0.272397           -7.41229
     73       2.00000          -0.272397           -7.41229
     74       2.00000          -0.260440           -7.08694
     75       2.00000          -0.257887           -7.01747
     76       2.00000          -0.257887           -7.01747
     77       2.00000          -0.238593           -6.49244
     78       2.00000          -0.238080           -6.47848
     79       2.00000          -0.238080           -6.47848
     80       0.00000          -0.159735           -4.34660
     81       0.00000          -0.024242           -0.65967
     82       0.00000          -0.024242           -0.65967
     83       0.00000          -0.011759           -0.31997
     84       0.00000           0.060509            1.64653
     85       0.00000           0.060509            1.64653
     86       0.00000           0.157892            4.29647
     87       0.00000           0.165192            4.49511
     88       0.00000           0.171008            4.65335
     89       0.00000           0.171008            4.65335
     90       0.00000           0.239452            6.51583
     91       0.00000           0.239452            6.51583
     92       0.00000           0.265160            7.21537
     93       0.00000           0.265160            7.21538
     94       0.00000           0.269217            7.32577
     95       0.00000           0.359892            9.79315
     96       0.00000           0.361462            9.83588
     97       0.00000           0.361462            9.83588

  Highest occupied state (VBM) at     -6.47847978 eV
  | Occupation number:      2.00000000

  Lowest unoccupied state (CBM) at    -4.34660286 eV
  | Occupation number:      0.00000000

  Overall HOMO-LUMO gap:      2.13187691 eV.

  Total energy components:
  | Sum of eigenvalues            :      -24756.37761180 Ha     -673655.31002181 eV
  | XC energy correction          :        -713.33983903 Ha      -19410.96463911 eV
  | XC potential correction       :         947.05047956 Ha       25770.55474011 eV
  | Free-atom electrostatic energy:      -14823.76837293 Ha     -403375.26093485 eV
  | Hartree energy correction     :           0.36804767 Ha          10.01508657 eV
  | Entropy correction            :          -0.00000000 Ha          -0.00000000 eV
  | ---------------------------
  | Total energy                  :      -39346.06729654 Ha    -1070660.96576909 eV
  | Total energy, T -> 0          :      -39346.06729654 Ha    -1070660.96576909 eV  <-- do not rely on this value for anything but (periodic) metals
  | Electronic free energy        :      -39346.06729654 Ha    -1070660.96576909 eV

  Derived energy quantities:
  | Kinetic energy                :       44141.03130222 Ha     1201138.57499125 eV
  | Electrostatic energy          :      -82773.75875973 Ha    -2252388.57612123 eV
  | Energy correction for multipole
  | error in Hartree potential    :          -0.00019090 Ha          -0.00519464 eV
  | Sum of eigenvalues per atom                           :     -336827.65501091 eV
  | Total energy (T->0) per atom                          :     -535330.48288454 eV  <-- do not rely on this value for anything but (periodic) metals
  | Electronic free energy per atom                       :     -535330.48288454 eV

  Self-consistency convergence accuracy:
  | Change of charge density      :  0.1254E+00
  | Change of sum of eigenvalues  : -0.9810E+01 eV
  | Change of total energy        :  0.9917E-01 eV

  End self-consistency iteration #     1       :  max(cpu_time)    wall_clock(cpu1)
  | Time for this iteration                    :        0.073 s           0.075 s
  | Charge density update                      :        0.019 s           0.019 s
  | Density mixing                             :        0.000 s           0.000 s
  | Hartree multipole update                   :        0.003 s           0.003 s
  | Hartree multipole summation                :        0.014 s           0.015 s
  | Integration                                :        0.032 s           0.033 s
  | Solution of K.-S. eqns.                    :        0.004 s           0.004 s
  | Total energy evaluation                    :        0.000 s           0.000 s

  Partial memory accounting:
  | Current value for overall tracked memory usage on task 0  :           0.274 MB
  | Peak value for overall tracked memory usage on task 0     :           0.803 MB after allocating wave
  | Largest tracked array allocation on task 0 so far         :           0.120 MB  when allocating H_times_psi
  Note:  These values currently only include a subset of arrays which are explicitly tracked.
  The "true" memory usage will be greater.
------------------------------------------------------------

------------------------------------------------------------
          Begin self-consistency iteration #    2

  Date     :  20171223, Time     :  122558.678
------------------------------------------------------------
  Evaluating new KS density.
  Integration grid: deviation in total charge (<rho> - N_e) =   3.979039E-13
  Pulay mixing of updated and previous charge densities.

  Evaluating partitioned Hartree potential by multipole expansion.
  | Analytical far-field extrapolation by fixed multipoles:
  | Hartree multipole sum: apparent total charge =  -0.132879E-05
  Summing up the Hartree potential.
  Time summed over all CPUs for potential: real work        0.047 s, elapsed        0.049 s
  | RMS charge density error from multipole expansion :   0.778182E-03

  Integrating Hamiltonian matrix: batch-based integration.
  Time summed over all CPUs for integration: real work        0.138 s, elapsed        0.142 s

  Updating Kohn-Sham eigenvalues and eigenvectors using ELSI and the ELPA eigensolver.
  ELPA settings:
  | ELPA solver          1
  Finished transformation to standard eigenproblem
  | Time :     0.000 s
  Starting ELPA eigensolver
  | Time full => tridiagonal    :     0.001 s
  | Time solve tridiagonal      :     0.000 s
  | Time ev tridiagonal => full :     0.000 s
  Finished solving standard eigenproblem
  | Time :     0.002 s
  Finished back-transformation of eigenvectors
  | Time :     0.000 s

  Obtaining occupation numbers and chemical potential using ELSI.
  | Chemical potential (Fermi level):    -6.28534510eV
  Highest occupied state (VBM) at     -6.64368799 eV
  | Occupation number:      2.00000000

  Lowest unoccupied state (CBM) at    -4.65447482 eV
  | Occupation number:      0.00000000

  Overall HOMO-LUMO gap:      1.98921317 eV.

  Checking to see if s.c.f. parameters should be adjusted.
  The system likely has a gap. Increased the default Pulay mixing parameter (charge_mix_param). Value:   0.200000 .
  Kept the default occupation width. Value:   0.010000 eV.

  Total energy components:
  | Sum of eigenvalues            :      -24758.91380923 Ha     -673724.32346540 eV
  | XC energy correction          :        -713.25585008 Ha      -19408.67918352 eV
  | XC potential correction       :         946.93925360 Ha       25767.52812788 eV
  | Free-atom electrostatic energy:      -14823.76837293 Ha     -403375.26093485 eV
  | Hartree energy correction     :           2.94354854 Ha          80.09803117 eV
  | Entropy correction            :           0.00000000 Ha           0.00000000 eV
  | ---------------------------
  | Total energy                  :      -39346.05523011 Ha    -1070660.63742472 eV
  | Total energy, T -> 0          :      -39346.05523011 Ha    -1070660.63742472 eV  <-- do not rely on this value for anything but (periodic) metals
  | Electronic free energy        :      -39346.05523011 Ha    -1070660.63742472 eV

  Derived energy quantities:
  | Kinetic energy                :       44140.11377111 Ha     1201113.60769943 eV
  | Electrostatic energy          :      -82772.91315113 Ha    -2252365.56594064 eV
  | Energy correction for multipole
  | error in Hartree potential    :          -0.00163342 Ha          -0.04444750 eV
  | Sum of eigenvalues per atom                           :     -336862.16173270 eV
  | Total energy (T->0) per atom                          :     -535330.31871236 eV  <-- do not rely on this value for anything but (periodic) metals
  | Electronic free energy per atom                       :     -535330.31871236 eV

  Self-consistency convergence accuracy:
  | Change of charge density      :  0.1122E+00
  | Change of sum of eigenvalues  : -0.6901E+02 eV
  | Change of total energy        :  0.3283E+00 eV

  End self-consistency iteration #     2       :  max(cpu_time)    wall_clock(cpu1)
  | Time for this iteration                    :        0.073 s           0.073 s
  | Charge density update                      :        0.019 s           0.019 s
  | Density mixing                             :        0.000 s           0.001 s
  | Hartree multipole update                   :        0.002 s           0.002 s
  | Hartree multipole summation                :        0.013 s           0.012 s
  | Integration                                :        0.036 s           0.036 s
  | Solution of K.-S. eqns.                    :        0.003 s           0.003 s
  | Total energy evaluation                    :        0.000 s           0.000 s

  Partial memory accounting:
  | Current value for overall tracked memory usage on task 0  :           0.275 MB
  | Peak value for overall tracked memory usage on task 0     :           0.803 MB after allocating wave
  | Largest tracked array allocation on task 0 so far         :           0.120 MB  when allocating H_times_psi
  Note:  These values currently only include a subset of arrays which are explicitly tracked.
  The "true" memory usage will be greater.
------------------------------------------------------------

------------------------------------------------------------
          Begin self-consistency iteration #    3

  Date     :  20171223, Time     :  122558.752
------------------------------------------------------------
  Evaluating new KS density.
  Integration grid: deviation in total charge (<rho> - N_e) =  -2.842171E-13
  Pulay mixing of updated and previous charge densities.

  Evaluating partitioned Hartree potential by multipole expansion.
  | Analytical far-field extrapolation by fixed multipoles:
  | Hartree multipole sum: apparent total charge =  -0.134662E-05
  Summing up the Hartree potential.
  Time summed over all CPUs for potential: real work        0.055 s, elapsed        0.057 s
  | RMS charge density error from multipole expansion :   0.966714E-03

  Integrating Hamiltonian matrix: batch-based integration.
  Time summed over all CPUs for integration: real work        0.136 s, elapsed        0.148 s

  Updating Kohn-Sham eigenvalues and eigenvectors using ELSI and the ELPA eigensolver.
  ELPA settings:
  | ELPA solver          1
  Finished transformation to standard eigenproblem
  | Time :     0.001 s
  Starting ELPA eigensolver
  | Time full => tridiagonal    :     0.001 s
  | Time solve tridiagonal      :     0.000 s
  | Time ev tridiagonal => full :     0.000 s
  Finished solving standard eigenproblem
  | Time :     0.002 s
  Finished back-transformation of eigenvectors
  | Time :     0.000 s

  Obtaining occupation numbers and chemical potential using ELSI.
  | Chemical potential (Fermi level):    -6.26090294eV
  Highest occupied state (VBM) at     -6.62059628 eV
  | Occupation number:      2.00000000

  Lowest unoccupied state (CBM) at    -4.61601645 eV
  | Occupation number:      0.00000000

  Overall HOMO-LUMO gap:      2.00457982 eV.

  Total energy components:
  | Sum of eigenvalues            :      -24758.43210668 Ha     -673711.21567205 eV
  | XC energy correction          :        -713.26967363 Ha      -19409.05534143 eV
  | XC potential correction       :         946.95755792 Ha       25768.02621382 eV
  | Free-atom electrostatic energy:      -14823.76837293 Ha     -403375.26093485 eV
  | Hartree energy correction     :           2.45775435 Ha          66.87889852 eV
  | Entropy correction            :           0.00000000 Ha           0.00000000 eV
  | ---------------------------
  | Total energy                  :      -39346.05484098 Ha    -1070660.62683599 eV
  | Total energy, T -> 0          :      -39346.05484098 Ha    -1070660.62683599 eV  <-- do not rely on this value for anything but (periodic) metals
  | Electronic free energy        :      -39346.05484098 Ha    -1070660.62683599 eV

  Derived energy quantities:
  | Kinetic energy                :       44140.46161720 Ha     1201123.07307311 eV
  | Electrostatic energy          :      -82773.24678455 Ha    -2252374.64456767 eV
  | Energy correction for multipole
  | error in Hartree potential    :          -0.00173459 Ha          -0.04720049 eV
  | Sum of eigenvalues per atom                           :     -336855.60783602 eV
  | Total energy (T->0) per atom                          :     -535330.31341799 eV  <-- do not rely on this value for anything but (periodic) metals
  | Electronic free energy per atom                       :     -535330.31341799 eV

  Self-consistency convergence accuracy:
  | Change of charge density      :  0.3436E-01
  | Change of sum of eigenvalues  :  0.1311E+02 eV
  | Change of total energy        :  0.1059E-01 eV

  End self-consistency iteration #     3       :  max(cpu_time)    wall_clock(cpu1)
  | Time for this iteration                    :        0.078 s           0.082 s
  | Charge density update                      :        0.021 s           0.023 s
  | Density mixing                             :        0.001 s           0.000 s
  | Hartree multipole update                   :        0.002 s           0.003 s
  | Hartree multipole summation                :        0.015 s           0.015 s
  | Integration                                :        0.035 s           0.037 s
  | Solution of K.-S. eqns.                    :        0.003 s           0.003 s
  | Total energy evaluation                    :        0.000 s           0.000 s

  Partial memory accounting:
  | Current value for overall tracked memory usage on task 0  :           0.275 MB
  | Peak value for overall tracked memory usage on task 0     :           0.803 MB after allocating wave
  | Largest tracked array allocation on task 0 so far         :           0.120 MB  when allocating H_times_psi
  Note:  These values currently only include a subset of arrays which are explicitly tracked.
  The "true" memory usage will be greater.
------------------------------------------------------------

------------------------------------------------------------
          Begin self-consistency iteration #    4

  Date     :  20171223, Time     :  122558.834
------------------------------------------------------------
  Evaluating new KS density.
  Integration grid: deviation in total charge (<rho> - N_e) =   3.410605E-13
  Pulay mixing of updated and previous charge densities.

  Evaluating partitioned Hartree potential by multipole expansion.
  | Analytical far-field extrapolation by fixed multipoles:
  | Hartree multipole sum: apparent total charge =  -0.136174E-05
  Summing up the Hartree potential.
  Time summed over all CPUs for potential: real work        0.051 s, elapsed        0.053 s
  | RMS charge density error from multipole expansion :   0.120094E-02

  Integrating Hamiltonian matrix: batch-based integration.
  Time summed over all CPUs for integration: real work        0.148 s, elapsed        0.163 s

  Updating Kohn-Sham eigenvalues and eigenvectors using ELSI and the ELPA eigensolver.
  ELPA settings:
  | ELPA solver          1
  Finished transformation to standard eigenproblem
  | Time :     0.000 s
  Starting ELPA eigensolver
  | Time full => tridiagonal    :     0.001 s
  | Time solve tridiagonal      :     0.000 s
  | Time ev tridiagonal => full :     0.000 s
  Finished solving standard eigenproblem
  | Time :     0.002 s
  Finished back-transformation of eigenvectors
  | Time :     0.000 s

  Obtaining occupation numbers and chemical potential using ELSI.
  | Chemical potential (Fermi level):    -6.21457654eV
  Highest occupied state (VBM) at     -6.56954927 eV
  | Occupation number:      2.00000000

  Lowest unoccupied state (CBM) at    -4.57873425 eV
  | Occupation number:      0.00000000

  Overall HOMO-LUMO gap:      1.99081502 eV.

  Total energy components:
  | Sum of eigenvalues            :      -24757.75293815 Ha     -673692.73455598 eV
  | XC energy correction          :        -713.28507365 Ha      -19409.47439712 eV
  | XC potential correction       :         946.97793407 Ha       25768.58067711 eV
  | Free-atom electrostatic energy:      -14823.76837293 Ha     -403375.26093485 eV
  | Hartree energy correction     :           1.77374545 Ha          48.26606958 eV
  | Entropy correction            :           0.00000000 Ha           0.00000000 eV
  | ---------------------------
  | Total energy                  :      -39346.05470520 Ha    -1070660.62314126 eV
  | Total energy, T -> 0          :      -39346.05470520 Ha    -1070660.62314126 eV  <-- do not rely on this value for anything but (periodic) metals
  | Electronic free energy        :      -39346.05470520 Ha    -1070660.62314126 eV

  Derived energy quantities:
  | Kinetic energy                :       44140.82166548 Ha     1201132.87048518 eV
  | Electrostatic energy          :      -82773.59129703 Ha    -2252384.01922931 eV
  | Energy correction for multipole
  | error in Hartree potential    :          -0.00190182 Ha          -0.05175128 eV
  | Sum of eigenvalues per atom                           :     -336846.36727799 eV
  | Total energy (T->0) per atom                          :     -535330.31157063 eV  <-- do not rely on this value for anything but (periodic) metals
  | Electronic free energy per atom                       :     -535330.31157063 eV

  Self-consistency convergence accuracy:
  | Change of charge density      :  0.2041E-01
  | Change of sum of eigenvalues  :  0.1848E+02 eV
  | Change of total energy        :  0.3695E-02 eV

  End self-consistency iteration #     4       :  max(cpu_time)    wall_clock(cpu1)
  | Time for this iteration                    :        0.079 s           0.080 s
  | Charge density update                      :        0.018 s           0.019 s
  | Density mixing                             :        0.001 s           0.000 s
  | Hartree multipole update                   :        0.002 s           0.003 s
  | Hartree multipole summation                :        0.014 s           0.013 s
  | Integration                                :        0.041 s           0.042 s
  | Solution of K.-S. eqns.                    :        0.003 s           0.003 s
  | Total energy evaluation                    :        0.000 s           0.000 s

  Partial memory accounting:
  | Current value for overall tracked memory usage on task 0  :           0.275 MB
  | Peak value for overall tracked memory usage on task 0     :           0.803 MB after allocating wave
  | Largest tracked array allocation on task 0 so far         :           0.120 MB  when allocating H_times_psi
  Note:  These values currently only include a subset of arrays which are explicitly tracked.
  The "true" memory usage will be greater.
------------------------------------------------------------

------------------------------------------------------------
          Begin self-consistency iteration #    5

  Date     :  20171223, Time     :  122558.915
------------------------------------------------------------
  Evaluating new KS density.
  Integration grid: deviation in total charge (<rho> - N_e) =   2.842171E-14
  Pulay mixing of updated and previous charge densities.

  Evaluating partitioned Hartree potential by multipole expansion.
  | Analytical far-field extrapolation by fixed multipoles:
  | Hartree multipole sum: apparent total charge =  -0.137160E-05
  Summing up the Hartree potential.
  Time summed over all CPUs for potential: real work        0.065 s, elapsed        0.080 s
  | RMS charge density error from multipole expansion :   0.127059E-02

  Integrating Hamiltonian matrix: batch-based integration.
  Time summed over all CPUs for integration: real work        0.141 s, elapsed        0.144 s

  Updating Kohn-Sham eigenvalues and eigenvectors using ELSI and the ELPA eigensolver.
  ELPA settings:
  | ELPA solver          1
  Finished transformation to standard eigenproblem
  | Time :     0.000 s
  Starting ELPA eigensolver
  | Time full => tridiagonal    :     0.001 s
  | Time solve tridiagonal      :     0.000 s
  | Time ev tridiagonal => full :     0.000 s
  Finished solving standard eigenproblem
  | Time :     0.002 s
  Finished back-transformation of eigenvectors
  | Time :     0.000 s

  Obtaining occupation numbers and chemical potential using ELSI.
  | Chemical potential (Fermi level):    -6.18464511eV
  Highest occupied state (VBM) at     -6.52042579 eV
  | Occupation number:      2.00000000

  Lowest unoccupied state (CBM) at    -4.56018643 eV
  | Occupation number:      0.00000000

  Overall HOMO-LUMO gap:      1.96023936 eV.

  Total energy components:
  | Sum of eigenvalues            :      -24757.30282545 Ha     -673680.48636622 eV
  | XC energy correction          :        -713.29296596 Ha      -19409.68915781 eV
  | XC potential correction       :         946.98836277 Ha       25768.86445626 eV
  | Free-atom electrostatic energy:      -14823.76837293 Ha     -403375.26093485 eV
  | Hartree energy correction     :           1.32114735 Ha          35.95024852 eV
  | Entropy correction            :           0.00000000 Ha           0.00000000 eV
  | ---------------------------
  | Total energy                  :      -39346.05465422 Ha    -1070660.62175409 eV
  | Total energy, T -> 0          :      -39346.05465422 Ha    -1070660.62175409 eV  <-- do not rely on this value for anything but (periodic) metals
  | Electronic free energy        :      -39346.05465422 Ha    -1070660.62175409 eV

  Derived energy quantities:
  | Kinetic energy                :       44140.94024316 Ha     1201136.09714815 eV
  | Electrostatic energy          :      -82773.70193143 Ha    -2252387.02974443 eV
  | Energy correction for multipole
  | error in Hartree potential    :          -0.00195654 Ha          -0.05324005 eV
  | Sum of eigenvalues per atom                           :     -336840.24318311 eV
  | Total energy (T->0) per atom                          :     -535330.31087705 eV  <-- do not rely on this value for anything but (periodic) metals
  | Electronic free energy per atom                       :     -535330.31087705 eV

  Self-consistency convergence accuracy:
  | Change of charge density      :  0.8173E-02
  | Change of sum of eigenvalues  :  0.1225E+02 eV
  | Change of total energy        :  0.1387E-02 eV

  End self-consistency iteration #     5       :  max(cpu_time)    wall_clock(cpu1)
  | Time for this iteration                    :        0.092 s           0.095 s
  | Charge density update                      :        0.028 s           0.030 s
  | Density mixing                             :        0.001 s           0.001 s
  | Hartree multipole update                   :        0.003 s           0.004 s
  | Hartree multipole summation                :        0.020 s           0.020 s
  | Integration                                :        0.036 s           0.037 s
  | Solution of K.-S. eqns.                    :        0.003 s           0.003 s
  | Total energy evaluation                    :        0.000 s           0.000 s

  Partial memory accounting:
  | Current value for overall tracked memory usage on task 0  :           0.275 MB
  | Peak value for overall tracked memory usage on task 0     :           0.803 MB after allocating wave
  | Largest tracked array allocation on task 0 so far         :           0.120 MB  when allocating H_times_psi
  Note:  These values currently only include a subset of arrays which are explicitly tracked.
  The "true" memory usage will be greater.
------------------------------------------------------------

------------------------------------------------------------
          Begin self-consistency iteration #    6

  Date     :  20171223, Time     :  122559.011
------------------------------------------------------------
  Evaluating new KS density.
  Integration grid: deviation in total charge (<rho> - N_e) =   2.842171E-13
  Pulay mixing of updated and previous charge densities.

  Evaluating partitioned Hartree potential by multipole expansion.
  | Analytical far-field extrapolation by fixed multipoles:
  | Hartree multipole sum: apparent total charge =  -0.137418E-05
  Summing up the Hartree potential.
  Time summed over all CPUs for potential: real work        0.050 s, elapsed        0.057 s
  | RMS charge density error from multipole expansion :   0.128348E-02

  Integrating Hamiltonian matrix: batch-based integration.
  Time summed over all CPUs for integration: real work        0.139 s, elapsed        0.141 s

  Updating Kohn-Sham eigenvalues and eigenvectors using ELSI and the ELPA eigensolver.
  ELPA settings:
  | ELPA solver          1
  Finished transformation to standard eigenproblem
  | Time :     0.000 s
  Starting ELPA eigensolver
  | Time full => tridiagonal    :     0.001 s
  | Time solve tridiagonal      :     0.000 s
  | Time ev tridiagonal => full :     0.000 s
  Finished solving standard eigenproblem
  | Time :     0.001 s
  Finished back-transformation of eigenvectors
  | Time :     0.000 s

  Obtaining occupation numbers and chemical potential using ELSI.
  | Chemical potential (Fermi level):    -6.17792538eV
  Highest occupied state (VBM) at     -6.50657808 eV
  | Occupation number:      2.00000000

  Lowest unoccupied state (CBM) at    -4.55512219 eV
  | Occupation number:      0.00000000

  Overall HOMO-LUMO gap:      1.95145590 eV.

  Total energy components:
  | Sum of eigenvalues            :      -24757.28769403 Ha     -673680.07461943 eV
  | XC energy correction          :        -713.29234706 Ha      -19409.67231675 eV
  | XC potential correction       :         946.98752329 Ha       25768.84161300 eV
  | Free-atom electrostatic energy:      -14823.76837293 Ha     -403375.26093485 eV
  | Hartree energy correction     :           1.30624090 Ha          35.54462345 eV
  | Entropy correction            :           0.00000000 Ha           0.00000000 eV
  | ---------------------------
  | Total energy                  :      -39346.05464983 Ha    -1070660.62163457 eV
  | Total energy, T -> 0          :      -39346.05464983 Ha    -1070660.62163457 eV  <-- do not rely on this value for anything but (periodic) metals
  | Electronic free energy        :      -39346.05464983 Ha    -1070660.62163457 eV

  Derived energy quantities:
  | Kinetic energy                :       44140.87993459 Ha     1201134.45606838 eV
  | Electrostatic energy          :      -82773.64223736 Ha    -2252385.40538620 eV
  | Energy correction for multipole
  | error in Hartree potential    :          -0.00195754 Ha          -0.05326727 eV
  | Sum of eigenvalues per atom                           :     -336840.03730972 eV
  | Total energy (T->0) per atom                          :     -535330.31081729 eV  <-- do not rely on this value for anything but (periodic) metals
  | Electronic free energy per atom                       :     -535330.31081729 eV

  Self-consistency convergence accuracy:
  | Change of charge density      :  0.3741E-02
  | Change of sum of eigenvalues  :  0.4117E+00 eV
  | Change of total energy        :  0.1195E-03 eV

  End self-consistency iteration #     6       :  max(cpu_time)    wall_clock(cpu1)
  | Time for this iteration                    :        0.077 s           0.081 s
  | Charge density update                      :        0.020 s           0.022 s
  | Density mixing                             :        0.002 s           0.002 s
  | Hartree multipole update                   :        0.004 s           0.004 s
  | Hartree multipole summation                :        0.015 s           0.015 s
  | Integration                                :        0.033 s           0.036 s
  | Solution of K.-S. eqns.                    :        0.002 s           0.002 s
  | Total energy evaluation                    :        0.000 s           0.000 s

  Partial memory accounting:
  | Current value for overall tracked memory usage on task 0  :           0.275 MB
  | Peak value for overall tracked memory usage on task 0     :           0.803 MB after allocating wave
  | Largest tracked array allocation on task 0 so far         :           0.120 MB  when allocating H_times_psi
  Note:  These values currently only include a subset of arrays which are explicitly tracked.
  The "true" memory usage will be greater.
------------------------------------------------------------

------------------------------------------------------------
          Begin self-consistency iteration #    7

  Date     :  20171223, Time     :  122559.092
------------------------------------------------------------
  Evaluating new KS density.
  Integration grid: deviation in total charge (<rho> - N_e) =  -2.842171E-14
  Pulay mixing of updated and previous charge densities.

  Evaluating partitioned Hartree potential by multipole expansion.
  | Analytical far-field extrapolation by fixed multipoles:
  | Hartree multipole sum: apparent total charge =  -0.137418E-05
  Summing up the Hartree potential.
  Time summed over all CPUs for potential: real work        0.049 s, elapsed        0.049 s
  | RMS charge density error from multipole expansion :   0.128511E-02

  Integrating Hamiltonian matrix: batch-based integration.
  Time summed over all CPUs for integration: real work        0.123 s, elapsed        0.127 s

  Updating Kohn-Sham eigenvalues and eigenvectors using ELSI and the ELPA eigensolver.
  ELPA settings:
  | ELPA solver          1
  Finished transformation to standard eigenproblem
  | Time :     0.000 s
  Starting ELPA eigensolver
  | Time full => tridiagonal    :     0.001 s
  | Time solve tridiagonal      :     0.000 s
  | Time ev tridiagonal => full :     0.000 s
  Finished solving standard eigenproblem
  | Time :     0.002 s
  Finished back-transformation of eigenvectors
  | Time :     0.000 s

  Obtaining occupation numbers and chemical potential using ELSI.
  | Chemical potential (Fermi level):    -6.17762746eV
  Highest occupied state (VBM) at     -6.50705234 eV
  | Occupation number:      2.00000000

  Lowest unoccupied state (CBM) at    -4.55583054 eV
  | Occupation number:      0.00000000

  Overall HOMO-LUMO gap:      1.95122179 eV.

  Total energy components:
  | Sum of eigenvalues            :      -24757.28650105 Ha     -673680.04215662 eV
  | XC energy correction          :        -713.29239191 Ha      -19409.67353710 eV
  | XC potential correction       :         946.98758324 Ha       25768.84324427 eV
  | Free-atom electrostatic energy:      -14823.76837293 Ha     -403375.26093485 eV
  | Hartree energy correction     :           1.30503310 Ha          35.51175747 eV
  | Entropy correction            :           0.00000000 Ha           0.00000000 eV
  | ---------------------------
  | Total energy                  :      -39346.05464955 Ha    -1070660.62162682 eV
  | Total energy, T -> 0          :      -39346.05464955 Ha    -1070660.62162682 eV  <-- do not rely on this value for anything but (periodic) metals
  | Electronic free energy        :      -39346.05464955 Ha    -1070660.62162682 eV

  Derived energy quantities:
  | Kinetic energy                :       44140.88294054 Ha     1201134.53786440 eV
  | Electrostatic energy          :      -82773.64519818 Ha    -2252385.48595412 eV
  | Energy correction for multipole
  | error in Hartree potential    :          -0.00196057 Ha          -0.05334985 eV
  | Sum of eigenvalues per atom                           :     -336840.02107831 eV
  | Total energy (T->0) per atom                          :     -535330.31081341 eV  <-- do not rely on this value for anything but (periodic) metals
  | Electronic free energy per atom                       :     -535330.31081341 eV

  Self-consistency convergence accuracy:
  | Change of charge density      :  0.8078E-03
  | Change of sum of eigenvalues  :  0.3246E-01 eV
  | Change of total energy        :  0.7753E-05 eV

  End self-consistency iteration #     7       :  max(cpu_time)    wall_clock(cpu1)
  | Time for this iteration                    :        0.074 s           0.077 s
  | Charge density update                      :        0.021 s           0.023 s
  | Density mixing                             :        0.002 s           0.002 s
  | Hartree multipole update                   :        0.003 s           0.003 s
  | Hartree multipole summation                :        0.013 s           0.014 s
  | Integration                                :        0.032 s           0.032 s
  | Solution of K.-S. eqns.                    :        0.003 s           0.002 s
  | Total energy evaluation                    :        0.000 s           0.000 s

  Partial memory accounting:
  | Current value for overall tracked memory usage on task 0  :           0.275 MB
  | Peak value for overall tracked memory usage on task 0     :           0.803 MB after allocating wave
  | Largest tracked array allocation on task 0 so far         :           0.120 MB  when allocating H_times_psi
  Note:  These values currently only include a subset of arrays which are explicitly tracked.
  The "true" memory usage will be greater.
------------------------------------------------------------

------------------------------------------------------------
          Begin self-consistency iteration #    8

  Date     :  20171223, Time     :  122559.169
------------------------------------------------------------
  Evaluating new KS density.
  Integration grid: deviation in total charge (<rho> - N_e) =   1.136868E-13
  Pulay mixing of updated and previous charge densities.

  Evaluating partitioned Hartree potential by multipole expansion.
  | Analytical far-field extrapolation by fixed multipoles:
  | Hartree multipole sum: apparent total charge =  -0.137462E-05
  Summing up the Hartree potential.
  Time summed over all CPUs for potential: real work        0.057 s, elapsed        0.072 s
  | RMS charge density error from multipole expansion :   0.128534E-02

  Integrating Hamiltonian matrix: batch-based integration.
[...]
     73       1.00000                    -326.274776        -337.316143           164.890151
     74       1.00000                    -326.274776        -337.316143             0.000000
     75       1.00000                    -326.274773        -337.315674             0.000469
     76       1.00000                    -326.274773        -337.315674             0.000000
     77       1.00000                    -326.263915        -337.315300             0.000374
     78       1.00000                    -326.263915        -337.315300             0.000000
     79       1.00000                    -326.263915        -337.314073             0.001227
     80       1.00000                    -326.263915        -337.314073             0.000000
     81       1.00000                    -326.263915        -318.636547            18.677525
     82       1.00000                    -326.263915        -318.636547             0.000000
     83       1.00000                    -326.263915        -318.636326             0.000221
     84       1.00000                    -326.263915        -318.636326             0.000000
     85       1.00000                    -326.257843        -318.632147             0.004179
     86       1.00000                    -326.257843        -318.632147             0.000000
     87       1.00000                    -326.257843        -318.631166             0.000981
     88       1.00000                    -326.257843        -318.631166             0.000000
     89       1.00000                    -326.257843        -318.627526             0.003640
     90       1.00000                    -326.257843        -318.627526             0.000000
     91       1.00000                    -326.257843        -318.626902             0.000624
     92       1.00000                    -326.257843        -318.626902             0.000000
     93       1.00000                    -108.951003        -108.950987           209.675915
     94       1.00000                    -108.951003        -108.950987             0.000000
     95       1.00000                    -108.929324        -108.929302             0.021685
     96       1.00000                    -108.929324        -108.929302             0.000000
     97       1.00000                     -82.151796         -84.312556            24.616747
     98       1.00000                     -82.151796         -84.312556             0.000000
     99       1.00000                     -82.148297         -84.311938             0.000617
    100       1.00000                     -82.148297         -84.311938             0.000000
    101       1.00000                     -82.141878         -84.296099             0.015839
    102       1.00000                     -82.141878         -84.296099             0.000000
    103       1.00000                     -82.141878         -84.295865             0.000235
    104       1.00000                     -82.141878         -84.295865             0.000000
    105       1.00000                     -82.140400         -84.289990             0.005874
    106       1.00000                     -82.140400         -84.289990             0.000000
    107       1.00000                     -82.140400         -84.289958             0.000032
    108       1.00000                     -82.140400         -84.289958             0.000000
    109       1.00000                     -82.123835         -80.521529             3.768430
    110       1.00000                     -82.123835         -80.521529             0.000000
    111       1.00000                     -82.123831         -80.520068             0.001461
    112       1.00000                     -82.123831         -80.520068             0.000000
    113       1.00000                     -82.123573         -80.511224             0.008844
    114       1.00000                     -82.123573         -80.511224             0.000000
    115       1.00000                     -82.123569         -80.510149             0.001075
    116       1.00000                     -82.123569         -80.510149             0.000000
    117       1.00000                     -82.122353         -80.498134             0.012015
    118       1.00000                     -82.122353         -80.498134             0.000000
    119       1.00000                     -82.122353         -80.497858             0.000276
    120       1.00000                     -82.122353         -80.497858             0.000000
    121       1.00000                     -82.122336         -80.496786             0.001072
    122       1.00000                     -82.122336         -80.496786             0.000000
    123       1.00000                     -82.122336         -80.496751             0.000035
    124       1.00000                     -82.122336         -80.496751             0.000000
    125       1.00000                     -60.640395         -69.976181            10.520570
    126       1.00000                     -60.640395         -69.976181             0.000000
    127       1.00000                     -60.294274         -69.843706             0.132475
    128       1.00000                     -60.294274         -69.843706             0.000000
    129       1.00000                     -60.121337         -52.500000            17.343707
    130       1.00000                     -60.121337         -52.500000             0.000000
    131       1.00000                     -60.121337         -52.086172             0.413827
    132       1.00000                     -60.121337         -52.086172             0.000000
    133       1.00000                     -60.087262         -52.074567             0.011605
    134       1.00000                     -60.087262         -52.074567             0.000000
    135       1.00000                     -60.087262         -52.065065             0.009502
    136       1.00000                     -60.087262         -52.065065             0.000000
    137       1.00000                      -9.621427          -9.733002            42.332063
    138       1.00000                      -9.621427          -9.733002             0.000000
    139       1.00000                      -8.326256          -8.821397             0.911606
    140       1.00000                      -8.326256          -8.821397             0.000000
    141       1.00000                      -8.326256          -8.411676             0.409721
    142       1.00000                      -8.326256          -8.411676             0.000000
    143       1.00000                      -7.240886          -8.052946             0.358729
    144       1.00000                      -7.240886          -8.052946             0.000000
    145       1.00000                      -7.240886          -7.152712             0.900234
    146       1.00000                      -7.240886          -7.152712             0.000000
    147       1.00000                      -6.858376          -7.080472             0.072240
    148       1.00000                      -6.858376          -7.080472             0.000000
    149       1.00000                      -6.858376          -6.606534             0.473938
    150       1.00000                      -6.858376          -6.606534             0.000000
    151       1.00000                      -6.816333          -6.380054             0.226480
    152       1.00000                      -6.816333          -6.380054             0.000000
    153       1.00000                      -6.548407          -6.257345             0.122709
    154       1.00000                      -6.548407          -6.257345             0.000000
    155       1.00000                      -6.548407          -6.188473             0.068872
    156       1.00000                      -6.548407          -6.188473             0.000000
    157       1.00000                      -6.490169          -5.955892             0.232580
    158       1.00000                      -6.490169          -5.955892             0.000000
    159       0.00000                      -4.540141          -4.504035             1.451857
    160       0.00000                      -4.540141          -4.504035             0.000000
    161       0.00000                      -0.400121          -0.608221             3.895814
    162       0.00000                      -0.400121          -0.608221             0.000000
    163       0.00000                      -0.400121          -0.335333             0.272888
    164       0.00000                      -0.400121          -0.335333             0.000000
    165       0.00000                      -0.381636           0.518772             0.854105
    166       0.00000                      -0.381636           0.518772             0.000000
    167       0.00000                       1.764839           1.816403             1.297630
    168       0.00000                       1.764839           1.816403             0.000000
    169       0.00000                       1.764839           2.358305             0.541903
    170       0.00000                       1.764839           2.358305             0.000000
    171       0.00000                       4.292177           4.291048             1.932742
    172       0.00000                       4.292177           4.291048             0.000000
    173       0.00000                       4.707886           4.719291             0.428243
    174       0.00000                       4.707886           4.719291             0.000000
    175       0.00000                       4.897149           4.749682             0.030391
    176       0.00000                       4.897149           4.749682             0.000000
    177       0.00000                       4.897149           5.096815             0.347132
    178       0.00000                       4.897149           5.096815             0.000000
    179       0.00000                       6.620582           6.530227             1.433412
    180       0.00000                       6.620582           6.530227             0.000000
    181       0.00000                       6.620582           6.696700             0.166473
    182       0.00000                       6.620582           6.696700             0.000000
    183       0.00000                       7.372490           7.278650             0.581950
    184       0.00000                       7.372490           7.278650             0.000000
    185       0.00000                       7.372497           7.457832             0.179182
    186       0.00000                       7.372497           7.457832             0.000000
    187       0.00000                       7.374690           7.581754             0.123922
    188       0.00000                       7.374690           7.581754             0.000000
    189       0.00000                       9.855756           9.345170             1.763416
    190       0.00000                       9.855756           9.345170             0.000000
    191       0.00000                      10.057097          10.525501             1.180330
    192       0.00000                      10.057097          10.525501             0.000000
    193       0.00000                      10.057097          10.922521             0.397020
    194       0.00000                      10.057097          10.922521             0.000000

  Highest occupied state (VBM) at     -5.95589238 eV
  | Occupation number:      1.00000000

  Lowest unoccupied state (CBM) at    -4.50403549 eV
  | Occupation number:      0.00000000

  Overall HOMO-LUMO gap:      1.45185689 eV.

  Spin-orbit coupling                                     :  max(cpu_time)    wall_clock(cpu1)
  | Computing matrix elements for SOC operator            :          0.129               0.131
  | Constructing second-variational Hamiltonian           :          0.010               0.013
  | Diagonalizing second-variational Hamiltonian          :          0.006               0.008
  | Syncing data and calculating occupations              :          0.000               0.000
  | Writing out data, calculating band gaps, etc.         :          0.001               0.001
  | Total SOC time                                        :          0.147               0.154

  Partial memory accounting:
  | Current value for overall tracked memory usage on task 0  :           0.285 MB
  | Peak value for overall tracked memory usage on task 0     :           1.278 MB after allocating +potential_shell
  | Largest tracked array allocation on task 0 so far         :           0.360 MB  when allocating gradient_basis_wave
  Note:  These values currently only include a subset of arrays which are explicitly tracked.
  The "true" memory usage will be greater.
 ------------------------------------------------------------

------------------------------------------------------------------------------
  Final output of selected total energy values:

  The following output summarizes some interesting total energy values
  at the end of a run (AFTER all relaxation, molecular dynamics, etc.).

  | Total energy of the DFT / Hartree-Fock s.c.f. calculation      :       -1070660.622720706 eV
  | Final zero-broadening corrected energy (caution - metals only) :       -1070660.622720706 eV
  | Total energy after non-SC SOC correction (DO NOT USE)          :       -1070665.639262747 eV
  | For reference only, the value of 1 Hartree used in FHI-aims is :             27.211384500 eV

  Before relying on these values, please be sure to understand exactly which
  total energy value is referred to by a given number. Different objects may
  all carry the same name 'total energy'. Definitions:

  Total energy of the DFT / Hartree-Fock s.c.f. calculation:
  | Note that this energy does not include ANY quantities calculated after the
  | s.c.f. cycle, in particular not ANY RPA, MP2, etc. many-body perturbation terms.

  Final zero-broadening corrected energy:
  | For metallic systems only, a broadening of the occupation numbers at the Fermi
  | level can be extrapolated back to zero broadening by an electron-gas inspired
  | formula. For all systems that are not real metals, this value can be
  | meaningless and should be avoided.

------------------------------------------------------------------------------
  Methods described in the following list of references were used in this FHI-aims run.
  If you publish the results, please make sure to cite these reference if they apply.
  FHI-aims is an academic code, and for our developers (often, Ph.D. students
  and postdocs), scientific credit in the community is essential.
  Thank you for helping us!

  For any use of FHI-aims, please cite:

    Volker Blum, Ralf Gehrke, Felix Hanke, Paula Havu, Ville Havu,
    Xinguo Ren, Karsten Reuter, and Matthias Scheffler
    'Ab initio molecular simulations with numeric atom-centered orbitals'
    Computer Physics Communications 180, 2175-2196 (2009)
    http://dx.doi.org/10.1016/j.cpc.2009.06.022


  For second-variational spin-orbit coupling used in your run, please cite:

    William P. Huhn and Volker Blum,
    'One-hundred-three compound band-structure benchmark of post-self-consistent'
    'spin-orbit coupling treatments in density functional theory'
    Phys. Rev. Materials 1, 033803 (2017).


  The scalable eigensolver library ELPA was used in your run.
  ELPA is essential especially for large systems on hundreds or thousands of CPUs.
  For ELPA, please cite:

    Andreas Marek, Volker Blum, Rainer Johanni, Ville Havu, Bruno Lang,
    Thomas Auckenthaler, Alexander Heinecke, Hans-Joachim Bungartz, and Hermann Lederer,
    'The ELPA Library - Scalable Parallel Eigenvalue Solutions
    for Electronic Structure Theory and Computational Science'
    The Journal of Physics: Condensed Matter 26, 213201 (2014).
    http://dx.doi.org/10.1088/0953-8984/26/21/213201


  The ELSI infrastructure was used in your run to solve the Kohn-Sham electronic structure.
  Please check out http://elsi-interchange.org to learn more.
  If scalability is important for your project, please acknowledge ELSI by citing:

    V. W-z. Yu, F. Corsetti, A. Garcia, W. P. Huhn, M. Jacquelin, W. Jia,
    B. Lange, L. Lin, J. Lu, W. Mi, A. Seifitokaldani, A. Vazquez-Mayagoitia,
    C. Yang, H. Yang, and V. Blum
    'ELSI: A unified software interface for Kohn-Sham electronic structure solvers'
    Computer Physics Communications 222, 267-285 (2018).
    http://dx.doi.org/10.1016/j.cpc.2017.09.007


  For the real-space grid partitioning and parallelization used in this calculation, please cite:

    Ville Havu, Volker Blum, Paula Havu, and Matthias Scheffler,
    'Efficient O(N) integration for all-electron electronic structure calculation'
    'using numerically tabulated basis functions'
    Journal of Computational Physics 228, 8367-8379 (2009).
    http://dx.doi.org/10.1016/j.jcp.2009.08.008

  Of course, there are many other important community references, e.g., those cited in the
  above references. Our list is limited to references that describe implementations in the
  FHI-aims code. The reason is purely practical (length of this list) - please credit others as well.

------------------------------------------------------------
          Leaving FHI-aims.
          Date     :  20171223, Time     :  122601.637

          Computational steps:
          | Number of self-consistency cycles          :           30
          | Number of SCF (re)initializations          :            3
          | Number of relaxation steps                 :            2

          Detailed time accounting                     :  max(cpu_time)    wall_clock(cpu1)
          | Total time                                 :        3.345 s           3.491 s
          | Preparation time                           :        0.274 s           0.281 s
          | Boundary condition initalization           :        0.000 s           0.000 s
          | Grid partitioning                          :        0.063 s           0.066 s
          | Preloading free-atom quantities on grid    :        0.025 s           0.024 s
          | Free-atom superposition energy             :        0.020 s           0.020 s
          | Total time for integrations                :        1.093 s           1.136 s
          | Total time for solution of K.-S. equations :        0.089 s           0.091 s
          | Total time for EV reorthonormalization     :        0.004 s           0.004 s
          | Total time for density & force components  :        0.920 s           0.956 s
          | Total time for mixing                      :        0.031 s           0.029 s
          | Total time for Hartree multipole update    :        0.077 s           0.078 s
          | Total time for Hartree multipole sum       :        0.491 s           0.505 s
          | Total time for total energy evaluation     :        0.005 s           0.003 s
          | Total time for scaled ZORA corrections     :        0.000 s           0.000 s
          | Total time for perturbative SOC            :        0.147 s           0.154 s

          Partial memory accounting:
          | Residual value for overall tracked memory usage across tasks :           0.000 MB (should be 0.000 MB)
          | Peak values for overall tracked memory usage (after allocating +potential_shell):
          |   Minimum:        1.249 MB (on task 4)
          |   Maximum:        1.278 MB (on task 1)
          |   Average:        1.260 MB
          | Largest tracked array allocation (gradient_basis_wave):
          |   Minimum:        0.360 MB (on task 1)
          |   Maximum:        0.367 MB (on task 2)
          |   Average:        0.363 MB
          Note:  These values currently only include a subset of arrays which are explicitly tracked.
          The "true" memory usage will be greater.

          Have a nice day.
------------------------------------------------------------
