  MPI-parallelism will be employed.
------------------------------------------------------------
          Invoking FHI-aims ...
          Version 161201
          Compiled on 2016/12/02 at 03:16:31 on host hydra01.

          When using FHI-aims, please cite the following reference:

          Volker Blum, Ralf Gehrke, Felix Hanke, Paula Havu,
          Ville Havu, Xinguo Ren, Karsten Reuter, and Matthias Scheffler,
          'Ab Initio Molecular Simulations with Numeric Atom-Centered Orbitals',
          Computer Physics Communications 180, 2175-2196 (2009)

          For any questions about FHI-aims, please visit the aimsclub website
          with its forums and wiki. Contributions to both the forums and the
          wiki are warmly encouraged - they are for you, and everyone is welcome there.

------------------------------------------------------------



  Date     :  20161204, Time     :  164026.053
  Time zero on CPU 1             :   0.376022000000000E+00  s.
  Internal wall clock time zero  :           250101626.053  s.

  FHI-aims created a unique identifier for this run for later identification
  aims_uuid : 29EBEEC0-F58C-431E-AF9F-8FA04A00E1EC

  Using      240 parallel tasks.
  Task        0 on host hy0314 reporting.
  Task        1 on host hy0314 reporting.
  Task        2 on host hy0314 reporting.
  Task        3 on host hy0314 reporting.
  Task        4 on host hy0314 reporting.
  Task        5 on host hy0314 reporting.
  Task        6 on host hy0314 reporting.
  Task        7 on host hy0314 reporting.
  Task        8 on host hy0314 reporting.
  Task        9 on host hy0314 reporting.
  Task       10 on host hy0314 reporting.
  Task       11 on host hy0314 reporting.
  Task       12 on host hy0314 reporting.
  Task       13 on host hy0314 reporting.
  Task       14 on host hy0314 reporting.
  Task       15 on host hy0314 reporting.
  Task       16 on host hy0038 reporting.
  Task       17 on host hy0038 reporting.
  Task       18 on host hy0038 reporting.
  Task       19 on host hy0038 reporting.
  Task       20 on host hy0038 reporting.
  Task       21 on host hy0038 reporting.
  Task       22 on host hy0038 reporting.
  Task       23 on host hy0038 reporting.
  Task       24 on host hy0038 reporting.
  Task       25 on host hy0038 reporting.
  Task       26 on host hy0038 reporting.
  Task       27 on host hy0038 reporting.
  Task       28 on host hy0038 reporting.
  Task       29 on host hy0038 reporting.
  Task       30 on host hy0038 reporting.
  Task       31 on host hy0038 reporting.
  Task       32 on host hy0077 reporting.
  Task       33 on host hy0077 reporting.
  Task       34 on host hy0077 reporting.
  Task       35 on host hy0077 reporting.
  Task       36 on host hy0077 reporting.
  Task       37 on host hy0077 reporting.
  Task       38 on host hy0077 reporting.
  Task       39 on host hy0077 reporting.
  Task       40 on host hy0077 reporting.
  Task       41 on host hy0077 reporting.
  Task       42 on host hy0077 reporting.
  Task       43 on host hy0077 reporting.
  Task       44 on host hy0077 reporting.
  Task       45 on host hy0077 reporting.
  Task       46 on host hy0077 reporting.
  Task       47 on host hy0077 reporting.
  Task       48 on host hy0429 reporting.
  Task       49 on host hy0429 reporting.
  Task       50 on host hy0429 reporting.
  Task       51 on host hy0429 reporting.
  Task       52 on host hy0429 reporting.
  Task       53 on host hy0429 reporting.
  Task       54 on host hy0429 reporting.
  Task       55 on host hy0429 reporting.
  Task       56 on host hy0429 reporting.
  Task       57 on host hy0429 reporting.
  Task       58 on host hy0429 reporting.
  Task       59 on host hy0429 reporting.
  Task       60 on host hy0429 reporting.
  Task       61 on host hy0429 reporting.
  Task       62 on host hy0429 reporting.
  Task       63 on host hy0429 reporting.
  Task       64 on host hy0469 reporting.
  Task       65 on host hy0469 reporting.
  Task       66 on host hy0469 reporting.
  Task       67 on host hy0469 reporting.
  Task       68 on host hy0469 reporting.
  Task       69 on host hy0469 reporting.
  Task       70 on host hy0469 reporting.
  Task       71 on host hy0469 reporting.
  Task       72 on host hy0469 reporting.
  Task       73 on host hy0469 reporting.
  Task       74 on host hy0469 reporting.
  Task       75 on host hy0469 reporting.
  Task       76 on host hy0469 reporting.
  Task       77 on host hy0469 reporting.
  Task       78 on host hy0469 reporting.
  Task       79 on host hy0469 reporting.
  Task       80 on host hy0331 reporting.
  Task       81 on host hy0331 reporting.
  Task       82 on host hy0331 reporting.
  Task       83 on host hy0331 reporting.
  Task       84 on host hy0331 reporting.
  Task       85 on host hy0331 reporting.
  Task       86 on host hy0331 reporting.
  Task       87 on host hy0331 reporting.
  Task       88 on host hy0331 reporting.
  Task       89 on host hy0331 reporting.
  Task       90 on host hy0331 reporting.
  Task       91 on host hy0331 reporting.
  Task       92 on host hy0331 reporting.
  Task       93 on host hy0331 reporting.
  Task       94 on host hy0331 reporting.
  Task       95 on host hy0331 reporting.
  Task       96 on host hy0334 reporting.
  Task       97 on host hy0334 reporting.
  Task       98 on host hy0334 reporting.
  Task       99 on host hy0334 reporting.
  Task      100 on host hy0334 reporting.
  Task      101 on host hy0334 reporting.
  Task      102 on host hy0334 reporting.
  Task      103 on host hy0334 reporting.
  Task      104 on host hy0334 reporting.
  Task      105 on host hy0334 reporting.
  Task      106 on host hy0334 reporting.
  Task      107 on host hy0334 reporting.
  Task      108 on host hy0334 reporting.
  Task      109 on host hy0334 reporting.
  Task      110 on host hy0334 reporting.
  Task      111 on host hy0334 reporting.
  Task      112 on host hy0163 reporting.
  Task      113 on host hy0163 reporting.
  Task      114 on host hy0163 reporting.
  Task      115 on host hy0163 reporting.
  Task      116 on host hy0163 reporting.
  Task      117 on host hy0163 reporting.
  Task      118 on host hy0163 reporting.
  Task      119 on host hy0163 reporting.
  Task      120 on host hy0163 reporting.
  Task      121 on host hy0163 reporting.
  Task      122 on host hy0163 reporting.
  Task      123 on host hy0163 reporting.
  Task      124 on host hy0163 reporting.
  Task      125 on host hy0163 reporting.
  Task      126 on host hy0163 reporting.
  Task      127 on host hy0163 reporting.
  Task      128 on host hy0582 reporting.
  Task      129 on host hy0582 reporting.
  Task      130 on host hy0582 reporting.
  Task      131 on host hy0582 reporting.
  Task      132 on host hy0582 reporting.
  Task      133 on host hy0582 reporting.
  Task      134 on host hy0582 reporting.
  Task      135 on host hy0582 reporting.
  Task      136 on host hy0582 reporting.
  Task      137 on host hy0582 reporting.
  Task      138 on host hy0582 reporting.
  Task      139 on host hy0582 reporting.
  Task      140 on host hy0582 reporting.
  Task      141 on host hy0582 reporting.
  Task      142 on host hy0582 reporting.
  Task      143 on host hy0582 reporting.
  Task      144 on host hy0165 reporting.
  Task      145 on host hy0165 reporting.
  Task      146 on host hy0165 reporting.
  Task      147 on host hy0165 reporting.
  Task      148 on host hy0165 reporting.
  Task      149 on host hy0165 reporting.
  Task      150 on host hy0165 reporting.
  Task      151 on host hy0165 reporting.
  Task      152 on host hy0165 reporting.
  Task      153 on host hy0165 reporting.
  Task      154 on host hy0165 reporting.
  Task      155 on host hy0165 reporting.
  Task      156 on host hy0165 reporting.
  Task      157 on host hy0165 reporting.
  Task      158 on host hy0165 reporting.
  Task      159 on host hy0165 reporting.
  Task      160 on host hy0378 reporting.
  Task      161 on host hy0378 reporting.
  Task      162 on host hy0378 reporting.
  Task      163 on host hy0378 reporting.
  Task      164 on host hy0378 reporting.
  Task      165 on host hy0378 reporting.
  Task      166 on host hy0378 reporting.
  Task      167 on host hy0378 reporting.
  Task      168 on host hy0378 reporting.
  Task      169 on host hy0378 reporting.
  Task      170 on host hy0378 reporting.
  Task      171 on host hy0378 reporting.
  Task      172 on host hy0378 reporting.
  Task      173 on host hy0378 reporting.
  Task      174 on host hy0378 reporting.
  Task      175 on host hy0378 reporting.
  Task      176 on host hy0448 reporting.
  Task      177 on host hy0448 reporting.
  Task      178 on host hy0448 reporting.
  Task      179 on host hy0448 reporting.
  Task      180 on host hy0448 reporting.
  Task      181 on host hy0448 reporting.
  Task      182 on host hy0448 reporting.
  Task      183 on host hy0448 reporting.
  Task      184 on host hy0448 reporting.
  Task      185 on host hy0448 reporting.
  Task      186 on host hy0448 reporting.
  Task      187 on host hy0448 reporting.
  Task      188 on host hy0448 reporting.
  Task      189 on host hy0448 reporting.
  Task      190 on host hy0448 reporting.
  Task      191 on host hy0448 reporting.
  Task      192 on host hy0068 reporting.
  Task      193 on host hy0068 reporting.
  Task      194 on host hy0068 reporting.
  Task      195 on host hy0068 reporting.
  Task      196 on host hy0068 reporting.
  Task      197 on host hy0068 reporting.
  Task      198 on host hy0068 reporting.
  Task      199 on host hy0068 reporting.
  Task      200 on host hy0068 reporting.
  Task      201 on host hy0068 reporting.
  Task      202 on host hy0068 reporting.
  Task      203 on host hy0068 reporting.
  Task      204 on host hy0068 reporting.
  Task      205 on host hy0068 reporting.
  Task      206 on host hy0068 reporting.
  Task      207 on host hy0068 reporting.
  Task      208 on host hy0137 reporting.
  Task      209 on host hy0137 reporting.
  Task      210 on host hy0137 reporting.
  Task      211 on host hy0137 reporting.
  Task      212 on host hy0137 reporting.
  Task      213 on host hy0137 reporting.
  Task      214 on host hy0137 reporting.
  Task      215 on host hy0137 reporting.
  Task      216 on host hy0137 reporting.
  Task      217 on host hy0137 reporting.
  Task      218 on host hy0137 reporting.
  Task      219 on host hy0137 reporting.
  Task      220 on host hy0137 reporting.
  Task      221 on host hy0137 reporting.
  Task      222 on host hy0137 reporting.
  Task      223 on host hy0137 reporting.
  Task      224 on host hy0208 reporting.
  Task      225 on host hy0208 reporting.
  Task      226 on host hy0208 reporting.
  Task      227 on host hy0208 reporting.
  Task      228 on host hy0208 reporting.
  Task      229 on host hy0208 reporting.
  Task      230 on host hy0208 reporting.
  Task      231 on host hy0208 reporting.
  Task      232 on host hy0208 reporting.
  Task      233 on host hy0208 reporting.
  Task      234 on host hy0208 reporting.
  Task      235 on host hy0208 reporting.
  Task      236 on host hy0208 reporting.
  Task      237 on host hy0208 reporting.
  Task      238 on host hy0208 reporting.
  Task      239 on host hy0208 reporting.

  Performing system and environment tests:
  | Environment variable OMP_NUM_THREADS correctly set to 1.
  | Maximum stacksize for task 0: unlimited
  | Maximum stacksize for task 1: unlimited
  | Maximum stacksize for task 2: unlimited
  | Maximum stacksize for task 3: unlimited
  | Maximum stacksize for task 4: unlimited
  | Maximum stacksize for task 5: unlimited
  | Maximum stacksize for task 6: unlimited
  | Maximum stacksize for task 7: unlimited
  | Maximum stacksize for task 8: unlimited
  | Maximum stacksize for task 9: unlimited
  | Maximum stacksize for task 10: unlimited
  | Maximum stacksize for task 11: unlimited
  | Maximum stacksize for task 12: unlimited
  | Maximum stacksize for task 13: unlimited
  | Maximum stacksize for task 14: unlimited
  | Maximum stacksize for task 15: unlimited
  | Maximum stacksize for task 16: unlimited
  | Maximum stacksize for task 17: unlimited
  | Maximum stacksize for task 18: unlimited
  | Maximum stacksize for task 19: unlimited
  | Maximum stacksize for task 20: unlimited
  | Maximum stacksize for task 21: unlimited
  | Maximum stacksize for task 22: unlimited
  | Maximum stacksize for task 23: unlimited
  | Maximum stacksize for task 24: unlimited
  | Maximum stacksize for task 25: unlimited
  | Maximum stacksize for task 26: unlimited
  | Maximum stacksize for task 27: unlimited
  | Maximum stacksize for task 28: unlimited
  | Maximum stacksize for task 29: unlimited
  | Maximum stacksize for task 30: unlimited
  | Maximum stacksize for task 31: unlimited
  | Maximum stacksize for task 32: unlimited
  | Maximum stacksize for task 33: unlimited
  | Maximum stacksize for task 34: unlimited
  | Maximum stacksize for task 35: unlimited
  | Maximum stacksize for task 36: unlimited
  | Maximum stacksize for task 37: unlimited
  | Maximum stacksize for task 38: unlimited
  | Maximum stacksize for task 39: unlimited
  | Maximum stacksize for task 40: unlimited
  | Maximum stacksize for task 41: unlimited
  | Maximum stacksize for task 42: unlimited
  | Maximum stacksize for task 43: unlimited
  | Maximum stacksize for task 44: unlimited
  | Maximum stacksize for task 45: unlimited
  | Maximum stacksize for task 46: unlimited
  | Maximum stacksize for task 47: unlimited
  | Maximum stacksize for task 48: unlimited
  | Maximum stacksize for task 49: unlimited
  | Maximum stacksize for task 50: unlimited
  | Maximum stacksize for task 51: unlimited
  | Maximum stacksize for task 52: unlimited
  | Maximum stacksize for task 53: unlimited
  | Maximum stacksize for task 54: unlimited
  | Maximum stacksize for task 55: unlimited
  | Maximum stacksize for task 56: unlimited
  | Maximum stacksize for task 57: unlimited
  | Maximum stacksize for task 58: unlimited
  | Maximum stacksize for task 59: unlimited
  | Maximum stacksize for task 60: unlimited
  | Maximum stacksize for task 61: unlimited
  | Maximum stacksize for task 62: unlimited
  | Maximum stacksize for task 63: unlimited
  | Maximum stacksize for task 64: unlimited
  | Maximum stacksize for task 65: unlimited
  | Maximum stacksize for task 66: unlimited
  | Maximum stacksize for task 67: unlimited
  | Maximum stacksize for task 68: unlimited
  | Maximum stacksize for task 69: unlimited
  | Maximum stacksize for task 70: unlimited
  | Maximum stacksize for task 71: unlimited
  | Maximum stacksize for task 72: unlimited
  | Maximum stacksize for task 73: unlimited
  | Maximum stacksize for task 74: unlimited
  | Maximum stacksize for task 75: unlimited
  | Maximum stacksize for task 76: unlimited
  | Maximum stacksize for task 77: unlimited
  | Maximum stacksize for task 78: unlimited
  | Maximum stacksize for task 79: unlimited
  | Maximum stacksize for task 80: unlimited
  | Maximum stacksize for task 81: unlimited
  | Maximum stacksize for task 82: unlimited
  | Maximum stacksize for task 83: unlimited
  | Maximum stacksize for task 84: unlimited
  | Maximum stacksize for task 85: unlimited
  | Maximum stacksize for task 86: unlimited
  | Maximum stacksize for task 87: unlimited
  | Maximum stacksize for task 88: unlimited
  | Maximum stacksize for task 89: unlimited
  | Maximum stacksize for task 90: unlimited
  | Maximum stacksize for task 91: unlimited
  | Maximum stacksize for task 92: unlimited
  | Maximum stacksize for task 93: unlimited
  | Maximum stacksize for task 94: unlimited
  | Maximum stacksize for task 95: unlimited
  | Maximum stacksize for task 96: unlimited
  | Maximum stacksize for task 97: unlimited
  | Maximum stacksize for task 98: unlimited
  | Maximum stacksize for task 99: unlimited
  | Maximum stacksize for task 100: unlimited
  | Maximum stacksize for task 101: unlimited
  | Maximum stacksize for task 102: unlimited
  | Maximum stacksize for task 103: unlimited
  | Maximum stacksize for task 104: unlimited
  | Maximum stacksize for task 105: unlimited
  | Maximum stacksize for task 106: unlimited
  | Maximum stacksize for task 107: unlimited
  | Maximum stacksize for task 108: unlimited
  | Maximum stacksize for task 109: unlimited
  | Maximum stacksize for task 110: unlimited
  | Maximum stacksize for task 111: unlimited
  | Maximum stacksize for task 112: unlimited
  | Maximum stacksize for task 113: unlimited
  | Maximum stacksize for task 114: unlimited
  | Maximum stacksize for task 115: unlimited
  | Maximum stacksize for task 116: unlimited
  | Maximum stacksize for task 117: unlimited
  | Maximum stacksize for task 118: unlimited
  | Maximum stacksize for task 119: unlimited
  | Maximum stacksize for task 120: unlimited
  | Maximum stacksize for task 121: unlimited
  | Maximum stacksize for task 122: unlimited
  | Maximum stacksize for task 123: unlimited
  | Maximum stacksize for task 124: unlimited
  | Maximum stacksize for task 125: unlimited
  | Maximum stacksize for task 126: unlimited
  | Maximum stacksize for task 127: unlimited
  | Maximum stacksize for task 128: unlimited
  | Maximum stacksize for task 129: unlimited
  | Maximum stacksize for task 130: unlimited
  | Maximum stacksize for task 131: unlimited
  | Maximum stacksize for task 132: unlimited
  | Maximum stacksize for task 133: unlimited
  | Maximum stacksize for task 134: unlimited
  | Maximum stacksize for task 135: unlimited
  | Maximum stacksize for task 136: unlimited
  | Maximum stacksize for task 137: unlimited
  | Maximum stacksize for task 138: unlimited
  | Maximum stacksize for task 139: unlimited
  | Maximum stacksize for task 140: unlimited
  | Maximum stacksize for task 141: unlimited
  | Maximum stacksize for task 142: unlimited
  | Maximum stacksize for task 143: unlimited
  | Maximum stacksize for task 144: unlimited
  | Maximum stacksize for task 145: unlimited
  | Maximum stacksize for task 146: unlimited
  | Maximum stacksize for task 147: unlimited
  | Maximum stacksize for task 148: unlimited
  | Maximum stacksize for task 149: unlimited
  | Maximum stacksize for task 150: unlimited
  | Maximum stacksize for task 151: unlimited
  | Maximum stacksize for task 152: unlimited
  | Maximum stacksize for task 153: unlimited
  | Maximum stacksize for task 154: unlimited
  | Maximum stacksize for task 155: unlimited
  | Maximum stacksize for task 156: unlimited
  | Maximum stacksize for task 157: unlimited
  | Maximum stacksize for task 158: unlimited
  | Maximum stacksize for task 159: unlimited
  | Maximum stacksize for task 160: unlimited
  | Maximum stacksize for task 161: unlimited
  | Maximum stacksize for task 162: unlimited
  | Maximum stacksize for task 163: unlimited
  | Maximum stacksize for task 164: unlimited
  | Maximum stacksize for task 165: unlimited
  | Maximum stacksize for task 166: unlimited
  | Maximum stacksize for task 167: unlimited
  | Maximum stacksize for task 168: unlimited
  | Maximum stacksize for task 169: unlimited
  | Maximum stacksize for task 170: unlimited
  | Maximum stacksize for task 171: unlimited
  | Maximum stacksize for task 172: unlimited
  | Maximum stacksize for task 173: unlimited
  | Maximum stacksize for task 174: unlimited
  | Maximum stacksize for task 175: unlimited
  | Maximum stacksize for task 176: unlimited
  | Maximum stacksize for task 177: unlimited
  | Maximum stacksize for task 178: unlimited
  | Maximum stacksize for task 179: unlimited
  | Maximum stacksize for task 180: unlimited
  | Maximum stacksize for task 181: unlimited
  | Maximum stacksize for task 182: unlimited
  | Maximum stacksize for task 183: unlimited
  | Maximum stacksize for task 184: unlimited
  | Maximum stacksize for task 185: unlimited
  | Maximum stacksize for task 186: unlimited
  | Maximum stacksize for task 187: unlimited
  | Maximum stacksize for task 188: unlimited
  | Maximum stacksize for task 189: unlimited
  | Maximum stacksize for task 190: unlimited
  | Maximum stacksize for task 191: unlimited
  | Maximum stacksize for task 192: unlimited
  | Maximum stacksize for task 193: unlimited
  | Maximum stacksize for task 194: unlimited
  | Maximum stacksize for task 195: unlimited
  | Maximum stacksize for task 196: unlimited
  | Maximum stacksize for task 197: unlimited
  | Maximum stacksize for task 198: unlimited
  | Maximum stacksize for task 199: unlimited
  | Maximum stacksize for task 200: unlimited
  | Maximum stacksize for task 201: unlimited
  | Maximum stacksize for task 202: unlimited
  | Maximum stacksize for task 203: unlimited
  | Maximum stacksize for task 204: unlimited
  | Maximum stacksize for task 205: unlimited
  | Maximum stacksize for task 206: unlimited
  | Maximum stacksize for task 207: unlimited
  | Maximum stacksize for task 208: unlimited
  | Maximum stacksize for task 209: unlimited
  | Maximum stacksize for task 210: unlimited
  | Maximum stacksize for task 211: unlimited
  | Maximum stacksize for task 212: unlimited
  | Maximum stacksize for task 213: unlimited
  | Maximum stacksize for task 214: unlimited
  | Maximum stacksize for task 215: unlimited
  | Maximum stacksize for task 216: unlimited
  | Maximum stacksize for task 217: unlimited
  | Maximum stacksize for task 218: unlimited
  | Maximum stacksize for task 219: unlimited
  | Maximum stacksize for task 220: unlimited
  | Maximum stacksize for task 221: unlimited
  | Maximum stacksize for task 222: unlimited
  | Maximum stacksize for task 223: unlimited
  | Maximum stacksize for task 224: unlimited
  | Maximum stacksize for task 225: unlimited
  | Maximum stacksize for task 226: unlimited
  | Maximum stacksize for task 227: unlimited
  | Maximum stacksize for task 228: unlimited
  | Maximum stacksize for task 229: unlimited
  | Maximum stacksize for task 230: unlimited
  | Maximum stacksize for task 231: unlimited
  | Maximum stacksize for task 232: unlimited
  | Maximum stacksize for task 233: unlimited
  | Maximum stacksize for task 234: unlimited
  | Maximum stacksize for task 235: unlimited
  | Maximum stacksize for task 236: unlimited
  | Maximum stacksize for task 237: unlimited
  | Maximum stacksize for task 238: unlimited
  | Maximum stacksize for task 239: unlimited
  | Current stacksize for task 0: unlimited
  | Current stacksize for task 1: unlimited
  | Current stacksize for task 2: unlimited
  | Current stacksize for task 3: unlimited
  | Current stacksize for task 4: unlimited
  | Current stacksize for task 5: unlimited
  | Current stacksize for task 6: unlimited
  | Current stacksize for task 7: unlimited
  | Current stacksize for task 8: unlimited
  | Current stacksize for task 9: unlimited
  | Current stacksize for task 10: unlimited
  | Current stacksize for task 11: unlimited
  | Current stacksize for task 12: unlimited
  | Current stacksize for task 13: unlimited
  | Current stacksize for task 14: unlimited
  | Current stacksize for task 15: unlimited
  | Current stacksize for task 16: unlimited
  | Current stacksize for task 17: unlimited
  | Current stacksize for task 18: unlimited
  | Current stacksize for task 19: unlimited
  | Current stacksize for task 20: unlimited
  | Current stacksize for task 21: unlimited
  | Current stacksize for task 22: unlimited
  | Current stacksize for task 23: unlimited
  | Current stacksize for task 24: unlimited
  | Current stacksize for task 25: unlimited
  | Current stacksize for task 26: unlimited
  | Current stacksize for task 27: unlimited
  | Current stacksize for task 28: unlimited
  | Current stacksize for task 29: unlimited
  | Current stacksize for task 30: unlimited
  | Current stacksize for task 31: unlimited
  | Current stacksize for task 32: unlimited
  | Current stacksize for task 33: unlimited
  | Current stacksize for task 34: unlimited
  | Current stacksize for task 35: unlimited
  | Current stacksize for task 36: unlimited
  | Current stacksize for task 37: unlimited
  | Current stacksize for task 38: unlimited
  | Current stacksize for task 39: unlimited
  | Current stacksize for task 40: unlimited
  | Current stacksize for task 41: unlimited
  | Current stacksize for task 42: unlimited
  | Current stacksize for task 43: unlimited
  | Current stacksize for task 44: unlimited
  | Current stacksize for task 45: unlimited
  | Current stacksize for task 46: unlimited
  | Current stacksize for task 47: unlimited
  | Current stacksize for task 48: unlimited
  | Current stacksize for task 49: unlimited
  | Current stacksize for task 50: unlimited
  | Current stacksize for task 51: unlimited
  | Current stacksize for task 52: unlimited
  | Current stacksize for task 53: unlimited
  | Current stacksize for task 54: unlimited
  | Current stacksize for task 55: unlimited
  | Current stacksize for task 56: unlimited
  | Current stacksize for task 57: unlimited
  | Current stacksize for task 58: unlimited
  | Current stacksize for task 59: unlimited
  | Current stacksize for task 60: unlimited
  | Current stacksize for task 61: unlimited
  | Current stacksize for task 62: unlimited
  | Current stacksize for task 63: unlimited
  | Current stacksize for task 64: unlimited
  | Current stacksize for task 65: unlimited
  | Current stacksize for task 66: unlimited
  | Current stacksize for task 67: unlimited
  | Current stacksize for task 68: unlimited
  | Current stacksize for task 69: unlimited
  | Current stacksize for task 70: unlimited
  | Current stacksize for task 71: unlimited
  | Current stacksize for task 72: unlimited
  | Current stacksize for task 73: unlimited
  | Current stacksize for task 74: unlimited
  | Current stacksize for task 75: unlimited
  | Current stacksize for task 76: unlimited
  | Current stacksize for task 77: unlimited
  | Current stacksize for task 78: unlimited
  | Current stacksize for task 79: unlimited
  | Current stacksize for task 80: unlimited
  | Current stacksize for task 81: unlimited
  | Current stacksize for task 82: unlimited
  | Current stacksize for task 83: unlimited
  | Current stacksize for task 84: unlimited
  | Current stacksize for task 85: unlimited
  | Current stacksize for task 86: unlimited
  | Current stacksize for task 87: unlimited
  | Current stacksize for task 88: unlimited
  | Current stacksize for task 89: unlimited
  | Current stacksize for task 90: unlimited
  | Current stacksize for task 91: unlimited
  | Current stacksize for task 92: unlimited
  | Current stacksize for task 93: unlimited
  | Current stacksize for task 94: unlimited
  | Current stacksize for task 95: unlimited
  | Current stacksize for task 96: unlimited
  | Current stacksize for task 97: unlimited
  | Current stacksize for task 98: unlimited
  | Current stacksize for task 99: unlimited
  | Current stacksize for task 100: unlimited
  | Current stacksize for task 101: unlimited
  | Current stacksize for task 102: unlimited
  | Current stacksize for task 103: unlimited
  | Current stacksize for task 104: unlimited
  | Current stacksize for task 105: unlimited
  | Current stacksize for task 106: unlimited
  | Current stacksize for task 107: unlimited
  | Current stacksize for task 108: unlimited
  | Current stacksize for task 109: unlimited
  | Current stacksize for task 110: unlimited
  | Current stacksize for task 111: unlimited
  | Current stacksize for task 112: unlimited
  | Current stacksize for task 113: unlimited
  | Current stacksize for task 114: unlimited
  | Current stacksize for task 115: unlimited
  | Current stacksize for task 116: unlimited
  | Current stacksize for task 117: unlimited
  | Current stacksize for task 118: unlimited
  | Current stacksize for task 119: unlimited
  | Current stacksize for task 120: unlimited
  | Current stacksize for task 121: unlimited
  | Current stacksize for task 122: unlimited
  | Current stacksize for task 123: unlimited
  | Current stacksize for task 124: unlimited
  | Current stacksize for task 125: unlimited
  | Current stacksize for task 126: unlimited
  | Current stacksize for task 127: unlimited
  | Current stacksize for task 128: unlimited
  | Current stacksize for task 129: unlimited
  | Current stacksize for task 130: unlimited
  | Current stacksize for task 131: unlimited
  | Current stacksize for task 132: unlimited
  | Current stacksize for task 133: unlimited
  | Current stacksize for task 134: unlimited
  | Current stacksize for task 135: unlimited
  | Current stacksize for task 136: unlimited
  | Current stacksize for task 137: unlimited
  | Current stacksize for task 138: unlimited
  | Current stacksize for task 139: unlimited
  | Current stacksize for task 140: unlimited
  | Current stacksize for task 141: unlimited
  | Current stacksize for task 142: unlimited
  | Current stacksize for task 143: unlimited
  | Current stacksize for task 144: unlimited
  | Current stacksize for task 145: unlimited
  | Current stacksize for task 146: unlimited
  | Current stacksize for task 147: unlimited
  | Current stacksize for task 148: unlimited
  | Current stacksize for task 149: unlimited
  | Current stacksize for task 150: unlimited
  | Current stacksize for task 151: unlimited
  | Current stacksize for task 152: unlimited
  | Current stacksize for task 153: unlimited
  | Current stacksize for task 154: unlimited
  | Current stacksize for task 155: unlimited
  | Current stacksize for task 156: unlimited
  | Current stacksize for task 157: unlimited
  | Current stacksize for task 158: unlimited
  | Current stacksize for task 159: unlimited
  | Current stacksize for task 160: unlimited
  | Current stacksize for task 161: unlimited
  | Current stacksize for task 162: unlimited
  | Current stacksize for task 163: unlimited
  | Current stacksize for task 164: unlimited
  | Current stacksize for task 165: unlimited
  | Current stacksize for task 166: unlimited
  | Current stacksize for task 167: unlimited
  | Current stacksize for task 168: unlimited
  | Current stacksize for task 169: unlimited
  | Current stacksize for task 170: unlimited
  | Current stacksize for task 171: unlimited
  | Current stacksize for task 172: unlimited
  | Current stacksize for task 173: unlimited
  | Current stacksize for task 174: unlimited
  | Current stacksize for task 175: unlimited
  | Current stacksize for task 176: unlimited
  | Current stacksize for task 177: unlimited
  | Current stacksize for task 178: unlimited
  | Current stacksize for task 179: unlimited
  | Current stacksize for task 180: unlimited
  | Current stacksize for task 181: unlimited
  | Current stacksize for task 182: unlimited
  | Current stacksize for task 183: unlimited
  | Current stacksize for task 184: unlimited
  | Current stacksize for task 185: unlimited
  | Current stacksize for task 186: unlimited
  | Current stacksize for task 187: unlimited
  | Current stacksize for task 188: unlimited
  | Current stacksize for task 189: unlimited
  | Current stacksize for task 190: unlimited
  | Current stacksize for task 191: unlimited
  | Current stacksize for task 192: unlimited
  | Current stacksize for task 193: unlimited
  | Current stacksize for task 194: unlimited
  | Current stacksize for task 195: unlimited
  | Current stacksize for task 196: unlimited
  | Current stacksize for task 197: unlimited
  | Current stacksize for task 198: unlimited
  | Current stacksize for task 199: unlimited
  | Current stacksize for task 200: unlimited
  | Current stacksize for task 201: unlimited
  | Current stacksize for task 202: unlimited
  | Current stacksize for task 203: unlimited
  | Current stacksize for task 204: unlimited
  | Current stacksize for task 205: unlimited
  | Current stacksize for task 206: unlimited
  | Current stacksize for task 207: unlimited
  | Current stacksize for task 208: unlimited
  | Current stacksize for task 209: unlimited
  | Current stacksize for task 210: unlimited
  | Current stacksize for task 211: unlimited
  | Current stacksize for task 212: unlimited
  | Current stacksize for task 213: unlimited
  | Current stacksize for task 214: unlimited
  | Current stacksize for task 215: unlimited
  | Current stacksize for task 216: unlimited
  | Current stacksize for task 217: unlimited
  | Current stacksize for task 218: unlimited
  | Current stacksize for task 219: unlimited
  | Current stacksize for task 220: unlimited
  | Current stacksize for task 221: unlimited
  | Current stacksize for task 222: unlimited
  | Current stacksize for task 223: unlimited
  | Current stacksize for task 224: unlimited
  | Current stacksize for task 225: unlimited
  | Current stacksize for task 226: unlimited
  | Current stacksize for task 227: unlimited
  | Current stacksize for task 228: unlimited
  | Current stacksize for task 229: unlimited
  | Current stacksize for task 230: unlimited
  | Current stacksize for task 231: unlimited
  | Current stacksize for task 232: unlimited
  | Current stacksize for task 233: unlimited
  | Current stacksize for task 234: unlimited
  | Current stacksize for task 235: unlimited
  | Current stacksize for task 236: unlimited
  | Current stacksize for task 237: unlimited
  | Current stacksize for task 238: unlimited
  | Current stacksize for task 239: unlimited
  | Checking for scalapack...
  | Testing pdtran()...
  | All pdtran() tests passed.

  Obtaining array dimensions for all initial allocations:
  
  -----------------------------------------------------------------------
  Parsing control.in (first pass over file, find array dimensions only).
  The contents of control.in will be repeated verbatim below
  unless switched off by setting 'verbatim_writeout .false.' .
  in the first line of control.in .
  -----------------------------------------------------------------------
  
  #  Volker Blum, FHI 2004 : Input file for LocalOrb code project
  #
  #  Input file control.in : All computational details for structure geometry.in
  #
  #  * First, general computational parameters:
  #
  #  Physics choices (model):
  #
    xc               pbe
      vdw_correction_hirshfeld
    spin             none
    relativistic     none
    charge           1.0
    occupation_type  gaussian 0.05
  #
  #  SCF cycle:
  #
  #  KS_method        lapack_old
    mixer            pulay
      n_max_pulay       10
      charge_mix_param  0.4
    sc_iter_limit    400
  #
  #  accuracy / efficiency for normal scf
  #
    density_update_method density_matrix
    collect_eigenvectors .false.
    empty_states 3
  #
  #
    use_local_index .true.
    load_balancing .true.
    elpa_settings two_step_solver
  
  # For MD:
    MD_run   0.01   NVT_nose-hoover 300  1700
    MD_thermostat_units cm^-1
    MD_time_step  0.001
    MD_clean_rotations  .true.
    MD_restart    .true.
    output_level MD_light
  #
  #
  #
  ################################################################################
  #
  #  FHI-aims code project
  #  VB, Fritz-Haber Institut, 2009
  #
  #  Suggested "light" defaults for H atom (to be pasted into control.in file)
  #  Be sure to double-check any results obtained with these settings for post-processing,
  #  e.g., with the "tight" defaults and larger basis sets.
  #
  ################################################################################
    species        H
  #     global species definitions
      nucleus             1
      mass                1.00794
  #
      l_hartree           4
  #
      cut_pot             3.5  1.5  1.0
      basis_dep_cutoff    1e-4
  #
      radial_base         24 5.0
      radial_multiplier   1
      angular_grids       specified
        division   0.2421   50
        division   0.3822  110
        division   0.4799  194
        division   0.5341  302
  #      division   0.5626  434
  #      division   0.5922  590
  #      division   0.6542  770
  #      division   0.6868 1202
  #      outer_grid  770
        outer_grid  302
  ################################################################################
  #
  #  Definition of "minimal" basis
  #
  ################################################################################
  #     valence basis states
      valence      1  s   1.
  #     ion occupancy
      ion_occ      1  s   0.5
  ################################################################################
  #
  #  Suggested additional basis functions. For production calculations,
  #  uncomment them one after another (the most important basis functions are
  #  listed first).
  #
  #  Basis constructed for dimers: 0.5 A, 0.7 A, 1.0 A, 1.5 A, 2.5 A
  #
  ################################################################################
  #  "First tier" - improvements: -1014.90 meV to -62.69 meV
       hydro 2 s 2.1
       hydro 2 p 3.5
  #  "Second tier" - improvements: -12.89 meV to -1.83 meV
  #     hydro 1 s 0.85
  #     hydro 2 p 3.7
  #     hydro 2 s 1.2
  #     hydro 3 d 7
  #  "Third tier" - improvements: -0.25 meV to -0.12 meV
  #     hydro 4 f 11.2
  #     hydro 3 p 4.8
  #     hydro 4 d 9
  #     hydro 3 s 3.2
  
  ################################################################################
  #
  #  FHI-aims code project
  #  VB, Fritz-Haber Institut, 2009
  #
  #  Suggested "light" defaults for C atom (to be pasted into control.in file)
  #  Be sure to double-check any results obtained with these settings for post-processing,
  #  e.g., with the "tight" defaults and larger basis sets.
  #
  ################################################################################
    species        C
  #     global species definitions
      nucleus             6
      mass                12.0107
  #
      l_hartree           4
  #
      cut_pot             3.5  1.5  1.0
      basis_dep_cutoff    1e-4
  #
      radial_base         34 5.0
      radial_multiplier   1
      angular_grids specified
        division   0.3326   50
        division   0.5710  110
        division   0.7727  194
        division   0.8772  302
  #      division   0.9334  434
  #      division   0.9625  590
  #      division   0.9924  770
  #      division   1.0230  974
  #      division   1.4589 1202
  #     outer_grid  974
       outer_grid 302
  ################################################################################
  #
  #  Definition of "minimal" basis
  #
  ################################################################################
  #     valence basis states
      valence      2  s   2.
      valence      2  p   2.
  #     ion occupancy
      ion_occ      2  s   1.
      ion_occ      2  p   1.
  ################################################################################
  #
  #  Suggested additional basis functions. For production calculations,
  #  uncomment them one after another (the most important basis functions are
  #  listed first).
  #
  #  Constructed for dimers: 1.0 A, 1.25 A, 1.5 A, 2.0 A, 3.0 A
  #
  ################################################################################
  #  "First tier" - improvements: -1214.57 meV to -155.61 meV
       hydro 2 p 1.7
       hydro 3 d 6
       hydro 2 s 4.9
  #  "Second tier" - improvements: -67.75 meV to -5.23 meV
  #     hydro 4 f 9.8
  #     hydro 3 p 5.2
  #     hydro 3 s 4.3
  #     hydro 5 g 14.4
  #     hydro 3 d 6.2
  #  "Third tier" - improvements: -2.43 meV to -0.60 meV
  #     hydro 2 p 5.6
  #     hydro 2 s 1.4
  #     hydro 3 d 4.9
  #     hydro 4 f 11.2
  #  "Fourth tier" - improvements: -0.39 meV to -0.18 meV
  #     hydro 2 p 2.1
  #     hydro 5 g 16.4
  #     hydro 4 d 13.2
  #     hydro 3 s 13.6
  #     hydro 4 f 17.6
  #  Further basis functions - improvements: -0.08 meV and below
  #     hydro 3 s 2
  #     hydro 3 p 6
  #     hydro 4 d 20
  
  ################################################################################
  #
  #  FHI-aims code project
  #  VB, Fritz-Haber Institut, 2009
  #
  #  Suggested "light" defaults for N atom (to be pasted into control.in file)
  #  Be sure to double-check any results obtained with these settings for post-processing,
  #  e.g., with the "tight" defaults and larger basis sets.
  #
  ################################################################################
    species        N
  #     global species definitions
      nucleus             7
      mass                14.0067
  #
      l_hartree           4
  #
      cut_pot             3.5  1.5  1.0
      basis_dep_cutoff    1e-4
  #
      radial_base         35 5.0
      radial_multiplier   1
      angular_grids       specified
        division   0.2599   50
        division   0.4601  110
        division   0.5885  194
        division   0.6503  302
  #      division   0.6939  434
  #      division   0.7396  590
  #      division   0.7632  770
  #      division   0.8122  974
  #      division   1.1604 1202
  #      outer_grid  974
        outer_grid  302
  ################################################################################
  #
  #  Definition of "minimal" basis
  #
  ################################################################################
  #     valence basis states
      valence      2  s   2.
      valence      2  p   3.
  #     ion occupancy
      ion_occ      2  s   1.
      ion_occ      2  p   2.
  ################################################################################
  #
  #  Suggested additional basis functions. For production calculations,
  #  uncomment them one after another (the most important basis functions are
  #  listed first).
  #
  #  Constructed for dimers: 1.0 A, 1.1 A, 1.5 A, 2.0 A, 3.0 A
  #
  ################################################################################
  #  "First tier" - improvements: -1193.42 meV to -220.60 meV
       hydro 2 p 1.8
       hydro 3 d 6.8
       hydro 3 s 5.8
  #  "Second tier" - improvements: -80.21 meV to -6.86 meV
  #     hydro 4 f 10.8
  #     hydro 3 p 5.8
  #     hydro 1 s 0.8
  #     hydro 5 g 16
  #     hydro 3 d 4.9
  #  "Third tier" - improvements: -4.29 meV to -0.53 meV
  #     hydro 3 s 16
  #     ionic 2 p auto
  #     hydro 3 d 6.6
  #     hydro 4 f 11.6
  #  "Fourth tier" - improvements: -0.75 meV to -0.25 meV
  #     hydro 2 p 4.5
  #     hydro 2 s 2.4
  #     hydro 5 g 14.4
  #     hydro 4 d 14.4
  #     hydro 4 f 16.8
  # Further basis functions - -0.21 meV and below
  #     hydro 3 p 14.8
  #     hydro 3 s 4.4
  #     hydro 3 d 19.6
  #     hydro 5 g 12.8
  
  ################################################################################
  #
  #  FHI-aims code project
  #  VB, Fritz-Haber Institut, 2009
  #
  #  Suggested "light" defaults for O atom (to be pasted into control.in file)
  #  Be sure to double-check any results obtained with these settings for post-processing,
  #  e.g., with the "tight" defaults and larger basis sets.
  #
  ################################################################################
    species        O
  #     global species definitions
      nucleus             8
      mass                15.9994
  #
      l_hartree           4
  #
      cut_pot             3.5  1.5  1.0
      basis_dep_cutoff    1e-4
  #
      radial_base         36 5.0
      radial_multiplier   1
       angular_grids specified
        division   0.2659   50
        division   0.4451  110
        division   0.6052  194
        division   0.7543  302
  #      division   0.8014  434
  #      division   0.8507  590
  #      division   0.8762  770
  #      division   0.9023  974
  #      division   1.2339 1202
  #      outer_grid 974
        outer_grid 302
  ################################################################################
  #
  #  Definition of "minimal" basis
  #
  ################################################################################
  #     valence basis states
      valence      2  s   2.
      valence      2  p   4.
  #     ion occupancy
      ion_occ      2  s   1.
      ion_occ      2  p   3.
  ################################################################################
  #
  #  Suggested additional basis functions. For production calculations,
  #  uncomment them one after another (the most important basis functions are
  #  listed first).
  #
  #  Constructed for dimers: 1.0 A, 1.208 A, 1.5 A, 2.0 A, 3.0 A
  #
  ################################################################################
  #  "First tier" - improvements: -699.05 meV to -159.38 meV
       hydro 2 p 1.8
       hydro 3 d 7.6
       hydro 3 s 6.4
  #  "Second tier" - improvements: -49.91 meV to -5.39 meV
  #     hydro 4 f 11.6
  #     hydro 3 p 6.2
  #     hydro 3 d 5.6
  #     hydro 5 g 17.6
  #     hydro 1 s 0.75
  #  "Third tier" - improvements: -2.83 meV to -0.50 meV
  #     ionic 2 p auto
  #     hydro 4 f 10.8
  #     hydro 4 d 4.7
  #     hydro 2 s 6.8
  #  "Fourth tier" - improvements: -0.40 meV to -0.12 meV
  #     hydro 3 p 5
  #     hydro 3 s 3.3
  #     hydro 5 g 15.6
  #     hydro 4 f 17.6
  #     hydro 4 d 14
  # Further basis functions - -0.08 meV and below
  #     hydro 3 s 2.1
  #     hydro 4 d 11.6
  #     hydro 3 p 16
  #     hydro 2 s 17.2
  
  -----------------------------------------------------------------------
  Completed first pass over input file control.in .
  -----------------------------------------------------------------------
  
  
  -----------------------------------------------------------------------
  Parsing geometry.in (first pass over file, find array dimensions only).
  The contents of geometry.in will be repeated verbatim below
  unless switched off by setting 'verbatim_writeout .false.' .
  in the first line of geometry.in .
  -----------------------------------------------------------------------
  
     atom              -0.23141335        0.18340697       -0.12448228  C
       velocity          -2.85460306         -5.02856971         -0.17065224
     atom              -0.19118146       -0.09445273        1.35861646  C
       velocity           1.34102743          2.06289079          2.18348732
     atom               0.87376279       -0.29855567        1.96328750  O
       velocity           3.01139339          6.09596320         -4.28965956
     atom               0.36785049       -0.57211680       -0.64751632  H
       velocity          27.79909091         26.76842722         44.36475253
     atom               0.24361635        1.15689711       -0.30800466  H
       velocity           2.99849515         19.07655371         25.72520332
     atom              -1.24405433        0.19904286       -0.54445825  H
       velocity         -13.14552145         23.84710413         31.25608028
     atom              -1.39320160       -0.13509756        2.01066912  N
       velocity           4.39464260         -1.57697338          0.70179892
     atom              -1.47399369       -0.17510188        3.47422463  C
       velocity           4.22858613          0.24028838         -3.75239546
     atom              -0.74481451       -1.39197706        4.06525094  C
       velocity           0.94689108          4.38781085          5.01278526
     atom              -0.10720583       -1.28752078        5.11915922  O
       velocity           3.19282735         -5.70129778          3.67100322
     atom              -2.22883133        0.14645564        1.50223235  H
       velocity           9.19722647          5.15330635          7.93136957
     atom              -0.93862610        0.69255616        3.89341183  H
       velocity           1.73664363         17.16734770         11.49485815
     atom              -2.95102104       -0.12688702        3.90911901  C
       velocity           3.26959071         -5.82922122         -1.94216809
     atom              -3.15902850       -0.11366481        5.42642767  C
       velocity          -5.73657125         -4.26022046          3.75074995
     atom              -4.63246320        0.03461148        5.82204763  C
       velocity           5.74409951          2.14700845         -0.07860436
     atom              -4.84172238        0.02562749        7.34719618  C
       velocity          -0.81084380          6.63265080         -7.41258338
     atom              -6.21566268        0.16539372        7.82877465  N
       velocity          -1.17141096         -4.48309148         -2.81054745
     atom              -3.48764352       -0.98449316        3.46638773  H
       velocity           7.22564780         24.55254590         20.79998433
     atom              -3.39485731        0.78564949        3.47426368  H
       velocity           8.88751960         25.66638986         -3.77425968
     atom              -2.57198933        0.70976033        5.86815429  H
       velocity           8.88493766         27.42441231         -6.34697044
     atom              -2.75329054       -1.03961842        5.86595780  H
       velocity         -20.68856529         -3.05644418         25.39358292
     atom              -5.22363247       -0.78325525        5.37208584  H
       velocity          24.32014371          7.47422681         26.85845340
     atom              -5.03812002        0.97454665        5.40689360  H
       velocity          -5.13596138         13.60491572          0.80600547
     atom              -4.24485186        0.83624581        7.79886014  H
       velocity          -1.18621105        -35.65990264         25.61248116
     atom              -4.43523308       -0.91287088        7.76189787  H
       velocity          -5.85194573         -5.76121022          1.99348493
     atom              -6.80742494       -0.58308954        7.46002526  H
       velocity           0.66664311        -17.23909533         12.24159131
     atom              -6.62437245        1.04639876        7.50760589  H
       velocity          13.61451945        -23.23620629         22.54685335
     atom              -0.87288914       -2.57195828        3.40163776  N
       velocity           0.38155142          2.64240781         -3.70964500
     atom              -0.22942536       -3.79039124        3.89067160  C
       velocity           0.17562043         -1.54182111          4.01901389
     atom               1.31279099       -3.69671907        3.89100534  C
       velocity          -9.07844798         -4.04695584          0.40917920
     atom               1.96376917       -4.29969654        4.75257734  O
       velocity          -2.13125630         -3.16021075         -1.63282034
     atom              -1.40167440       -2.59410569        2.53213899  H
       velocity          17.93490105          3.33788291         -0.79215271
     atom              -0.49705671       -3.91912990        4.94989576  H
       velocity          -2.02857921        -18.32571856          4.44851928
     atom              -0.69471834       -5.00439622        3.08569253  C
       velocity          -3.82398303          8.27917896          3.54224539
     atom              -0.20144116       -5.90690980        3.46612511  H
       velocity         -11.25281536        -11.81105879         10.11361325
     atom              -0.43803250       -4.90204604        2.02106356  H
       velocity           0.49119884         14.96644546        -37.11794285
     atom              -1.78019655       -5.14264567        3.18204520  H
       velocity         -17.60674370         13.80347064        -22.78223593
     atom               1.87815503       -2.98655727        2.87975322  N
       velocity           5.59029433          0.94424645         -3.77903968
     atom               3.32341222       -2.76597359        2.83378853  C
       velocity          -4.97144523          0.61161715          2.00665073
     atom               3.80625687       -1.82677416        3.95922580  C
       velocity          -3.99982127          0.79874514          2.02312470
     atom               4.85429730       -2.07173785        4.57152541  O
       velocity           5.28854168         -3.35297457          1.52121920
     atom               1.28997978       -2.34357558        2.34651125  H
       velocity           4.02633018         17.26211080         -4.15332789
     atom               3.80916041       -3.72603995        3.05564454  H
       velocity          -6.06561954        -15.98216560        -30.25618810
     atom               3.75432630       -2.26403531        1.45421281  C
       velocity          -8.04636512          2.75535985         -4.20261449
     atom               4.83857663       -2.09612846        1.44607078  H
       velocity         -12.50005151         21.07257091         -0.20978616
     atom               3.25484920       -1.31923898        1.19831767  H
       velocity         -16.22075291          6.00642867        -19.45617647
     atom               3.51647262       -3.01196933        0.68598297  H
       velocity          -4.02817349          6.33815570         -0.27292263
     atom               3.02390141       -0.75320528        4.23247302  N
       velocity          -1.85217035         -7.46715096          4.50316798
     atom               3.32561088        0.12534155        5.35988855  C
       velocity          -5.59457146          1.22136721          8.60981209
     atom               3.28319896       -0.63620260        6.70436494  C
       velocity          -1.15056404         -8.15905252         -2.48733792
     atom               4.14260033       -0.41994506        7.57054652  O
       velocity           8.41969273          1.86512788         -2.11897849
     atom               2.18729761       -0.57588179        3.67391458  H
       velocity          22.02043630         19.06248489         -7.24170884
     atom               4.36930945        0.46323161        5.27511344  H
       velocity         -16.22363324         -9.89876109         -6.37948287
     atom               2.38381511        1.33069087        5.36861760  C
       velocity          -2.27137252         -4.07958802         -2.18056533
     atom               2.62428699        1.97916721        6.22022960  H
       velocity          -9.47268233        -25.52119810         12.05545478
     atom               1.33530898        1.01320861        5.45913041  H
       velocity         -20.39712368         17.83638801         -2.20744225
     atom               2.50230926        1.91641143        4.44668745  H
       velocity         -31.45102184         31.50515105         -0.39656419
     atom               2.27256341       -1.52372393        6.86462869  N
       velocity           3.81549804         -3.63305891          2.71640186
     atom               2.15622822       -2.32084114        8.08242957  C
       velocity          -2.84172078          0.23581879         -2.96610638
     atom               3.35061058       -3.28403332        8.25376043  C
       velocity          -3.79437073          5.03264294          1.51557603
     atom               3.87841916       -3.43130406        9.36646760  O
       velocity           4.22526437         -4.54671038         -0.03630133
     atom               1.53290982       -1.58947434        6.15996244  H
       velocity          -3.51630534         15.68228375        -17.92822769
     atom               2.22403430       -1.65174319        8.95380389  H
       velocity          14.45977118         26.88247524         17.06622902
     atom               0.82545971       -3.07609060        8.10438698  C
       velocity           4.97190392         -1.50555417         -2.96727628
     atom               0.74706014       -3.65413357        9.03360508  H
       velocity          -9.47276945         36.60192410          2.49422503
     atom               0.75046051       -3.77138100        7.25647362  H
       velocity          21.70542553          5.33480302          5.36992699
     atom              -0.01613803       -2.37161333        8.06042136  H
       velocity         -37.37365901         -1.84185855         13.59816252
     atom               3.76685555       -3.93791629        7.14419156  N
       velocity           2.98382496         -5.53305421         -4.26251719
     atom               4.92340382       -4.82817848        7.18779342  C
       velocity           1.50359471         -0.80801625         -1.33986568
     atom               6.21526757       -4.06778158        7.55715949  C
       velocity          -1.53537353         -2.00950715         -0.91988845
     atom               7.03286280       -4.57137908        8.34366984  O
       velocity           1.28160836         -6.67098076         -2.90142494
     atom               3.24351230       -3.85550237        6.26783087  H
       velocity          21.34491268         25.55757213        -13.57339045
     atom               4.78922499       -5.54769293        8.01002213  H
       velocity          20.83732977         -5.70653946          4.62088705
     atom               5.07864906       -5.57222475        5.85973731  C
       velocity           1.45598051         10.00078184         -0.27696441
     atom               5.94376815       -6.24467125        5.91558382  H
       velocity          17.60896181         10.29971578         -3.37990984
     atom               5.23576258       -4.86937865        5.02975360  H
       velocity           8.97216913          5.84788046          8.98619996
     atom               4.18266963       -6.17054139        5.64784204  H
       velocity          -2.82779598         23.03055846          3.51539625
     atom               6.39252855       -2.85964483        6.97536487  N
       velocity          -0.68851974         -2.49051764          4.31715749
     atom               7.55517242       -2.03624157        7.29208925  C
       velocity           0.24155959          2.38097449         -4.17813341
     atom               7.56862140       -1.61146826        8.77579435  C
       velocity          -3.40174457         -2.79023818          3.82225536
     atom               8.63004699       -1.62765343        9.42031458  O
       velocity          -1.87241285          0.84519489         -8.53688609
     atom               5.72578946       -2.52200515        6.27388695  H
       velocity          -4.93169994         16.98887536         10.15151803
     atom               8.46460396       -2.64605288        7.17877264  H
       velocity           1.21866263         15.36943504        -29.45072326
     atom               7.62060395       -0.81969131        6.36602662  C
       velocity          -0.44068098        -13.99571017         -3.16437627
     atom               8.50372640       -0.21748958        6.61376481  H
       velocity           9.73451385          9.81905604          7.92582590
     atom               6.72537268       -0.19215550        6.47597126  H
       velocity           3.02078344         25.63664781         -7.49744010
     atom               7.69695277       -1.13963547        5.31837784  H
       velocity          10.72929530         26.46459245         -0.28111765
     atom               6.38568743       -1.22679329        9.30555215  N
       velocity           4.66467782         -5.30238671         -1.21274062
     atom               6.27612215       -0.86206955       10.71415571  C
       velocity           4.62796650         -3.89324531         -1.78626375
     atom               6.60387316       -2.05271740       11.63989896  C
       velocity          -3.16655530          2.60880380          4.90386050
     atom               7.29097222       -1.88046741       12.66056329  O
       velocity          -0.19467059         -3.22598326         -1.64027525
     atom               5.55353195       -1.15146428        8.71065136  H
       velocity          -0.18016307         13.16672102         -6.73807775
     atom               7.05002276       -0.11579385       10.95095374  H
       velocity          12.59142811         11.23368663          7.67402819
     atom               4.88787975       -0.29188518       11.01440084  C
       velocity           3.03677985          1.89713365         -2.54715120
     atom               4.82569216       -0.01694210       12.07484840  H
       velocity           5.83540817          3.73596862         32.59545435
     atom               4.10389742       -1.02995582       10.79563273  H
       velocity          20.43581732          8.25992033         23.68000113
     atom               4.70322552        0.60440332       10.40750815  H
       velocity          -9.58738922          0.29910151          7.08367301
     atom               6.10142033       -3.25443416       11.27881616  N
       velocity           3.92976143          1.50274132          1.23900228
     atom               6.40057998       -4.45648258       12.04992128  C
       velocity          -1.07341346         -2.09468367          9.40658073
     atom               7.90893956       -4.78357907       12.03361961  C
       velocity          -2.30663573          2.95177424          3.98057691
     atom               8.48104917       -5.15102874       13.07403266  O
       velocity          -6.21116428          8.48624148         -0.39222897
     atom               5.47356975       -3.32987647       10.47051672  H
       velocity           0.80918006        -13.53014869         -5.69970538
     atom               6.17796735       -4.26473981       13.11089692  H
       velocity          -3.27065578         -7.26138879         -3.30096797
     atom               5.57026675       -5.63854100       11.54402251  C
       velocity          -2.13392993         -6.78763335         -4.89250808
     atom               5.80167972       -6.53119117       12.13875476  H
       velocity         -22.72844258        -13.99139914         11.68494717
     atom               5.79116946       -5.85133957       10.48897642  H
       velocity           7.80361602         -2.05131352          2.08832254
     atom               4.49817235       -5.42095219       11.63922489  H
       velocity         -13.03810694        -22.68538991        -21.45184880
     atom               8.54140451       -4.65315270       10.84664050  N
       velocity           5.74270929         -3.30081313          4.98098740
     atom               9.97792235       -4.88064906       10.73216447  C
       velocity          -2.10738429          5.29873651         -0.12031476
     atom              10.78389913       -3.87175255       11.57687714  C
       velocity          -0.78827736          2.57810320          4.92255661
     atom              11.76543073       -4.25291273       12.23812164  O
       velocity          -0.97428867         -5.39768434          0.71687078
     atom               8.00870090       -4.42663543        9.99825251  H
       velocity           0.27531601          4.83314384         10.50720427
     atom              10.22145210       -5.85861589       11.17539478  H
       velocity         -14.31041887        -21.88290475         23.98878404
     atom              10.41166002       -4.84682962        9.26470907  C
       velocity           6.55277675          6.65582470          2.53355126
     atom              11.49167627       -5.02867461        9.19678400  H
       velocity          15.42327570          6.78401812          3.25815598
     atom              10.18928117       -3.87099121        8.81153280  H
       velocity         -14.14875543         -2.71023038        -21.70891176
     atom               9.88729097       -5.62418193        8.69340356  H
       velocity           9.98268674          7.61658990        -12.21064246
     atom              10.36689071       -2.58737509       11.54327835  N
       velocity          -5.43919800         -4.47826114          0.79029028
     atom              11.02255415       -1.56341795       12.34899756  C
       velocity          -2.82026708          0.50689520          7.40617471
     atom              10.88035548       -1.84886010       13.85833695  C
       velocity           3.64072639          2.32021138          4.60029994
     atom              11.84921996       -1.68301386       14.62031631  O
       velocity          -4.80259913         -1.43138723          0.53889202
     atom               9.60469476       -2.30665897       10.91372417  H
       velocity           0.20522746          4.82194852         35.95504649
     atom              12.10771115       -1.60560166       12.16762676  H
       velocity          32.75092790         14.71239895        -11.60855269
     atom              10.48483713       -0.17470988       11.99482123  C
       velocity          -1.78617967        -11.86395396         -3.97868566
     atom              10.99520203        0.58259857       12.60323837  H
       velocity           7.93732487         -0.55794258         17.17179583
     atom               9.40472421       -0.11143875       12.18536737  H
       velocity           3.62212988         24.92173424         -3.03461566
     atom              10.66481161        0.04539035       10.93434523  H
       velocity           6.45804390        -20.90015305        -15.57042802
     atom               9.66917408       -2.26980606       14.28247403  N
       velocity           5.29656166          2.88104354         -4.43882660
     atom               9.44537920       -2.62441727       15.67956944  C
       velocity           1.37375308         -2.22302067          1.67506685
     atom              10.31319584       -3.82644487       16.10633998  C
       velocity          -0.73035996          0.75429754          6.69242346
     atom              10.88527799       -3.82560796       17.21146282  O
       velocity          -2.95011353          2.86575438        -12.86967576
     atom               8.87583713       -2.30903249       13.62979299  H
       velocity          14.92116733         20.15830354         -9.50305769
     atom               9.79445300       -1.79873147       16.31887932  H
       velocity           1.84263234          2.86248922         13.12131144
     atom               7.96025602       -2.89395006       15.93422234  C
       velocity          -2.96633296          5.01463340         -3.22823063
     atom               7.80928128       -3.15111014       16.99030527  H
       velocity          -1.99718699         -7.84830934          2.74639503
     atom               7.59982733       -3.72538584       15.31312721  H
       velocity         -21.56383087        -25.92690180         -4.09876120
     atom               7.36494568       -2.00165129       15.70000942  H
       velocity           9.49268649        -20.24784821         20.13247576
     atom              10.40032123       -4.84883423       15.22888039  N
       velocity           3.97544689          7.04572481         -1.50721812
     atom              11.24390323       -6.00603799       15.50653785  C
       velocity          -0.46840117          2.99861367         -2.59756921
     atom              12.73015247       -5.60929555       15.61949837  C
       velocity           3.00915318          0.11037839          2.33970103
     atom              13.43905053       -6.08869070       16.52358204  O
       velocity           0.57960775          4.60248719          1.15499747
     atom               9.84242612       -4.84059153       14.36485608  H
       velocity         -26.71986702        -12.54424900        -25.10025493
     atom              10.99308973       -6.40122360       16.50319301  H
       velocity         -22.34715937         18.47854613          3.22680150
     atom              11.03696196       -7.08931130       14.44507569  C
       velocity           2.00557244         -0.97069705          0.72388005
     atom              11.67195338       -7.95451055       14.67413685  H
       velocity          -3.20848658         18.17132729        -16.98710304
     atom              11.29702585       -6.71472036       13.44566081  H
       velocity           8.66875347        -10.64113730         -6.01789718
     atom               9.98860886       -7.41509927       14.43218854  H
       velocity          18.20568848          4.44935847         -8.72742202
     atom              13.19507363       -4.74083525       14.69701602  N
       velocity          -5.16650080          3.77234053          0.68980590
     atom              14.57071473       -4.25814991       14.74519488  C
       velocity          -0.81097888          0.55774946         -3.78349482
     atom              14.84795372       -3.46018730       16.03510594  C
       velocity          -3.99191539          0.61650084         -9.10596497
     atom              15.91511525       -3.62091278       16.65511091  O
       velocity           1.03759394          6.10837446          1.13630697
     atom              12.59276840       -4.43693461       13.91980569  H
       velocity          14.35142759          5.09578602         -5.08083719
     atom              15.25134987       -5.12128469       14.80883898  H
       velocity         -18.66835483         17.36506817        -27.88615593
     atom              14.89358238       -3.42734928       13.50061025  C
       velocity          -5.18836519         -9.53703560         -3.35418502
     atom              15.93382283       -3.08152259       13.54971127  H
       velocity         -18.14999407        -21.54233177          9.32301840
     atom              14.23279950       -2.55267691       13.43017915  H
       velocity          13.54162588         26.22635542         -7.44252029
     atom              14.76583819       -4.03325735       12.59412791  H
       velocity          12.25738594         -2.42509029         -9.34836438
     atom              13.88799277       -2.59744629       16.42993652  N
       velocity           3.38285307          0.93323089          2.96627667
     atom              14.02435371       -1.84137904       17.66902351  C
       velocity           1.25682225         -8.52230341         -6.20409236
     atom              14.07162979       -2.77209288       18.89649840  C
       velocity          -0.55614305          6.36864143          2.48149309
     atom              14.87767632       -2.55052554       19.82047989  O
       velocity          -0.63762986         -2.97062102          5.46709502
     atom              13.06350624       -2.42881595       15.83683900  H
       velocity          -6.65713067         32.07988153        -28.46806964
     atom              15.00246374       -1.33573448       17.67608327  H
       velocity          16.53045622          9.74587541         13.60855790
     atom              12.89951433       -0.81094764       17.79870355  C
       velocity           4.99322135         -9.26992753          7.71827954
     atom              13.02405927       -0.24576019       18.73103224  H
       velocity          10.75056592          0.69418164        -26.21680438
     atom              11.91684527       -1.30173344       17.80999541  H
       velocity          17.06228986          3.98479257         -5.31978207
     atom              12.92735438       -0.10961010       16.95470177  H
       velocity          -2.61157988        -23.29387078          2.32054321
     atom              13.20402004       -3.80483168       18.91060287  N
       velocity           6.11352509          7.07642148         10.71938667
     atom              13.21673681       -4.77723297       19.99732346  C
       velocity          -0.33669251          1.25893850         -1.16282361
     atom              14.55408566       -5.54329979       20.05088004  C
       velocity           3.01802749          5.55825111          8.75001159
     atom              15.10158580       -5.76521075       21.15342707  O
       velocity           0.70437419          3.20072946         -0.03712879
     atom              12.49077727       -3.89672347       18.17261791  H
       velocity          -6.96440748         -0.21225118        -13.33494849
     atom              13.16849573       -4.24155661       20.95818076  H
       velocity         -12.45783311        -28.74432810         21.20442069
     atom              12.03208509       -5.73918328       19.87313897  C
       velocity          -1.92034622          1.30177858         -0.89355823
     atom              12.05243661       -6.45881155       20.70131801  H
       velocity         -10.96814436          6.27254788        -17.40080697
     atom              12.07225958       -6.28991478       18.92368774  H
       velocity          13.17309145          4.68986003        -25.29893383
     atom              11.08641001       -5.18319482       19.91196253  H
       velocity          -3.47314384        -12.97963251        -33.70216356
     atom              15.05864363       -5.95053350       18.87345209  N
       velocity          -2.68875452         -6.59928262         -1.19357725
     atom              16.33653104       -6.65143821       18.78686359  C
       velocity           1.19315854          5.58863261         -4.02344714
     atom              17.49612918       -5.76863006       19.28837124  C
       velocity           3.59561410         -3.90193112          4.85308068
     atom              18.32510784       -6.24137037       20.08886553  O
       velocity          -3.20470085          1.84084618         -1.59970386
     atom              14.51865240       -5.81122540       18.00574737  H
       velocity          12.26855649        -15.60572608         16.73819125
     atom              16.32273821       -7.50231047       19.48507218  H
       velocity         -11.46128629         16.15030433        -25.73612647
     atom              16.58478525       -7.15092107       17.36179244  C
       velocity          -3.07239382          2.61856198         -1.32762059
     atom              17.54358351       -7.68306432       17.32286950  H
       velocity          26.41522333         13.80355479         21.25259478
     atom              16.61560579       -6.31456882       16.65084971  H
       velocity         -22.13705414        -20.23366385         10.59108401
     atom              15.78639676       -7.83867894       17.05474379  H
       velocity         -28.39871167        -14.38692438        -20.93237680
     atom              17.55047465       -4.50540581       18.82419243  N
       velocity          -4.74504915         -1.14815635          1.37446970
     atom              18.56040247       -3.56504745       19.31069853  C
       velocity          -1.67423035          5.61965734         -1.33196007
     atom              18.42275234       -3.36900723       20.83056098  C
       velocity           3.46349356         -1.37866845          7.31907649
     atom              19.39509646       -3.39960890       21.59344092  O
       velocity          -2.46266057          1.24891644         -5.33963902
     atom              16.86423218       -4.17687847       18.12793759  H
       velocity           3.35480607         18.57425409          5.97180556
     atom              19.55945221       -4.00878503       19.18365786  H
       velocity           3.04421180        -22.64575483        -13.60040366
     atom              18.46719079       -2.23843096       18.55424720  C
       velocity           0.37389195         -1.80236856          5.73018779
     atom              19.23581698       -1.54941488       18.92592011  H
       velocity         -29.25905031        -21.53415679         -2.25598225
     atom              17.48059466       -1.77366530       18.68632928  H
       velocity          10.50187845         17.18895111         13.48905705
     atom              18.63135444       -2.40049629       17.48116218  H
       velocity          11.43934921         13.41722455         14.87372929
     atom              17.15707031       -3.20532049       21.31249850  N
       velocity          -3.96933884          0.39607877         -1.10321076
     atom              17.00682753       -3.17703755       22.74820149  C
       velocity          -2.21452124          1.20007372          1.24418922
     atom              17.59198347       -4.45877395       23.33459486  C
       velocity          -2.65183138         -0.21484711          1.05247603
     atom              18.41894486       -4.41831463       24.36608317  O
       velocity           1.27238424          1.01391211         -0.08139820
     atom              16.32509405       -3.09772580       20.70989308  H
       velocity         -13.06389877        -11.67562905        -14.79990878
     atom              17.61443000       -2.35239419       23.16783564  H
       velocity         -18.54894125        -28.83569895         -3.56599252
     atom              15.54313418       -2.99542749       23.16823527  C
       velocity           9.50443210         -2.11094145          2.00367591
     atom              15.45907459       -2.97777887       24.26230419  H
       velocity          20.16073535         10.70680936        -15.02435870
     atom              14.91929082       -3.80578655       22.77052531  H
       velocity           6.05814553         -8.49910544        -39.35855016
     atom              15.17231869       -2.04203562       22.77224530  H
       velocity           4.97272406        -16.16639755         -0.41441147
     atom              17.23138989       -5.63461315       22.90502659  N
       velocity          -4.39277718         -1.61671093          0.12268513
     atom              17.75998671       -6.90461987       23.44844463  C
       velocity           2.46432664          5.98850371          1.50986625
     atom              19.30850470       -7.04805036       23.33205170  C
       velocity           7.51881530         12.73145178         -2.42115374
     atom              19.91038385       -6.64040034       22.21227994  O
       velocity          -2.45340911         -4.42040129         -6.42874655
     atom              16.52297417       -5.68134322       22.13305548  H
       velocity          -9.86234973         -9.59437753         -1.18248185
     atom              17.57004600       -6.90930690       24.53046427  H
       velocity         -26.11040661        -14.58261975          2.34215314
     atom              17.05396217       -8.08631868       22.78238380  C
       velocity          -5.04402903         -0.18899912         -0.66905814
     atom              17.41942041       -9.01485204       23.23690577  H
       velocity         -14.02134649         14.87704086         11.75549561
     atom              17.26518265       -8.11312768       21.70572061  H
       velocity           5.50292913          2.11504518         -4.89300572
     atom              15.96766374       -8.02582134       22.92926027  H
       velocity          11.76054433        -13.19672301         -3.18034028
     atom              19.91572645       -7.55910664       24.25027081  O
       velocity          -0.70683358         -4.37333786         -0.25277867
     atom              19.28674413       -6.36259725       21.48696586  H
       velocity         -31.46818810        -16.64852886        -24.07542362
     atom              18.82321150       -3.52873939       24.42115558  H
       velocity           2.21706499        -38.97442035        -21.53014372
  
  -----------------------------------------------------------------------
  Completed first pass over input file geometry.in .
  -----------------------------------------------------------------------
  

  Basic array size parameters:
  | Number of species                 :        4
  | Number of atoms                   :      220
  | Max. basis fn. angular momentum   :        2
  | Max. atomic/ionic basis occupied n:        2
  | Max. number of basis fn. types    :        2
  | Max. radial fns per species/type  :        3
  | Max. logarithmic grid size        :     1301
  | Max. radial integration grid size :       36
  | Max. angular integration grid size:      302
  | Max. angular grid division number :        8
  | Radial grid for Hartree potential :     1301
  | Number of spin channels           :        1

------------------------------------------------------------
          Reading file control.in.
------------------------------------------------------------
  XC: Using PBE gradient-corrected functionals.
  Spin treatment: No spin polarisation.
  Non-relativistic treatment of kinetic energy.
[...]
     velocity          11.53772179         -2.74451881         -2.40814515
   atom              10.47577580       -0.26364025       11.95776552  C
     velocity          -2.91457418        -10.57747178         -5.36561633
   atom              11.01334242        0.43805365       12.52338307  H
     velocity          22.81601759          2.83430944        -20.08287203
   atom               9.42382831        0.00150981       12.12722407  H
     velocity           3.33537616        -12.85962118        -14.00612690
   atom              10.72092653       -0.15278159       10.91992649  H
     velocity          10.31719420        -21.79979997         -9.44133167
   atom               9.71372892       -2.24286196       14.25632224  N
     velocity           2.72495937          3.33667368         -0.53605855
   atom               9.44227010       -2.63039696       15.68371105  C
     velocity          -5.09138154          0.97867504         -3.98323517
   atom              10.26247171       -3.81833791       16.07749406  C
     velocity         -12.29314230          1.81136301        -17.11870546
   atom              10.89171321       -3.79245422       17.14180889  O
     velocity           6.01241927          5.51911533         -2.05048586
   atom               8.94153320       -2.14578774       13.58446943  H
     velocity           1.94633650         13.97733211         11.44916582
   atom               9.76340115       -1.84316495       16.34231949  H
     velocity          -4.03351270          1.62369913          1.19080412
   atom               7.93386369       -2.89317129       15.90977933  C
     velocity          -4.61659936          3.24159799         -1.09944520
   atom               7.82868111       -3.18866443       16.94834200  H
     velocity           6.15746181         -1.29413262          3.71380766
   atom               7.52406661       -3.67623377       15.36824116  H
     velocity         -15.87425534         -1.89326334        -24.03862873
   atom               7.28081069       -1.92922757       15.78187507  H
     velocity           7.48806976        -14.88583003          5.31585259
   atom              10.42966164       -4.78183924       15.17184080  N
     velocity           7.16374260          8.95529439         -9.79555907
   atom              11.23405250       -5.96792817       15.48893122  C
     velocity          -1.99861221          7.12856606         -2.15643294
   atom              12.73557384       -5.59658787       15.62887594  C
     velocity          -3.46816967          4.45601285         -0.62930206
   atom              13.45471866       -6.03946196       16.54470917  O
     velocity           3.68556234          7.91855205          4.43347759
   atom               9.76331058       -4.87940966       14.44913487  H
     velocity         -44.86679674          2.31983767        -22.96128980
   atom              10.87982712       -6.28061347       16.46797839  H
     velocity           0.59863437          0.58012354         -3.78585583
   atom              11.06804947       -7.07788526       14.43642175  C
     velocity           5.51385902          0.07018910         -2.61782117
   atom              11.75887619       -7.97448655       14.64604422  H
     velocity          -4.62857556         11.58559358         10.56161406
   atom              11.35991627       -6.74317718       13.43732906  H
     velocity           7.40487091         12.46418163         -1.47870662
   atom               9.99245705       -7.44413229       14.36300841  H
     velocity          16.53345217         -2.53837050         -4.17501280
   atom              13.15159228       -4.69725095       14.70957860  N
     velocity          -5.92516181          7.51745188          1.77243302
   atom              14.52791786       -4.24678159       14.69639310  C
     velocity          -8.78185335         -2.31555168         -8.79558787
   atom              14.85262434       -3.44971128       15.97252813  C
     velocity           7.60908082          2.83430279         -4.28453110
   atom              15.90190091       -3.55313596       16.64610071  O
     velocity          -5.63342404         10.78547655         -4.96735938
   atom              12.58844793       -4.43349636       13.87107138  H
     velocity         -15.91463745        -13.29578634          9.99380732
   atom              15.24490283       -5.16360613       14.64743481  H
     velocity         -13.46015396          9.85599027          0.60484825
   atom              14.83636510       -3.49889866       13.45023149  C
     velocity          -2.64178121         -8.33081221        -10.21021450
   atom              15.94523770       -3.26951275       13.61289117  H
     velocity          -7.52909256        -33.94601006         -4.80140941
   atom              14.41234878       -2.53666093       13.33986562  H
     velocity           5.36301677          3.58487941        -19.70812770
   atom              14.80007826       -4.07642667       12.52148454  H
     velocity         -11.61372748        -10.82501443         -5.44389456
   atom              13.89314267       -2.59108062       16.41779165  N
     velocity           1.13462550         -1.82814333         -5.13487968
   atom              14.07159323       -1.90431300       17.64263110  C
     velocity           9.08375826         -7.21248261          3.27105658
   atom              14.08470796       -2.72018496       18.93587705  C
     velocity           5.63963719          4.28453629          8.65351985
   atom              14.87420427       -2.57278949       19.88197760  O
     velocity           0.39428091         -1.33336616         10.30802879
   atom              13.25386200       -2.18580708       15.77924099  H
     velocity           0.13115834         43.58659171        -27.10093203
   atom              14.97994462       -1.38373475       17.72034965  H
     velocity          18.42724692         -3.17463643         -9.94896521
   atom              12.96035653       -0.91092335       17.84725552  C
     velocity           7.57286018        -13.02472915          4.67439715
   atom              13.16111930       -0.18311073       18.71016350  H
     velocity          15.44217519        -19.00103817        -11.30739872
   atom              11.92358917       -1.38368640       17.88538734  H
     velocity          17.71692538        -12.96854763         34.81218292
   atom              12.93085542       -0.29171505       16.91732222  H
     velocity           2.91896410        -25.14573074         -0.61501313
   atom              13.23320967       -3.73420751       19.00836328  N
     velocity           1.81347269         10.65890567         16.96538874
   atom              13.20913459       -4.76662432       20.02166158  C
     velocity          -1.85324496          0.63783692          9.00455872
   atom              14.57251588       -5.49581652       20.08102223  C
     velocity           0.96331185          4.54189020         -4.18558769
   atom              15.12318832       -5.72918002       21.17860202  O
     velocity           5.34039955          6.44585625          7.37610959
   atom              12.60473907       -3.86901448       18.24583947  H
     velocity         -10.28467848         -0.49043961        -18.03145873
   atom              13.07228707       -4.42004363       21.03917381  H
     velocity          -8.23127557          4.02504864          3.99190594
   atom              12.01922107       -5.73000491       19.80231687  C
     velocity          -2.19145637          0.81263760        -15.56743470
   atom              11.93903713       -6.49451231       20.63115309  H
     velocity         -16.18518366          9.14671184        -24.64019931
   atom              12.20850737       -6.22616263       18.88524254  H
     velocity          24.50351364        -15.52223729        -14.88546576
   atom              11.04292686       -5.22387597       19.63691919  H
     velocity           8.42400480          2.71019785        -25.46299383
   atom              15.03034154       -6.00833417       18.89784775  N
     velocity          -7.54182345         -5.73717571          5.14179121
   atom              16.33262147       -6.59909739       18.74004734  C
     velocity          -3.97568270          1.98497744         -4.40240070
   atom              17.48677948       -5.77227120       19.29133414  C
     velocity          -7.61918752          4.46916356         -5.67413476
   atom              18.31762412       -6.23786723       20.09821777  O
     velocity           1.78559696         -1.33132806          4.32912810
   atom              14.46874263       -5.88672874       17.99854855  H
     velocity          -0.33167693         -5.32932326         29.36305917
   atom              16.29414680       -7.54451551       19.41360611  H
     velocity          15.83979485          6.96324842        -12.07875648
   atom              16.54747189       -7.15293135       17.34765990  C
     velocity          -5.12975336          6.60178891         -4.15125798
   atom              17.54018480       -7.49652693       17.38898921  H
     velocity           6.36946897         11.32906927        -18.85607528
   atom              16.47373425       -6.29232636       16.57266153  H
     velocity          -5.39088965        -11.23421876          3.19788267
   atom              15.85616464       -7.85151014       17.05511940  H
     velocity           3.55815853        -39.62037952          9.91425730
   atom              17.50739472       -4.50366605       18.84925983  N
     velocity          -6.03628114          3.03707324          5.14499156
   atom              18.54661168       -3.54984928       19.30883703  C
     velocity          -5.50804540         -3.86384183          2.71659335
   atom              18.40262278       -3.37983495       20.84862116  C
     velocity         -10.11733575         -1.16579556         -6.04135362
   atom              19.40499871       -3.38615876       21.56895662  O
     velocity           5.81951109          2.22538063          0.51714651
   atom              16.82031713       -4.13978920       18.17436701  H
     velocity         -15.48847987        -21.07901221          7.03304518
   atom              19.45784914       -4.05005771       19.11736364  H
     velocity           7.25283781          5.08259703         -2.34229817
   atom              18.45449943       -2.24793771       18.61210642  C
     velocity           1.69961267          6.09727372          9.31056464
   atom              19.29078415       -1.53615013       19.08313908  H
     velocity          -3.66523569        -21.85178616         15.71255132
   atom              17.52621444       -1.68598140       18.78413784  H
     velocity          -3.28079451         -2.24363363          8.11186693
   atom              18.69976993       -2.29487321       17.52131732  H
     velocity          -2.53489686         12.88437127         13.90450954
   atom              17.12102993       -3.20222462       21.30142721  N
     velocity          -1.52968587         -0.00669415          0.64004615
   atom              16.99319032       -3.19136974       22.74029885  C
     velocity           5.15603464         -1.26189528         -2.22392477
   atom              17.55607446       -4.47126937       23.33872683  C
     velocity          -5.96021874         -2.91255607         -0.31423609
   atom              18.42263881       -4.42839506       24.35770389  O
     velocity           2.20398556          0.89525691         -2.88353806
   atom              16.31934889       -3.21213545       20.68316359  H
     velocity         -13.55128536        -13.10560869         -6.76320046
   atom              17.65996774       -2.32113512       23.22624990  H
     velocity          -1.35213067         -6.69650448        -11.47506412
   atom              15.61810751       -3.03270877       23.15957902  C
     velocity           7.47068281         -1.98189450         -0.78997092
   atom              15.54392565       -2.98350079       24.28607462  H
     velocity          -5.44265295        -22.54152164        -14.73020627
   atom              15.06215782       -3.77079681       22.65875152  H
     velocity          -4.15619301        -20.52747636          8.00099747
   atom              15.22964821       -2.06823624       22.74212185  H
     velocity          18.57524194         -3.81067307          4.32751363
   atom              17.18226394       -5.64219813       22.91262896  N
     velocity          -7.40236373          0.56222321          3.24241466
   atom              17.76684844       -6.85543663       23.46425764  C
     velocity          -1.99340387          4.94378703          0.46254315
   atom              19.37364235       -6.94502994       23.33934008  C
     velocity           6.14191675          9.60078740          5.43516142
   atom              19.87175008       -6.68342172       22.11736957  O
     velocity          -4.35442367         -7.41582669        -14.63538761
   atom              16.45461387       -5.72571191       22.17516848  H
     velocity         -15.31768603          1.61931348          3.45461510
   atom              17.45714444       -6.96310322       24.49304806  H
     velocity           8.13646432          9.27196344          4.97469969
   atom              17.02868174       -8.07466036       22.77119291  C
     velocity          -2.31844885          2.25331632          0.94844144
   atom              17.36686420       -8.98049513       23.33831598  H
     velocity          -3.77616755          9.23183504         -2.50353104
   atom              17.28800820       -8.16366175       21.71916304  H
     velocity           0.90671961        -19.16081786         -3.76822267
   atom              15.89459666       -8.04069668       22.89895850  H
     velocity           7.94296421         17.28343796        -10.26582519
   atom              19.90563094       -7.59102302       24.22882075  O
     velocity          -1.44081383         -2.05143354         -6.58807537
   atom              19.19358092       -6.57169476       21.44824954  H
     velocity         -31.62118614        -18.29617663        -28.57438494
   atom              18.99726914       -3.62753932       24.22845137  H
     velocity          -4.82138852        -60.67854783        -25.38611819
------------------------------------------------------------

------------------------------------------------------------------------------
  Final output of selected total energy values:

  The following output summarizes some interesting total energy values
  at the end of a run (AFTER all relaxation, molecular dynamics, etc.).

  | Total energy of the DFT / Hartree-Fock s.c.f. calculation      :        -145452.993111325 eV
  | Final zero-broadening corrected energy (caution - metals only) :        -145452.993111325 eV
  | For reference only, the value of 1 Hartree used in FHI-aims is :             27.211384500 eV

  Before relying on these values, please be sure to understand exactly which
  total energy value is referred to by a given number. Different objects may
  all carry the same name 'total energy'. Definitions:

  Total energy of the DFT / Hartree-Fock s.c.f. calculation:
  | Note that this energy does not include ANY quantities calculated after the
  | s.c.f. cycle, in particular not ANY RPA, MP2, etc. many-body perturbation terms.

  Final zero-broadening corrected energy:
  | For metallic systems only, a broadening of the occupation numbers at the Fermi
  | level can be extrapolated back to zero broadening by an electron-gas inspired
  | formula. For all systems that are not real metals, this value can be
  | meaningless and should be avoided.

------------------------------------------------------------------------------
  Methods described in the following list of references were used in this FHI-aims run.
  If you publish the results, please make sure to cite these reference if they apply.
  FHI-aims is an academic code, and for our developers (often, Ph.D. students
  and postdocs), scientific credit in the community is essential.
  Thank you for helping us!

  For any use of FHI-aims, please cite:

    Volker Blum, Ralf Gehrke, Felix Hanke, Paula Havu, Ville Havu,
    Xinguo Ren, Karsten Reuter, and Matthias Scheffler
    'Ab initio molecular simulations with numeric atom-centered orbitals'
    Computer Physics Communications 180, 2175-2196 (2009)
    http://dx.doi.org/10.1016/j.cpc.2009.06.022


  The scalable eigensolver library ELPA was used in your run.
  ELPA is essential especially for large systems on hundreds or thousands of CPUs.
  For ELPA, please cite:

    Andreas Marek, Volker Blum, Rainer Johanni, Ville Havu, Bruno Lang,
    Thomas Auckenthaler, Alexander Heinecke, Hans-Joachim Bungartz, and Hermann Lederer,
    'The ELPA Library - Scalable Parallel Eigenvalue Solutions
    for Electronic Structure Theory and Computational Science'
    The Journal of Physics: Condensed Matter 26, 213201 (2014).
    http://dx.doi.org/10.1088/0953-8984/26/21/213201


  For ELPA's efficient two-stage tridiagonalization used in your run, please cite:

    T. Auckenthaler, V. Blum, H.-J. Bungartz, T. Huckle, R. Johanni, L. Kraemer,
    B. Lang, H. Lederer, and P. R. Willems,
    'Parallel solution of partial symmetric eigenvalue problems'
    'from  electronic structure calculations'
    Parallel Computing 37, 783-794 (2011).
    http://dx.doi.org/10.1016/j.parco.2011.05.002


  For the real-space grid partitioning and parallelization used in this calculation, please cite:

    Ville Havu, Volker Blum, Paula Havu, and Matthias Scheffler,
    'Efficient O(N) integration for all-electron electronic structure calculation'
    'using numerically tabulated basis functions'
    Journal of Computational Physics 228, 8367-8379 (2009).
    http://dx.doi.org/10.1016/j.jcp.2009.08.008

  Of course, there are many other important community references, e.g., those cited in the
  above references. Our list is limited to references that describe implementations in the
  FHI-aims code. The reason is purely practical (length of this list) - please credit others as well.

------------------------------------------------------------
          Leaving FHI-aims.
          Date     :  20161204, Time     :  164343.496

          Computational steps:
          | Number of self-consistency cycles          :          112
          | Number of molecular dynamics steps         :           10
          | Number of force evaluations                :           10

          Detailed time accounting                     :  max(cpu_time)    wall_clock(cpu1)
          | Total time                                 :      196.252 s         197.443 s
          | Preparation time                           :        0.240 s           0.361 s
          | Grid partitioning                          :        4.876 s           4.867 s
          | Preloading free-atom quantities on grid    :        4.168 s           4.162 s
          | Free-atom superposition energy             :        0.356 s           0.345 s
          | Total time for integrations                :       19.865 s          19.661 s
          | Total time for solution of K.-S. equations :       46.279 s          46.211 s
          | Total time for EV reorthonormalization     :        1.572 s           1.568 s
          | Total time for density & force components  :       66.500 s          66.449 s
          | Total time for mixing                      :        0.452 s           0.192 s
          | Total time for Hartree multipole update    :        2.900 s           2.688 s
          | Total time for Hartree multipole sum       :       46.099 s          46.023 s
          | Total time for total energy evaluation     :        0.436 s           0.097 s
          | Total time for vdW correction              :        2.508 s           2.499 s

          Have a nice day.
------------------------------------------------------------
