  MPI-parallelism will be employed.
------------------------------------------------------------
          Invoking FHI-aims ...
          Version 180101-
          Git rev. (modified): fa29f3a Merge branch master of fhiaims.rzberlin.mp[...]
          Compiled on 2018/01/19 at 14:47:46 on host theobook132.

          When using FHI-aims, please cite the following reference:

          Volker Blum, Ralf Gehrke, Felix Hanke, Paula Havu,
          Ville Havu, Xinguo Ren, Karsten Reuter, and Matthias Scheffler,
          'Ab Initio Molecular Simulations with Numeric Atom-Centered Orbitals',
          Computer Physics Communications 180, 2175-2196 (2009)

          For any questions about FHI-aims, please visit the aimsclub website
          with its forums and wiki. Contributions to both the forums and the
          wiki are warmly encouraged - they are for you, and everyone is welcome there.

------------------------------------------------------------



  Date     :  20180214, Time     :  160409.383
  Time zero on CPU 1             :   0.560000000000000E-01  s.
  Internal wall clock time zero  :           287856249.383  s.

  FHI-aims created a unique identifier for this run for later identification
  aims_uuid : 3C4082FE-9A06-45B4-A5DD-FC6CD8D93157

  Using        8 parallel tasks.
  Task        0 on host theobook132 reporting.
  Task        1 on host theobook132 reporting.
  Task        2 on host theobook132 reporting.
  Task        3 on host theobook132 reporting.
  Task        4 on host theobook132 reporting.
  Task        5 on host theobook132 reporting.
  Task        6 on host theobook132 reporting.
  Task        7 on host theobook132 reporting.

  Performing system and environment tests:
  *** Environment variable OMP_NUM_THREADS is not set
  *** For performance reasons you might want to set it to 1
  | Stacksize not measured: no C compiler
  | Checking for scalapack...
  | No scalapack compiled in.

  Obtaining array dimensions for all initial allocations:
  
  -----------------------------------------------------------------------
  Parsing control.in (first pass over file, find array dimensions only).
  The contents of control.in will be repeated verbatim below
  unless switched off by setting 'verbatim_writeout .false.' .
  in the first line of control.in .
  -----------------------------------------------------------------------
  
  ################################################################################
  #
  #		Control.in generated by mkcontrol
  #
  ################################################################################
  xc			pbe
  vdw_correction_hirshfeld
  charge			-1.0
  relativistic		atomic_zora scalar
  sc_accuracy_rho		1E-5
  sc_accuracy_eev		1E-3
  sc_accuracy_etot	1E-6
  sc_iter_limit		1000	
  
  compute_forces .true.
  final_forces_cleaned .true.
  
  
  ################################################################################
  #
  #  FHI-aims code project
  # Volker Blum, Fritz Haber Institute Berlin, 2009
  #
  #  Suggested "tight" defaults for H atom (to be pasted into control.in file)
  #
  ################################################################################
    species        H
  #     global species definitions
      nucleus             1
      mass                1.00794
  #
      l_hartree           6
  #
      cut_pot             4.0  2.0  1.0
      basis_dep_cutoff    1e-4
  #
      radial_base         24 7.0
      radial_multiplier   2
      angular_grids       specified
        division   0.1930   50
        division   0.3175  110
        division   0.4293  194
        division   0.5066  302
        division   0.5626  434
  #      division   0.5922  590
  #      division   0.6227  974
  #      division   0.6868 1202
  #      outer_grid  770
        outer_grid  434
  ################################################################################
  #
  #  Definition of "minimal" basis
  #
  ################################################################################
  #     valence basis states
      valence      1  s   1.
  #     ion occupancy
      ion_occ      1  s   0.5
  ################################################################################
  #
  #  Suggested additional basis functions. For production calculations,
  #  uncomment them one after another (the most important basis functions are
  #  listed first).
  #
  #  Basis constructed for dimers: 0.5 A, 0.7 A, 1.0 A, 1.5 A, 2.5 A
  #
  ################################################################################
  #  "First tier" - improvements: -1014.90 meV to -62.69 meV
       hydro 2 s 2.1
       hydro 2 p 3.5
  #  "Second tier" - improvements: -12.89 meV to -1.83 meV
       hydro 1 s 0.85
       hydro 2 p 3.7
       hydro 2 s 1.2
       hydro 3 d 7
  #  "Third tier" - improvements: -0.25 meV to -0.12 meV
  #     hydro 4 f 11.2
  #     hydro 3 p 4.8
  #     hydro 4 d 9
  #     hydro 3 s 3.2
  
  
  
  ################################################################################
  #
  #  FHI-aims code project
  # Volker Blum, Fritz Haber Institute Berlin, 2009
  #
  #  Suggested "tight" defaults for C atom (to be pasted into control.in file)
  #
  ################################################################################
    species        C
  #     global species definitions
      nucleus             6
      mass                12.0107
  #
      l_hartree           6
  #
      cut_pot             4.0  2.0  1.0
      basis_dep_cutoff    1e-4
  #
      radial_base         34 7.0
      radial_multiplier   2
      angular_grids specified
        division   0.2187   50
        division   0.4416  110
        division   0.6335  194
        division   0.7727  302
        division   0.8772  434
  #      division   0.9334  590
  #      division   0.9924  770
  #      division   1.0230  974
  #      division   1.5020 1202
  #     outer_grid  974
        outer_grid  434
  ################################################################################
  #
  #  Definition of "minimal" basis
  #
  ################################################################################
  #     valence basis states
      valence      2  s   2.
      valence      2  p   2.
  #     ion occupancy
      ion_occ      2  s   1.
      ion_occ      2  p   1.
  ################################################################################
  #
  #  Suggested additional basis functions. For production calculations,
  #  uncomment them one after another (the most important basis functions are
  #  listed first).
  #
  #  Constructed for dimers: 1.0 A, 1.25 A, 1.5 A, 2.0 A, 3.0 A
  #
  ################################################################################
  #  "First tier" - improvements: -1214.57 meV to -155.61 meV
       hydro 2 p 1.7
       hydro 3 d 6
       hydro 2 s 4.9
  #  "Second tier" - improvements: -67.75 meV to -5.23 meV
       hydro 4 f 9.8
       hydro 3 p 5.2
       hydro 3 s 4.3
       hydro 5 g 14.4
       hydro 3 d 6.2
  #  "Third tier" - improvements: -2.43 meV to -0.60 meV
  #     hydro 2 p 5.6
  #     hydro 2 s 1.4
  #     hydro 3 d 4.9
  #     hydro 4 f 11.2
  #  "Fourth tier" - improvements: -0.39 meV to -0.18 meV
  #     hydro 2 p 2.1
  #     hydro 5 g 16.4
  #     hydro 4 d 13.2
  #     hydro 3 s 13.6
  #     hydro 4 f 17.6
  #  Further basis functions - improvements: -0.08 meV and below
  #     hydro 3 s 2
  #     hydro 3 p 6
  #     hydro 4 d 20
  
  ################################################################################
  #
  #  FHI-aims code project
  #  VB, Fritz-Haber Institut, 2009
  #
  #  Suggested "light" defaults for Cl atom (to be pasted into control.in file)
  #  Be sure to double-check any results obtained with these settings for
  #post-processing,
  #  e.g., with the "tight" defaults and larger basis sets.
  #
  ################################################################################
    species        Cl
  #     global species definitions
      nucleus             17
      mass                35.453
  #
      l_hartree           4
  #
      cut_pot             3.5          1.5  1.0
      basis_dep_cutoff    1e-4
  #
      radial_base         45 5.0
      radial_multiplier   1
      angular_grids       specified
        division   0.4412  110
        division   0.5489  194
        division   0.6734  302
  #      division   0.7794  434
  #      division   0.9402  590
  #      division   1.0779  770
  #      division   1.1792  974
  #      outer_grid  974
        outer_grid  302
  ################################################################################
  #
  #  Definition of "minimal" basis
  #
  ################################################################################
  #     valence basis states
      valence      3  s   2.
      valence      3  p   5.
  #     ion occupancy
      ion_occ      3  s   1.
      ion_occ      3  p   4.
  ################################################################################
  #
  #  Suggested additional basis functions. For production calculations,
  #  uncomment them one after another (the most important basis functions are
  #  listed first).
  #
  #  Constructed for dimers: 1.65 A, 2.0 A, 2.5 A, 3.25 A, 4.0 A
  #
  ################################################################################
  #  "First tier" - improvements: -429.57 meV to -15.03 meV
       ionic 3 d auto
       hydro 2 p 1.9
  #     hydro 4 f 7.4
       ionic 3 s auto
  #     hydro 5 g 10.4
  #  "Second tier" - improvements: -7.84 meV to -0.48 meV
  #     hydro 3 d 3.3
  #     hydro 5 f 9.8
  #     hydro 1 s 0.75
  #     hydro 5 g 11.2
  #     hydro 4 p 10.4
  #  "Third tier" - improvements: -1.00 meV to -0.12 meV
  #     hydro 4 d 12.8
  #     hydro 4 f 4.6
  #     hydro 4 d 10.8
  #     hydro 2 s 1.8
  #     hydro 3 p 3
  #  Further functions that fell out - improvements: -0.10 meV and below
  #     hydro 5 f 14.4
  #     hydro 4 s 12.8
  #     hydro 3 d 11.6
  #     hydro 4 s 4.1
  
  -----------------------------------------------------------------------
  Completed first pass over input file control.in .
  -----------------------------------------------------------------------
  
  
  -----------------------------------------------------------------------
  Parsing geometry.in (first pass over file, find array dimensions only).
  The contents of geometry.in will be repeated verbatim below
  unless switched off by setting 'verbatim_writeout .false.' .
  in the first line of geometry.in .
  -----------------------------------------------------------------------
  
  #=======================================#
  # iterations/iteration0016/aims-chain-node-0.28571/geometry.in
  #=======================================#
  atom 0.0000000000000000 0.0000000000000000 0.0000000000000000 Cl
  constrain_relaxation .true.
  atom 2.8515202497631309 0.0000000000000000 -0.0000000000031826 C
  constrain_relaxation y
  atom 4.7470667373235509 0.0000000000000000 0.0000000000075981 Cl
  constrain_relaxation y
  atom 2.5314626837563567 1.0421148321818392 -0.0000000000038043 H
  atom 2.5313141495935683 -0.5210169210075042 0.9024819786554327 H
  atom 2.5313141495944498 -0.5210169210074187 -0.9024819786628993 H
  
  -----------------------------------------------------------------------
  Completed first pass over input file geometry.in .
  -----------------------------------------------------------------------
  

  Basic array size parameters:
  | Number of species                 :        3
  | Number of atoms                   :        6
  | Max. basis fn. angular momentum   :        4
  | Max. atomic/ionic basis occupied n:        3
  | Max. number of basis fn. types    :        3
  | Max. radial fns per species/type  :        8
  | Max. logarithmic grid size        :     1362
  | Max. radial integration grid size :       69
  | Max. angular integration grid size:      434
  | Max. angular grid division number :        8
  | Radial grid for Hartree potential :     1362
  | Number of spin channels           :        1

------------------------------------------------------------
          Reading file control.in.
------------------------------------------------------------
  XC: Using PBE gradient-corrected functionals.
  Charged system requested: Charge =  -0.100000E+01.
  Scalar relativistic treatment of kinetic energy: on-site free-atom approximation to ZORA.
  Convergence accuracy of self-consistent charge density:  0.1000E-04
  Convergence accuracy of sum of eigenvalues:  0.1000E-02
  Convergence accuracy of total energy:  0.1000E-05
  Maximum number of s.-c. iterations  :  1000
  Forces will be computed.
  Cleaning forces before final output.
 
  Reading configuration options for species H                   .
  | Found nuclear charge :   1.0000
  | Found atomic mass :    1.00794000000000      amu
  | Found l_max for Hartree potential  :   6
  | Found cutoff potl. onset [A], width [A], scale factor :    4.00000    2.00000    1.00000
  | Threshold for basis-dependent cutoff potential is   0.100000E-03
  | Found data for basic radial integration grid :    24 points, outermost radius =    7.000 A
  | Found multiplier for basic radial grid :   2
  | Found angular grid specification: user-specified.
  | Specified grid contains     6 separate shells.
  | Check grid settings after all constraints further below.
  | Found free-atom valence shell :  1 s   1.000
  | Found free-ion valence shell :  1 s   0.500
  | Found hydrogenic basis function :  2 s   2.100
  | Found hydrogenic basis function :  2 p   3.500
  | Found hydrogenic basis function :  1 s   0.850
  | Found hydrogenic basis function :  2 p   3.700
  | Found hydrogenic basis function :  2 s   1.200
  | Found hydrogenic basis function :  3 d   7.000
  Species H                   : Missing cutoff potential type.
  Defaulting to exp(1/x)/(1-x)^2 type cutoff potential.
  Species H : No 'logarithmic' tag. Using default grid for free atom:
  | Default logarithmic grid data [bohr] : 0.1000E-03 0.1000E+03 0.1012E+01
  Species H : On-site basis accuracy parameter (for Gram-Schmidt orthonormalisation) not specified.
  Using default value basis_acc =  0.1000000E-03.
  Species H                   : Using default innermost maximum threshold i_radial=  2 for radial functions.
  Species H                   : Default cutoff onset for free atom density etc. : 0.40000000E+01 AA.
  Species H                   : Basic radial grid will be enhanced according to radial_multiplier =   2, to contain    49 grid points.
 
  Reading configuration options for species C                   .
  | Found nuclear charge :   6.0000
  | Found atomic mass :    12.0107000000000      amu
  | Found l_max for Hartree potential  :   6
  | Found cutoff potl. onset [A], width [A], scale factor :    4.00000    2.00000    1.00000
  | Threshold for basis-dependent cutoff potential is   0.100000E-03
  | Found data for basic radial integration grid :    34 points, outermost radius =    7.000 A
  | Found multiplier for basic radial grid :   2
  | Found angular grid specification: user-specified.
  | Specified grid contains     6 separate shells.
  | Check grid settings after all constraints further below.
  | Found free-atom valence shell :  2 s   2.000
  | Found free-atom valence shell :  2 p   2.000
  | Found free-ion valence shell :  2 s   1.000
  | Found free-ion valence shell :  2 p   1.000
  | Found hydrogenic basis function :  2 p   1.700
  | Found hydrogenic basis function :  3 d   6.000
  | Found hydrogenic basis function :  2 s   4.900
  | Found hydrogenic basis function :  4 f   9.800
  | Found hydrogenic basis function :  3 p   5.200
  | Found hydrogenic basis function :  3 s   4.300
  | Found hydrogenic basis function :  5 g  14.400
  | Found hydrogenic basis function :  3 d   6.200
  Species C                   : Missing cutoff potential type.
  Defaulting to exp(1/x)/(1-x)^2 type cutoff potential.
  Species C : No 'logarithmic' tag. Using default grid for free atom:
  | Default logarithmic grid data [bohr] : 0.1000E-03 0.1000E+03 0.1012E+01
  Species C : On-site basis accuracy parameter (for Gram-Schmidt orthonormalisation) not specified.
  Using default value basis_acc =  0.1000000E-03.
  Species C                   : Using default innermost maximum threshold i_radial=  2 for radial functions.
  Species C                   : Default cutoff onset for free atom density etc. : 0.40000000E+01 AA.
  Species C                   : Basic radial grid will be enhanced according to radial_multiplier =   2, to contain    69 grid points.
 
  Reading configuration options for species Cl                  .
  | Found nuclear charge :  17.0000
  | Found atomic mass :    35.4530000000000      amu
  | Found l_max for Hartree potential  :   4
  | Found cutoff potl. onset [A], width [A], scale factor :    3.50000    1.50000    1.00000
  | Threshold for basis-dependent cutoff potential is   0.100000E-03
  | Found data for basic radial integration grid :    45 points, outermost radius =    5.000 A
  | Found multiplier for basic radial grid :   1
  | Found angular grid specification: user-specified.
  | Specified grid contains     4 separate shells.
  | Check grid settings after all constraints further below.
  | Found free-atom valence shell :  3 s   2.000
  | Found free-atom valence shell :  3 p   5.000
  | Found free-ion valence shell :  3 s   1.000
  | Found free-ion valence shell :  3 p   4.000
  | Found ionic basis function :  3 d , default cutoff radius.
  | Found hydrogenic basis function :  2 p   1.900
  | Found ionic basis function :  3 s , default cutoff radius.
  Species Cl                  : Missing cutoff potential type.
  Defaulting to exp(1/x)/(1-x)^2 type cutoff potential.
  Species Cl: No 'logarithmic' tag. Using default grid for free atom:
  | Default logarithmic grid data [bohr] : 0.1000E-03 0.1000E+03 0.1012E+01
  | Will include ionic basis functions of  2.0-fold positive Cl                   ion.
  Species Cl: On-site basis accuracy parameter (for Gram-Schmidt orthonormalisation) not specified.
  Using default value basis_acc =  0.1000000E-03.
  Species Cl                  : Using default innermost maximum threshold i_radial=  2 for radial functions.
  Species Cl                  : Default cutoff onset for free atom density etc. : 0.35000000E+01 AA.
  Species Cl                  : Basic radial grid will be enhanced according to radial_multiplier =   1, to contain    45 grid points.
 
  Finished reading input file 'control.in'. Consistency checks are next.
 
  MPI_IN_PLACE appears to work with this MPI implementation.
  | Keeping use_mpi_in_place .true. (see manual).
  Target number of points in a grid batch is not set. Defaulting to  100
  Method for grid partitioning is not set. Defaulting to parallel hash+maxmin partitioning.
  Batch size limit is not set. Defaulting to    200
  By default, will store active basis functions for each batch.
  If in need of memory, prune_basis_once .false. can be used to disable this option.
  communication_type for Hartree potential was not specified.
  Defaulting to calc_hartree .
  Defaulting to Pulay charge density mixer.
  Pulay mixer: Number of relevant iterations not set.
  Defaulting to    8 iterations.
  Pulay mixer: Number of initial linear mixing iterations not set.
  Defaulting to    0 iterations.
  Work space size for distributed Hartree potential not set.
  Defaulting to   0.200000E+03 MB.
  Mixing parameter for charge density mixing has not been set.
  Using default: charge_mix_param =     0.0500.
  The mixing parameter will be adjusted in iteration number     2 of the first full s.c.f. cycle only.
  Algorithm-dependent basis array size parameters:
  | n_max_pulay                         :        8
  Presetting        40 iterations before the initial mixing cycle
  is restarted anyway using the sc_init_iter criterion / keyword.
  Presetting a factor      1.000 between actual scf density residual
  and density convergence criterion sc_accuracy_rho below which sc_init_iter
  takes no effect.
  Geometry relaxation not requested: no relaxation will be performed.
  Force calculation: scf convergence accuracy of forces not set.
  Defaulting to 'sc_accuracy_forces not_checked'.
  Handling of forces: Unphysical translation and rotation will be removed from forces.
  No accuracy limit for integral partition fn. given. Defaulting to  0.1000E-14.
  No threshold value for u(r) in integrations given. Defaulting to  0.1000E-05.
  No occupation type (smearing scheme) given. Defaulting to Gaussian broadening, width =  0.1000E-01 eV.
  The width will be adjusted in iteration number     2 of the first full s.c.f. cycle only.
  S.C.F. convergence parameters will be adjusted in iteration number     2 of the first full s.c.f. cycle only.
  No accuracy for occupation numbers given. Defaulting to  0.1000E-12.
  No threshold value for occupation numbers given. Defaulting to  0.0000E+00.
  No accuracy for fermi level given. Defaulting to  0.1000E-19.
  Maximum # of iterations to find E_F not set. Defaulting to  200.
  Preferred method for the eigenvalue solver ('KS_method') not specified in 'control.in'.
  Calling BLACS routine to test compilation state
  The best choice would be 'elsi', but your version of FHI-aims is compiled without ScaLAPACK support.
  Defaulting to 'lapack_fast' instead (serial solution, time will not improve with more CPUs).
  Will not use alltoall communication since running on < 1024 CPUs.
  Threshold for basis singularities not set.
  Default threshold for basis singularities:  0.1000E-04
  partition_type (choice of integration weights) for integrals was not specified.
  | Using a version of the partition function of Stratmann and coworkers ('stratmann_smoother').
  | At each grid point, the set of atoms used to build the partition table is smoothly restricted to
  | only those atoms whose free-atom density would be non-zero at that grid point.
  Partitioning for Hartree potential was not defined. Using partition_type for integrals.
  | Adjusted default value of keyword multip_moments_threshold to:       0.10000000E-11
  | This value may affect high angular momentum components of the Hartree potential in periodic systems.
  Spin handling was not defined in control.in. Defaulting to unpolarized case.
  No q(lm)/r^(l+1) cutoff set for long-range Hartree potential.
  | Using default value of  0.100000E-09 .
  | Verify using the multipole_threshold keyword.
  Defaulting to new monopole extrapolation.
  Density update method: automatic selection selected.
------------------------------------------------------------


------------------------------------------------------------
          Reading geometry description geometry.in.
------------------------------------------------------------
 No relaxation requested - ignoring relaxation constraint.
 No relaxation requested - ignoring relaxation constraint.
 No relaxation requested - ignoring relaxation constraint.
 * Warning: Initial charge and total charge of the system are inconsistent.
 * Selected charge in control.in:    -1.0000* Sum of initial charges in geometry.in:     0.0000
  Input structure read successfully.
  The structure contains        6 atoms,  and a total of         44.000 electrons.

  Input geometry:
  | No unit cell requested.
  | Atomic structure:
  |       Atom                x [A]            y [A]            z [A]
  |    1: Species Cl            0.00000000        0.00000000        0.00000000
  |    2: Species C             2.85152025        0.00000000       -0.00000000
  |    3: Species Cl            4.74706674        0.00000000        0.00000000
  |    4: Species H             2.53146268        1.04211483       -0.00000000
  |    5: Species H             2.53131415       -0.52101692        0.90248198
  |    6: Species H             2.53131415       -0.52101692       -0.90248198
  |

  | The smallest distance between any two atoms is         1.09015603 AA.
  |
  | The first atom of this pair is atom number                      2 .
  | The second atom of this pair is atom number                     4 .

  Number of empty states per atom not set in control.in - providing a guess from actual geometry.
  | Total number of empty states used during s.c.f. cycle:       14
  If you use a very high smearing, use empty_states (per atom!) in control.in to increase this value.

  Structure-dependent array size parameters: 
  | Maximum number of distinct radial functions  :       26
  | Maximum number of basis functions            :      120
  | Number of Kohn-Sham states (occupied + empty):       36
------------------------------------------------------------

------------------------------------------------------------
          Preparing all fixed parts of the calculation.
------------------------------------------------------------
  Determining machine precision:
    2.225073858507201E-308
  Setting up grids for atomic and cluster calculations.

  Creating wave function, potential, and density for free atoms.

  Species: H

  List of occupied orbitals and eigenvalues:
    n    l              occ      energy [Ha]    energy [eV]
    1    0           1.0000        -0.238386        -6.4868


  Species: C

  List of occupied orbitals and eigenvalues:
    n    l              occ      energy [Ha]    energy [eV]
    1    0           2.0000       -10.049212      -273.4530
    2    0           2.0000        -0.504761       -13.7352
    2    1           2.0000        -0.193631        -5.2690


  Species: Cl

  List of occupied orbitals and eigenvalues:
    n    l              occ      energy [Ha]    energy [eV]
    1    0           2.0000      -101.451673     -2760.6405
    2    0           2.0000        -9.288282      -252.7470
    3    0           2.0000        -0.759332       -20.6625
    2    1           6.0000        -7.042657      -191.6405
    3    1           5.0000        -0.314806        -8.5663

  Creating fixed part of basis set: Ionic, confined, hydrogenic.
 
  H                    hydrogenic:
 
  List of hydrogenic basis orbitals: 
    n    l      effective z      eigenvalue [eV]  inner max. [A]     outer max. [A]     outer radius [A]   
    2    0         2.100000       -14.9965           0.193243           1.317208           5.373006
    2    1         3.500000       -41.6672           0.602369           0.602369           4.056063
    1    0         0.850000        -9.8292           0.624871           0.624871           5.373006
    2    1         3.700000       -46.5653           0.573622           0.573622           3.910002
    2    0         1.200000        -4.5995           0.334980           2.228188           5.505995
    3    2         7.000000       -74.0753           0.680699           0.680699           3.769201
 
 
  C                    hydrogenic:
 
  List of hydrogenic basis orbitals: 
    n    l      effective z      eigenvalue [eV]  inner max. [A]     outer max. [A]     outer radius [A]   
    2    1         1.700000        -9.8152           1.245706           1.245706           5.401630
    3    2         6.000000       -54.4226           0.792453           0.792453           4.178599
    2    0         4.900000       -81.6681           0.082559           0.562749           3.353238
    4    3         9.800000       -81.6681           0.863254           0.863254           4.028125
    3    1         5.200000       -40.8774           0.305389           1.215618           4.898362
    3    0         4.300000       -27.9508           0.091041           1.610311           5.401630
    5    4        14.400000      -112.8510           0.917666           0.917666           3.883070
    3    2         6.200000       -58.1113           0.763917           0.763917           4.077671
 
 
  Cl                   ion:

  List of free ionic orbitals and eigenvalues:
    n    l      energy [Ha]    energy [eV]
    1    0      -102.554413     -2790.6476
    2    0       -10.359555      -281.8978
    3    0        -1.672516       -45.5115
    2    1        -8.116241      -220.8542
    3    1        -1.184158       -32.2226


  List of ionic basis orbitals and eigenvalues:
    n    l      energy [Ha]    energy [eV]    outer radius [A]
    3    2        -0.527851       -14.3636       4.541334
    3    0        -1.672502       -45.5111       3.428237

 
  Cl                   hydrogenic:
 
  List of hydrogenic basis orbitals: 
    n    l      effective z      eigenvalue [eV]  inner max. [A]     outer max. [A]     outer radius [A]   
    2    1         1.900000       -12.2492           1.113321           1.113321           4.597192
 

  Adding cutoff potential to free-atom effective potential.
  Creating atomic-like basis functions for current effective potential.

  Species H                   :

  List of atomic basis orbitals and eigenvalues:
    n    l      energy [Ha]    energy [eV]    outer radius [A]
    1    0        -0.238386        -6.4868       5.373006


  Species C                   :

  List of atomic basis orbitals and eigenvalues:
    n    l      energy [Ha]    energy [eV]    outer radius [A]
    1    0       -10.049212      -273.4530       1.934409
    2    0        -0.504761       -13.7352       5.271162
    2    1        -0.193631        -5.2690       5.401630


  Species Cl                  :

  List of atomic basis orbitals and eigenvalues:
    n    l      energy [Ha]    energy [eV]    outer radius [A]
    1    0      -101.451673     -2760.6405       0.642251
    2    0        -9.288282      -252.7470       2.102331
    3    0        -0.759332       -20.6625       4.431645
    2    1        -7.042657      -191.6405       2.346844
    3    1        -0.314806        -8.5663       4.541334

  Assembling full basis from fixed parts.
  | Species H :   atomic orbital   1 s accepted.
  | Species H :    hydro orbital   2 s accepted.
  | Species H :    hydro orbital   1 s accepted.
  | Species H :    hydro orbital   2 s accepted.
  | Species H :    hydro orbital   2 p accepted.
  | Species H :    hydro orbital   2 p accepted.
  | Species H :    hydro orbital   3 d accepted.
  | Species C :   atomic orbital   1 s accepted.
  | Species C :    hydro orbital   2 s accepted.
  | Species C :   atomic orbital   2 s accepted.
  | Species C :    hydro orbital   3 s accepted.
  | Species C :    hydro orbital   3 p accepted.
  | Species C :   atomic orbital   2 p accepted.
  | Species C :    hydro orbital   2 p accepted.
  | Species C :    hydro orbital   3 d accepted.
  | Species C :    hydro orbital   3 d accepted.
  | Species C :    hydro orbital   4 f accepted.
  | Species C :    hydro orbital   5 g accepted.
  | Species Cl :   atomic orbital   1 s accepted.
  | Species Cl :   atomic orbital   2 s accepted.
  | Species Cl :    ionic orbital   3 s accepted.
  | Species Cl :   atomic orbital   3 s accepted.
  | Species Cl :   atomic orbital   2 p accepted.
  | Species Cl :   atomic orbital   3 p accepted.
  | Species Cl :    hydro orbital   2 p accepted.
  | Species Cl :    ionic orbital   3 d accepted.
 
  Basis size parameters after reduction:
  | Total number of radial functions:       26
  | Total number of basis functions :      120
 
  Per-task memory consumption for arrays in subroutine allocate_ext:
  |           9.070220MB.
  Testing on-site integration grid accuracy.
  |  Species  Function  <phi|h_atom|phi> (log., in eV)  <phi|h_atom|phi> (rad., in eV)
           1        1                 -6.4870767962                 -6.4871688290
           1        2                 13.5032046589                 13.5028982997
           1        3                 32.8195184817                 32.8119941656
           1        4                 33.8513856511                 33.7670005767 ***
           1        5                 28.8544614965                 28.8544615203
           1        6                 59.6326952547                 59.6327656460
           1        7                 60.2719308513                 60.2719305949
           2        8               -273.4529726040               -273.4529710510
           2        9                -10.7721037319                -10.7721022091
           2       10                 17.6044132601                 17.6044162068
           2       11                 53.7706460658                 53.7706913775
           2       12                 15.0973290362                 15.0973256023
           2       13                  3.8545134692                  3.8545724671
           2       14                 12.1156992592                 12.1182024429
           2       15                 29.4352039302                 29.4352041819
           2       16                 54.8741144708                 54.8740268730
           2       17                 59.3556032049                 59.3556031384
           2       18                 93.4551837154                 93.4551838010
           3       19              -2760.6404887023              -2760.6391663390
           3       20               -252.7470135404               -252.7470033792
           3       21                -20.4099766545                -20.4099452961
           3       22                  8.9880683035                  8.9931146792
           3       23               -191.6404587283               -191.6404582884
           3       24                 -8.5668684731                 -8.5677140829
           3       25                  8.1442214099                  8.1082388447 ***
           3       26                  7.0580434359                  7.0555511342
 * Note: Onsite integrals marked "***" above are less accurate than
 * onsite_accuracy_threshold =    0.03000 eV. Usually, this is harmless.
 * When in doubt, tighten the "radial" and/or "radial_multiplier" flags to check.

  Preparing densities etc. for the partition functions (integrals / Hartree potential).

  Preparations completed.
  max(cpu_time)          :      0.388 s.
  Wall clock time (cpu1) :      0.480 s.
------------------------------------------------------------

------------------------------------------------------------
          Begin self-consistency loop: Initialization.

          Date     :  20180214, Time     :  160409.889
------------------------------------------------------------

  Initializing index lists of integration centers etc. from given atomic structure:
  | Number of centers in hartree potential         :         6
  | Number of centers in hartree multipole         :         6
  | Number of centers in electron density summation:         6
  | Number of centers in basis integrals           :         6
  | Number of centers in integrals                 :         6
  | Number of centers in hamiltonian               :         6
  Partitioning the integration grid into batches with parallel hashing+maxmin method.
  | Number of batches:     1024
  | Maximal batch size:     200
  | Minimal batch size:      49
  | Average batch size:      77.859
  | Standard deviation of batch sizes:      25.041

  Integration load balanced across     8 MPI tasks.
  Work distribution over tasks is as follows:
  Task     0 has       9937 integration points.
  Task     1 has       9999 integration points.
  Task     2 has      10024 integration points.
  Task     3 has       9911 integration points.
  Task     4 has       9998 integration points.
  Task     5 has       9933 integration points.
  Task     6 has       9994 integration points.
  Task     7 has       9932 integration points.
  Initializing partition tables, free-atom densities, potentials, etc. across the integration grid (initialize_grid_storage).
  | initialize_grid_storage: Actual outermost partition radius vs. multipole_radius_free
  | (-- VB: in principle, multipole_radius_free should be larger, hence this output)
  | Species        1: Confinement radius =              6.000000000000000 AA, multipole_radius_free =              6.071692442739658 AA.
  | Species        1: outer_partition_radius set to              6.071692442739658 AA .
  | Species        2: Confinement radius =              6.000000000000000 AA, multipole_radius_free =              6.029870734432609 AA.
  | Species        2: outer_partition_radius set to              6.029870734432609 AA .
  | Species        3: Confinement radius =              4.999999999999999 AA, multipole_radius_free =              5.007919576009533 AA.
  | Species        3: outer_partition_radius set to              5.007919576009533 AA .
  | Original list of interatomic distances with           6 x          6 entries is created.
  | Net number of integration points:    79728
  | of which are non-zero points    :    69231
  Renormalizing the initial density to the exact electron count on the 3D integration grid.
  | Initial density: Formal number of electrons (from input files) :      43.0000000000
  | Integrated number of electrons on 3D grid     :      42.9999355429
  | Charge integration error                      :      -0.0000644571
  | Normalization factor for density and gradient :       1.0000014990
  Obtaining max. number of non-zero basis functions in each batch (get_n_compute_maxes).
  | Maximal number of non-zero basis functions:      118 in task     0
  | Maximal number of non-zero basis functions:      117 in task     1
  | Maximal number of non-zero basis functions:      118 in task     2
  | Maximal number of non-zero basis functions:      118 in task     3
  | Maximal number of non-zero basis functions:      118 in task     4
  | Maximal number of non-zero basis functions:      118 in task     5
  | Maximal number of non-zero basis functions:      118 in task     6
  | Maximal number of non-zero basis functions:      118 in task     7
  Selecting the method for density update.
  Loop over occupied states selected for charge density update.
  Allocating        0.035 MB for KS_eigenvector
  Integrating Hamiltonian matrix: batch-based integration.
  Time summed over all CPUs for integration: real work        2.026 s, elapsed        2.163 s
  Integrating overlap matrix.
  Time summed over all CPUs for integration: real work        0.758 s, elapsed        0.878 s

  Updating Kohn-Sham eigenvalues, eigenvectors, occupation numbers, and Fermi level.
  Solving generalized eigenproblem
  Updating Kohn-Sham eigenvalues and eigenfunctions.
  Transforming overlap matrix and checking for singularities.
  Overlap matrix is nonsingular:
  | Lowest eigenvalue:  0.206867E-03
  Solving real generalised eigenvalue problem by standard LAPACK (fast)

  Obtaining occupation numbers and chemical potential using ELSI.
  | Chemical potential (Fermi level):    -4.15803242eV
  Writing Kohn-Sham eigenvalues.

  State    Occupation    Eigenvalue [Ha]    Eigenvalue [eV]
      1       2.00000        -101.459108        -2760.84279
      2       2.00000        -101.452305        -2760.65768
      3       2.00000         -10.163083         -276.55155
      4       2.00000          -9.296597         -252.97328
      5       2.00000          -9.288991         -252.76631
      6       2.00000          -7.051703         -191.88661
      7       2.00000          -7.050440         -191.85223
      8       2.00000          -7.050440         -191.85223
      9       2.00000          -7.043417         -191.66113
     10       2.00000          -7.043329         -191.65873
     11       2.00000          -7.043329         -191.65873
     12       2.00000          -0.849408          -23.11357
     13       2.00000          -0.765492          -20.83010
     14       2.00000          -0.737966          -20.08107
     15       2.00000          -0.535137          -14.56183
     16       2.00000          -0.535135          -14.56175
     17       2.00000          -0.449258          -12.22494
     18       2.00000          -0.324181           -8.82141
     19       2.00000          -0.324180           -8.82139
     20       2.00000          -0.317094           -8.62856
     21       2.00000          -0.315625           -8.58859
     22       2.00000          -0.315625           -8.58859
     23       0.00000          -0.125294           -3.40942
     24       0.00000          -0.044234           -1.20367
     25       0.00000           0.002123            0.05778
     26       0.00000           0.002127            0.05788
     27       0.00000           0.059963            1.63168
     28       0.00000           0.059964            1.63170
     29       0.00000           0.101066            2.75015
     30       0.00000           0.129799            3.53202
     31       0.00000           0.170724            4.64565
     32       0.00000           0.170728            4.64575
     33       0.00000           0.198164            5.39231
     34       0.00000           0.198168            5.39243
     35       0.00000           0.218912            5.95691
     36       0.00000           0.244475            6.65250

  Highest occupied state (VBM) at     -8.58859291 eV
  | Occupation number:      2.00000000

  Lowest unoccupied state (CBM) at    -3.40942484 eV
  | Occupation number:      0.00000000

  Overall HOMO-LUMO gap:      5.17916807 eV.
  Calculating total energy contributions from superposition of free atom densities.

  Total energy components:
  | Sum of eigenvalues            :        -558.82368580 Ha      -15206.36618211 eV
  | XC energy correction          :         -62.46951195 Ha       -1699.88190917 eV
  | XC potential correction       :          80.71007379 Ha        2196.23285105 eV
  | Free-atom electrostatic energy:        -424.19546291 Ha      -11542.94584445 eV
  | Hartree energy correction     :           0.00000000 Ha           0.00000000 eV
  | vdW energy correction         :           0.00000000 Ha           0.00000000 eV
  | Entropy correction            :           0.00000000 Ha           0.00000000 eV
  | ---------------------------
  | Total energy                  :        -964.77858687 Ha      -26252.96108469 eV
  | Total energy, T -> 0          :        -964.77858687 Ha      -26252.96108469 eV  <-- do not rely on this value for anything but (periodic) metals
  | Electronic free energy        :        -964.77858687 Ha      -26252.96108469 eV

  Derived energy quantities:
  | Kinetic energy                :         967.26209641 Ha       26320.54081761 eV
  | Electrostatic energy          :       -1869.57117133 Ha      -50873.61999312 eV
  | Energy correction for multipole
  | error in Hartree potential    :           0.00000000 Ha           0.00000000 eV
  | Sum of eigenvalues per atom                           :       -2534.39436368 eV
  | Total energy (T->0) per atom                          :       -4375.49351411 eV  <-- do not rely on this value for anything but (periodic) metals
  | Electronic free energy per atom                       :       -4375.49351411 eV
  Initialize hartree_potential_storage
  Max. number of atoms included in rho_multipole:            6

  End scf initialization - timings             :  max(cpu_time)    wall_clock(cpu1)
  | Time for scf. initialization               :        0.604 s           0.607 s
  | Boundary condition initialization          :        0.000 s           0.000 s
  | Integration                                :        0.384 s           0.381 s
  | Solution of K.-S. eqns.                    :        0.016 s           0.016 s
  | Grid partitioning                          :        0.092 s           0.093 s
  | Preloading free-atom quantities on grid    :        0.024 s           0.022 s
  | Free-atom superposition energy             :        0.024 s           0.022 s
  | Total energy evaluation                    :        0.000 s           0.001 s

  Partial memory accounting:
  | Current value for overall tracked memory usage on task 0  :           0.267 MB
  | Peak value for overall tracked memory usage on task 0     :           0.832 MB after allocating wave
  | Largest tracked array allocation on task 0 so far         :           0.189 MB  when allocating H_times_psi
  Note:  These values currently only include a subset of arrays which are explicitly tracked.
  The "true" memory usage will be greater.
------------------------------------------------------------

------------------------------------------------------------
          Begin self-consistency iteration #    1

  Date     :  20180214, Time     :  160410.497
------------------------------------------------------------
  Evaluating new KS density.
  Integration grid: deviation in total charge (<rho> - N_e) =   0.000000E+00
  Pulay mixing of updated and previous charge densities.

  Evaluating partitioned Hartree potential by multipole expansion.
  | Analytical far-field extrapolation by fixed multipoles:
  | Hartree multipole sum: apparent total charge =  -0.500641E-01
  Summing up the Hartree potential.
  Time summed over all CPUs for potential: real work        1.335 s, elapsed        1.452 s
  | RMS charge density error from multipole expansion :   0.292799E-03

  Integrating Hamiltonian matrix: batch-based integration.
  Time summed over all CPUs for integration: real work        1.997 s, elapsed        2.039 s

  Updating Kohn-Sham eigenvalues, eigenvectors, occupation numbers, and Fermi level.
  Solving generalized eigenproblem
  Updating Kohn-Sham eigenvalues and eigenfunctions.
  Solving real generalised eigenvalue problem by standard LAPACK (fast)

  Obtaining occupation numbers and chemical potential using ELSI.
  | Chemical potential (Fermi level):    -3.72320200eV
  Writing Kohn-Sham eigenvalues.

  State    Occupation    Eigenvalue [Ha]    Eigenvalue [eV]
      1       2.00000        -101.449589        -2760.58376
      2       2.00000        -101.417204        -2759.70255
      3       2.00000         -10.124319         -275.49674
      4       2.00000          -9.287172         -252.71680
      5       2.00000          -9.256855         -251.89183
      6       2.00000          -7.042774         -191.64364
      7       2.00000          -7.040753         -191.58863
      8       2.00000          -7.040753         -191.58863
      9       2.00000          -7.011001         -190.77904
     10       2.00000          -7.010895         -190.77617
     11       2.00000          -7.010895         -190.77617
     12       2.00000          -0.832200          -22.64530
     13       2.00000          -0.742403          -20.20180
     14       2.00000          -0.718541          -19.55251
     15       2.00000          -0.512116          -13.93537
     16       2.00000          -0.512113          -13.93530
     17       2.00000          -0.433499          -11.79609
     18       2.00000          -0.313710           -8.53649
     19       2.00000          -0.313709           -8.53647
     20       2.00000          -0.294365           -8.01009
     21       2.00000          -0.293588           -7.98894
     22       2.00000          -0.293588           -7.98894
     23       0.00000          -0.108782           -2.96011
     24       0.00000          -0.031996           -0.87064
     25       0.00000           0.015079            0.41032
     26       0.00000           0.015083            0.41042
     27       0.00000           0.071637            1.94934
     28       0.00000           0.071638            1.94936
     29       0.00000           0.112473            3.06054
     30       0.00000           0.142687            3.88272
     31       0.00000           0.185326            5.04296
     32       0.00000           0.185330            5.04307
     33       0.00000           0.209369            5.69723
     34       0.00000           0.209373            5.69734
     35       0.00000           0.232922            6.33812
     36       0.00000           0.260480            7.08802

  Highest occupied state (VBM) at     -7.98893537 eV
  | Occupation number:      2.00000000

  Lowest unoccupied state (CBM) at    -2.96010613 eV
  | Occupation number:      0.00000000

  Overall HOMO-LUMO gap:      5.02882923 eV.

  Total energy components:
  | Sum of eigenvalues            :        -557.90408188 Ha      -15181.34248622 eV
  | XC energy correction          :         -62.51797977 Ha       -1701.20078576 eV
  | XC potential correction       :          80.77320448 Ha        2197.95072449 eV
  | Free-atom electrostatic energy:        -424.19546291 Ha      -11542.94584445 eV
  | Hartree energy correction     :          -0.89795920 Ha         -24.43471303 eV
  | vdW energy correction         :           0.00000000 Ha           0.00000000 eV
  | Entropy correction            :           0.00000000 Ha           0.00000000 eV
  | ---------------------------
  | Total energy                  :        -964.74227928 Ha      -26251.97310496 eV
  | Total energy, T -> 0          :        -964.74227928 Ha      -26251.97310496 eV  <-- do not rely on this value for anything but (periodic) metals
  | Electronic free energy        :        -964.74227928 Ha      -26251.97310496 eV

  Derived energy quantities:
  | Kinetic energy                :         967.52135993 Ha       26327.59573689 eV
  | Electrostatic energy          :       -1869.74565944 Ha      -50878.36805610 eV
  | Energy correction for multipole
  | error in Hartree potential    :          -0.00015741 Ha          -0.00428328 eV
  | Sum of eigenvalues per atom                           :       -2530.22374770 eV
  | Total energy (T->0) per atom                          :       -4375.32885083 eV  <-- do not rely on this value for anything but (periodic) metals
  | Electronic free energy per atom                       :       -4375.32885083 eV

  Self-consistency convergence accuracy:
  | Change of charge density      :  0.3347E+00
  | Change of sum of eigenvalues  :  0.2502E+02 eV
  | Change of total energy        :  0.9880E+00 eV

  End self-consistency iteration #     1       :  max(cpu_time)    wall_clock(cpu1)
  | Time for this iteration                    :        0.740 s           0.737 s
  | Charge density update                      :        0.272 s           0.271 s
  | Density mixing                             :        0.004 s           0.003 s
  | Hartree multipole update                   :        0.020 s           0.018 s
  | Hartree multipole summation                :        0.184 s           0.183 s
  | Integration                                :        0.256 s           0.255 s
  | Solution of K.-S. eqns.                    :        0.004 s           0.004 s
  | Total energy evaluation                    :        0.004 s           0.001 s

  Partial memory accounting:
  | Current value for overall tracked memory usage on task 0  :           0.267 MB
  | Peak value for overall tracked memory usage on task 0     :           1.022 MB after allocating gradient_basis_wave
  | Largest tracked array allocation on task 0 so far         :           0.566 MB  when allocating gradient_basis_wave
  Note:  These values currently only include a subset of arrays which are explicitly tracked.
  The "true" memory usage will be greater.
------------------------------------------------------------

------------------------------------------------------------
          Begin self-consistency iteration #    2

  Date     :  20180214, Time     :  160411.235
------------------------------------------------------------
  Evaluating new KS density.
  Integration grid: deviation in total charge (<rho> - N_e) =   0.000000E+00
  Pulay mixing of updated and previous charge densities.

  Evaluating partitioned Hartree potential by multipole expansion.
  | Analytical far-field extrapolation by fixed multipoles:
  | Hartree multipole sum: apparent total charge =  -0.406322E+00
  Summing up the Hartree potential.
  Time summed over all CPUs for potential: real work        1.348 s, elapsed        1.410 s
  | RMS charge density error from multipole expansion :   0.233364E-02

  Integrating Hamiltonian matrix: batch-based integration.
  Time summed over all CPUs for integration: real work        2.000 s, elapsed        2.059 s

  Updating Kohn-Sham eigenvalues, eigenvectors, occupation numbers, and Fermi level.
  Solving generalized eigenproblem
  Updating Kohn-Sham eigenvalues and eigenfunctions.
  Solving real generalised eigenvalue problem by standard LAPACK (fast)

  Obtaining occupation numbers and chemical potential using ELSI.
  | Chemical potential (Fermi level):    -1.54902265eV
  Highest occupied state (VBM) at     -3.78935858 eV
  | Occupation number:      2.00000000

  Lowest unoccupied state (CBM) at     0.22636221 eV
  | Occupation number:      0.00000000

  Overall HOMO-LUMO gap:      4.01572079 eV.

  Checking to see if s.c.f. parameters should be adjusted.
  The system likely has a gap. Increased the default Pulay mixing parameter (charge_mix_param). Value:   0.200000 .
  Kept the default occupation width. Value:   0.010000 eV.

  Total energy components:
  | Sum of eigenvalues            :        -551.60729796 Ha      -15009.99827784 eV
  | XC energy correction          :         -62.85842496 Ha       -1710.46477064 eV
  | XC potential correction       :          81.21636225 Ha        2210.00966079 eV
  | Free-atom electrostatic energy:        -424.19546291 Ha      -11542.94584445 eV
  | Hartree energy correction     :          -7.14891800 Ha        -194.53195634 eV
  | vdW energy correction         :           0.00000000 Ha           0.00000000 eV
  | Entropy correction            :           0.00000000 Ha           0.00000000 eV
  | ---------------------------
  | Total energy                  :        -964.59374158 Ha      -26247.93118848 eV
  | Total energy, T -> 0          :        -964.59374158 Ha      -26247.93118848 eV  <-- do not rely on this value for anything but (periodic) metals
  | Electronic free energy        :        -964.59374158 Ha      -26247.93118848 eV

  Derived energy quantities:
  | Kinetic energy                :         969.07221134 Ha       26369.79655113 eV
  | Electrostatic energy          :       -1870.80752797 Ha      -50907.26296898 eV
  | Energy correction for multipole
  | error in Hartree potential    :          -0.00125658 Ha          -0.03419334 eV
  | Sum of eigenvalues per atom                           :       -2501.66637964 eV
  | Total energy (T->0) per atom                          :       -4374.65519808 eV  <-- do not rely on this value for anything but (periodic) metals
  | Electronic free energy per atom                       :       -4374.65519808 eV

  Self-consistency convergence accuracy:
  | Change of charge density      :  0.3035E+00
  | Change of sum of eigenvalues  :  0.1713E+03 eV
  | Change of total energy        :  0.4042E+01 eV

  End self-consistency iteration #     2       :  max(cpu_time)    wall_clock(cpu1)
  | Time for this iteration                    :        0.728 s           0.727 s
  | Charge density update                      :        0.264 s           0.263 s
  | Density mixing                             :        0.004 s           0.005 s
  | Hartree multipole update                   :        0.020 s           0.017 s
  | Hartree multipole summation                :        0.180 s           0.177 s
  | Integration                                :        0.260 s           0.258 s
  | Solution of K.-S. eqns.                    :        0.004 s           0.003 s
  | Total energy evaluation                    :        0.000 s           0.000 s

  Partial memory accounting:
  | Current value for overall tracked memory usage on task 0  :           0.268 MB
  | Peak value for overall tracked memory usage on task 0     :           1.022 MB after allocating gradient_basis_wave
  | Largest tracked array allocation on task 0 so far         :           0.566 MB  when allocating gradient_basis_wave
  Note:  These values currently only include a subset of arrays which are explicitly tracked.
  The "true" memory usage will be greater.
------------------------------------------------------------

------------------------------------------------------------
          Begin self-consistency iteration #    3

  Date     :  20180214, Time     :  160411.963
------------------------------------------------------------
  Evaluating new KS density.
  Integration grid: deviation in total charge (<rho> - N_e) =   1.421085E-14
  Pulay mixing of updated and previous charge densities.

  Evaluating partitioned Hartree potential by multipole expansion.
  | Analytical far-field extrapolation by fixed multipoles:
  | Hartree multipole sum: apparent total charge =  -0.647574E+00
  Summing up the Hartree potential.
  Time summed over all CPUs for potential: real work        1.330 s, elapsed        1.383 s
  | RMS charge density error from multipole expansion :   0.346943E-02

  Integrating Hamiltonian matrix: batch-based integration.
  Time summed over all CPUs for integration: real work        1.972 s, elapsed        2.026 s

  Updating Kohn-Sham eigenvalues, eigenvectors, occupation numbers, and Fermi level.
  Solving generalized eigenproblem
  Updating Kohn-Sham eigenvalues and eigenfunctions.
  Solving real generalised eigenvalue problem by standard LAPACK (fast)

  Obtaining occupation numbers and chemical potential using ELSI.
  | Chemical potential (Fermi level):    -0.23356677eV
  Highest occupied state (VBM) at     -2.28073400 eV
  | Occupation number:      2.00000000

  Lowest unoccupied state (CBM) at     1.67260732 eV
  | Occupation number:      0.00000000

  Overall HOMO-LUMO gap:      3.95334132 eV.

  Total energy components:
  | Sum of eigenvalues            :        -549.17392379 Ha      -14943.78279756 eV
  | XC energy correction          :         -62.95705021 Ha       -1713.14850015 eV
  | XC potential correction       :          81.34350721 Ha        2213.46945140 eV
  | Free-atom electrostatic energy:        -424.19546291 Ha      -11542.94584445 eV
  | Hartree energy correction     :          -9.57993709 Ha        -260.68335165 eV
  | vdW energy correction         :           0.00000000 Ha           0.00000000 eV
  | Entropy correction            :           0.00000000 Ha           0.00000000 eV
  | ---------------------------
  | Total energy                  :        -964.56286678 Ha      -26247.09104241 eV
  | Total energy, T -> 0          :        -964.56286678 Ha      -26247.09104241 eV  <-- do not rely on this value for anything but (periodic) metals
  | Electronic free energy        :        -964.56286678 Ha      -26247.09104241 eV

  Derived energy quantities:
  | Kinetic energy                :         969.00895532 Ha       26368.07526713 eV
  | Electrostatic energy          :       -1870.61477189 Ha      -50902.01780939 eV
  | Energy correction for multipole
  | error in Hartree potential    :          -0.00178291 Ha          -0.04851551 eV
  | Sum of eigenvalues per atom                           :       -2490.63046626 eV
  | Total energy (T->0) per atom                          :       -4374.51517374 eV  <-- do not rely on this value for anything but (periodic) metals
  | Electronic free energy per atom                       :       -4374.51517374 eV

  Self-consistency convergence accuracy:
  | Change of charge density      :  0.1579E+00
  | Change of sum of eigenvalues  :  0.6622E+02 eV
  | Change of total energy        :  0.8401E+00 eV

  End self-consistency iteration #     3       :  max(cpu_time)    wall_clock(cpu1)
  | Time for this iteration                    :        0.720 s           0.718 s
  | Charge density update                      :        0.264 s           0.263 s
  | Density mixing                             :        0.008 s           0.006 s
  | Hartree multipole update                   :        0.016 s           0.016 s
  | Hartree multipole summation                :        0.176 s           0.174 s
  | Integration                                :        0.256 s           0.254 s
  | Solution of K.-S. eqns.                    :        0.004 s           0.003 s
  | Total energy evaluation                    :        0.004 s           0.001 s

  Partial memory accounting:
  | Current value for overall tracked memory usage on task 0  :           0.268 MB
  | Peak value for overall tracked memory usage on task 0     :           1.023 MB after allocating gradient_basis_wave
  | Largest tracked array allocation on task 0 so far         :           0.566 MB  when allocating gradient_basis_wave
  Note:  These values currently only include a subset of arrays which are explicitly tracked.
  The "true" memory usage will be greater.
------------------------------------------------------------

------------------------------------------------------------
          Begin self-consistency iteration #    4

  Date     :  20180214, Time     :  160412.682
------------------------------------------------------------
  Evaluating new KS density.
  Integration grid: deviation in total charge (<rho> - N_e) =   7.105427E-15
  Pulay mixing of updated and previous charge densities.

  Evaluating partitioned Hartree potential by multipole expansion.
  | Analytical far-field extrapolation by fixed multipoles:
  | Hartree multipole sum: apparent total charge =  -0.914321E+00
  Summing up the Hartree potential.
  Time summed over all CPUs for potential: real work        1.351 s, elapsed        1.424 s
  | RMS charge density error from multipole expansion :   0.482367E-02

  Integrating Hamiltonian matrix: batch-based integration.
  Time summed over all CPUs for integration: real work        1.999 s, elapsed        2.117 s

  Updating Kohn-Sham eigenvalues, eigenvectors, occupation numbers, and Fermi level.
  Solving generalized eigenproblem
  Updating Kohn-Sham eigenvalues and eigenfunctions.
  Solving real generalised eigenvalue problem by standard LAPACK (fast)

  Obtaining occupation numbers and chemical potential using ELSI.
  | Chemical potential (Fermi level):     1.15575331eV
  Highest occupied state (VBM) at     -0.78085436 eV
  | Occupation number:      2.00000000

  Lowest unoccupied state (CBM) at     3.05662747 eV
  | Occupation number:      0.00000000

  Overall HOMO-LUMO gap:      3.83748183 eV.

  Total energy components:
  | Sum of eigenvalues            :        -546.91459690 Ha      -14882.30338489 eV
  | XC energy correction          :         -63.03736927 Ha       -1715.33409311 eV
  | XC potential correction       :          81.44649182 Ha        2216.27180516 eV
  | Free-atom electrostatic energy:        -424.19546291 Ha      -11542.94584445 eV
  | Hartree energy correction     :         -11.84759118 Ha        -322.38935907 eV
  | vdW energy correction         :           0.00000000 Ha           0.00000000 eV
  | Entropy correction            :           0.00000000 Ha           0.00000000 eV
  | ---------------------------
  | Total energy                  :        -964.54852844 Ha      -26246.70087636 eV
  | Total energy, T -> 0          :        -964.54852844 Ha      -26246.70087636 eV  <-- do not rely on this value for anything but (periodic) metals
  | Electronic free energy        :        -964.54852844 Ha      -26246.70087636 eV

  Derived energy quantities:
  | Kinetic energy                :         968.63810614 Ha       26357.98394763 eV
  | Electrostatic energy          :       -1870.14926532 Ha      -50889.35073089 eV
  | Energy correction for multipole
  | error in Hartree potential    :          -0.00233044 Ha          -0.06341444 eV
  | Sum of eigenvalues per atom                           :       -2480.38389748 eV
  | Total energy (T->0) per atom                          :       -4374.45014606 eV  <-- do not rely on this value for anything but (periodic) metals
  | Electronic free energy per atom                       :       -4374.45014606 eV

  Self-consistency convergence accuracy:
  | Change of charge density      :  0.9543E-01
  | Change of sum of eigenvalues  :  0.6148E+02 eV
  | Change of total energy        :  0.3902E+00 eV

  End self-consistency iteration #     4       :  max(cpu_time)    wall_clock(cpu1)
  | Time for this iteration                    :        0.744 s           0.743 s
  | Charge density update                      :        0.272 s           0.268 s
  | Density mixing                             :        0.008 s           0.009 s
  | Hartree multipole update                   :        0.020 s           0.018 s
  | Hartree multipole summation                :        0.180 s           0.179 s
  | Integration                                :        0.264 s           0.265 s
  | Solution of K.-S. eqns.                    :        0.004 s           0.003 s
  | Total energy evaluation                    :        0.000 s           0.001 s

  Partial memory accounting:
  | Current value for overall tracked memory usage on task 0  :           0.268 MB
  | Peak value for overall tracked memory usage on task 0     :           1.023 MB after allocating gradient_basis_wave
  | Largest tracked array allocation on task 0 so far         :           0.566 MB  when allocating gradient_basis_wave
  Note:  These values currently only include a subset of arrays which are explicitly tracked.
  The "true" memory usage will be greater.
------------------------------------------------------------

------------------------------------------------------------
          Begin self-consistency iteration #    5

  Date     :  20180214, Time     :  160413.426
------------------------------------------------------------
  Evaluating new KS density.
  Integration grid: deviation in total charge (<rho> - N_e) =   1.421085E-14
  Pulay mixing of updated and previous charge densities.

  Evaluating partitioned Hartree potential by multipole expansion.
  | Analytical far-field extrapolation by fixed multipoles:
  | Hartree multipole sum: apparent total charge =  -0.978769E+00
  Summing up the Hartree potential.
  Time summed over all CPUs for potential: real work        1.441 s, elapsed        1.815 s
  | RMS charge density error from multipole expansion :   0.519256E-02

  Integrating Hamiltonian matrix: batch-based integration.
  Time summed over all CPUs for integration: real work        2.105 s, elapsed        2.584 s

  Updating Kohn-Sham eigenvalues, eigenvectors, occupation numbers, and Fermi level.
  Solving generalized eigenproblem
  Updating Kohn-Sham eigenvalues and eigenfunctions.
  Solving real generalised eigenvalue problem by standard LAPACK (fast)

  Obtaining occupation numbers and chemical potential using ELSI.
  | Chemical potential (Fermi level):     1.38859764eV
  Highest occupied state (VBM) at     -0.35842907 eV
  | Occupation number:      2.00000000

  Lowest unoccupied state (CBM) at     3.26983157 eV
  | Occupation number:      0.00000000

  Overall HOMO-LUMO gap:      3.62826064 eV.

  Total energy components:
  | Sum of eigenvalues            :        -546.58612442 Ha      -14873.36519387 eV
  | XC energy correction          :         -63.03779119 Ha       -1715.34557409 eV
  | XC potential correction       :          81.44658648 Ha        2216.27438082 eV
  | Free-atom electrostatic energy:        -424.19546291 Ha      -11542.94584445 eV
  | Hartree energy correction     :         -12.17472979 Ha        -331.29125348 eV
  | vdW energy correction         :           0.00000000 Ha           0.00000000 eV
  | Entropy correction            :           0.00000000 Ha           0.00000000 eV
  | ---------------------------
  | Total energy                  :        -964.54752183 Ha      -26246.67348507 eV
  | Total energy, T -> 0          :        -964.54752183 Ha      -26246.67348507 eV  <-- do not rely on this value for anything but (periodic) metals
  | Electronic free energy        :        -964.54752183 Ha      -26246.67348507 eV

  Derived energy quantities:
  | Kinetic energy                :         968.38307313 Ha       26351.04414610 eV
  | Electrostatic energy          :       -1869.89280377 Ha      -50882.37205708 eV
  | Energy correction for multipole
  | error in Hartree potential    :          -0.00245625 Ha          -0.06683800 eV
  | Sum of eigenvalues per atom                           :       -2478.89419898 eV
  | Total energy (T->0) per atom                          :       -4374.44558085 eV  <-- do not rely on this value for anything but (periodic) metals
  | Electronic free energy per atom                       :       -4374.44558085 eV

  Self-consistency convergence accuracy:
  | Change of charge density      :  0.3231E-01
  | Change of sum of eigenvalues  :  0.8938E+01 eV
  | Change of total energy        :  0.2739E-01 eV

  End self-consistency iteration #     5       :  max(cpu_time)    wall_clock(cpu1)
  | Time for this iteration                    :        0.852 s           0.853 s
  | Charge density update                      :        0.268 s           0.266 s
  | Density mixing                             :        0.012 s           0.010 s
  | Hartree multipole update                   :        0.016 s           0.016 s
  | Hartree multipole summation                :        0.228 s           0.228 s
  | Integration                                :        0.328 s           0.327 s
  | Solution of K.-S. eqns.                    :        0.004 s           0.003 s
  | Total energy evaluation                    :        0.000 s           0.001 s

  Partial memory accounting:
  | Current value for overall tracked memory usage on task 0  :           0.268 MB
  | Peak value for overall tracked memory usage on task 0     :           1.023 MB after allocating gradient_basis_wave
  | Largest tracked array allocation on task 0 so far         :           0.566 MB  when allocating gradient_basis_wave
  Note:  These values currently only include a subset of arrays which are explicitly tracked.
  The "true" memory usage will be greater.
------------------------------------------------------------

------------------------------------------------------------
          Begin self-consistency iteration #    6

  Date     :  20180214, Time     :  160414.279
------------------------------------------------------------
  Evaluating new KS density.
  Integration grid: deviation in total charge (<rho> - N_e) =   0.000000E+00
  Pulay mixing of updated and previous charge densities.

  Evaluating partitioned Hartree potential by multipole expansion.
  | Analytical far-field extrapolation by fixed multipoles:
  | Hartree multipole sum: apparent total charge =  -0.100412E+01
  Summing up the Hartree potential.
  Time summed over all CPUs for potential: real work        1.348 s, elapsed        1.435 s
  | RMS charge density error from multipole expansion :   0.535988E-02

  Integrating Hamiltonian matrix: batch-based integration.
  Time summed over all CPUs for integration: real work        2.024 s, elapsed        2.248 s

  Updating Kohn-Sham eigenvalues, eigenvectors, occupation numbers, and Fermi level.
  Solving generalized eigenproblem
  Updating Kohn-Sham eigenvalues and eigenfunctions.
  Solving real generalised eigenvalue problem by standard LAPACK (fast)

  Obtaining occupation numbers and chemical potential using ELSI.
  | Chemical potential (Fermi level):     1.53902684eV
  Highest occupied state (VBM) at     -0.24538835 eV
  | Occupation number:      2.00000000

  Lowest unoccupied state (CBM) at     3.43602354 eV
  | Occupation number:      0.00000000

  Overall HOMO-LUMO gap:      3.68141190 eV.

  Total energy components:
  | Sum of eigenvalues            :        -546.37612351 Ha      -14867.65077836 eV
  | XC energy correction          :         -63.04412154 Ha       -1715.51783169 eV
  | XC potential correction       :          81.45475077 Ha        2216.49654242 eV
  | Free-atom electrostatic energy:        -424.19546291 Ha      -11542.94584445 eV
  | Hartree energy correction     :         -12.38650481 Ha        -337.05394498 eV
  | vdW energy correction         :           0.00000000 Ha           0.00000000 eV
  | Entropy correction            :           0.00000000 Ha           0.00000000 eV
  | ---------------------------
  | Total energy                  :        -964.54746200 Ha      -26246.67185706 eV
  | Total energy, T -> 0          :        -964.54746200 Ha      -26246.67185706 eV  <-- do not rely on this value for anything but (periodic) metals
  | Electronic free energy        :        -964.54746200 Ha      -26246.67185706 eV

  Derived energy quantities:
  | Kinetic energy                :         968.33547581 Ha       26349.74895728 eV
  | Electrostatic energy          :       -1869.83881627 Ha      -50880.90298265 eV
  | Energy correction for multipole
  | error in Hartree potential    :          -0.00249889 Ha          -0.06799833 eV
  | Sum of eigenvalues per atom                           :       -2477.94179639 eV
  | Total energy (T->0) per atom                          :       -4374.44530951 eV  <-- do not rely on this value for anything but (periodic) metals
  | Electronic free energy per atom                       :       -4374.44530951 eV

  Self-consistency convergence accuracy:
  | Change of charge density      :  0.1136E-01
  | Change of sum of eigenvalues  :  0.5714E+01 eV
  | Change of total energy        :  0.1628E-02 eV

  End self-consistency iteration #     6       :  max(cpu_time)    wall_clock(cpu1)
  | Time for this iteration                    :        0.780 s           0.780 s
  | Charge density update                      :        0.284 s           0.283 s
  | Density mixing                             :        0.016 s           0.014 s
  | Hartree multipole update                   :        0.020 s           0.017 s
  | Hartree multipole summation                :        0.180 s           0.181 s
  | Integration                                :        0.284 s           0.281 s
  | Solution of K.-S. eqns.                    :        0.004 s           0.003 s
  | Total energy evaluation                    :        0.004 s           0.001 s

  Partial memory accounting:
  | Current value for overall tracked memory usage on task 0  :           0.268 MB
  | Peak value for overall tracked memory usage on task 0     :           1.023 MB after allocating gradient_basis_wave
  | Largest tracked array allocation on task 0 so far         :           0.566 MB  when allocating gradient_basis_wave
  Note:  These values currently only include a subset of arrays which are explicitly tracked.
  The "true" memory usage will be greater.
------------------------------------------------------------

------------------------------------------------------------
          Begin self-consistency iteration #    7

  Date     :  20180214, Time     :  160415.062
------------------------------------------------------------
  Evaluating new KS density.
  Integration grid: deviation in total charge (<rho> - N_e) =   0.000000E+00
  Pulay mixing of updated and previous charge densities.

  Evaluating partitioned Hartree potential by multipole expansion.
  | Analytical far-field extrapolation by fixed multipoles:
  | Hartree multipole sum: apparent total charge =  -0.998101E+00
  Summing up the Hartree potential.
  Time summed over all CPUs for potential: real work        1.350 s, elapsed        1.438 s
  | RMS charge density error from multipole expansion :   0.533858E-02

  Integrating Hamiltonian matrix: batch-based integration.
  Time summed over all CPUs for integration: real work        2.031 s, elapsed        2.185 s

  Updating Kohn-Sham eigenvalues, eigenvectors, occupation numbers, and Fermi level.
  Solving generalized eigenproblem
  Updating Kohn-Sham eigenvalues and eigenfunctions.
  Solving real generalised eigenvalue problem by standard LAPACK (fast)

  Obtaining occupation numbers and chemical potential using ELSI.
  | Chemical potential (Fermi level):     1.50080811eV
  Highest occupied state (VBM) at     -0.27446061 eV
  | Occupation number:      2.00000000

  Lowest unoccupied state (CBM) at     3.39494983 eV
  | Occupation number:      0.00000000

  Overall HOMO-LUMO gap:      3.66941044 eV.

  Total energy components:
  | Sum of eigenvalues            :        -546.43967213 Ha      -14869.38002438 eV
  | XC energy correction          :         -63.04120229 Ha       -1715.43839494 eV
  | XC potential correction       :          81.45098118 Ha        2216.39396690 eV
  | Free-atom electrostatic energy:        -424.19546291 Ha      -11542.94584445 eV
  | Hartree energy correction     :         -12.32209794 Ha        -335.30134481 eV
  | vdW energy correction         :           0.00000000 Ha           0.00000000 eV
  | Entropy correction            :           0.00000000 Ha           0.00000000 eV
  | ---------------------------
  | Total energy                  :        -964.54745409 Ha      -26246.67164168 eV
  | Total energy, T -> 0          :        -964.54745409 Ha      -26246.67164168 eV  <-- do not rely on this value for anything but (periodic) metals
  | Electronic free energy        :        -964.54745409 Ha      -26246.67164168 eV

  Derived energy quantities:
  | Kinetic energy                :         968.33827926 Ha       26349.82524300 eV
  | Electrostatic energy          :       -1869.84453105 Ha      -50881.05848973 eV
  | Energy correction for multipole
  | error in Hartree potential    :          -0.00248198 Ha          -0.06753814 eV
  | Sum of eigenvalues per atom                           :       -2478.23000406 eV
  | Total energy (T->0) per atom                          :       -4374.44527361 eV  <-- do not rely on this value for anything but (periodic) metals
  | Electronic free energy per atom                       :       -4374.44527361 eV

  Self-consistency convergence accuracy:
  | Change of charge density      :  0.4666E-02
  | Change of sum of eigenvalues  : -0.1729E+01 eV
  | Change of total energy        :  0.2154E-03 eV

  End self-consistency iteration #     7       :  max(cpu_time)    wall_clock(cpu1)
  | Time for this iteration                    :        0.768 s           0.766 s
  | Charge density update                      :        0.276 s           0.274 s
  | Density mixing                             :        0.016 s           0.017 s
  | Hartree multipole update                   :        0.020 s           0.016 s
  | Hartree multipole summation                :        0.184 s           0.182 s
  | Integration                                :        0.276 s           0.273 s
  | Solution of K.-S. eqns.                    :        0.004 s           0.003 s
  | Total energy evaluation                    :        0.000 s           0.000 s

  Partial memory accounting:
  | Current value for overall tracked memory usage on task 0  :           0.268 MB
  | Peak value for overall tracked memory usage on task 0     :           1.023 MB after allocating gradient_basis_wave
  | Largest tracked array allocation on task 0 so far         :           0.566 MB  when allocating gradient_basis_wave
  Note:  These values currently only include a subset of arrays which are explicitly tracked.
  The "true" memory usage will be greater.
------------------------------------------------------------

------------------------------------------------------------
          Begin self-consistency iteration #    8

  Date     :  20180214, Time     :  160415.828
------------------------------------------------------------
  Evaluating new KS density.
  Integration grid: deviation in total charge (<rho> - N_e) =  -7.105427E-15
  Pulay mixing of updated and previous charge densities.

  Evaluating partitioned Hartree potential by multipole expansion.
  | Analytical far-field extrapolation by fixed multipoles:
  | Hartree multipole sum: apparent total charge =  -0.100068E+01
  Summing up the Hartree potential.
  Time summed over all CPUs for potential: real work        1.346 s, elapsed        1.481 s
  | RMS charge density error from multipole expansion :   0.536720E-02

  Integrating Hamiltonian matrix: batch-based integration.
  Time summed over all CPUs for integration: real work        2.142 s, elapsed        2.518 s

  Updating Kohn-Sham eigenvalues, eigenvectors, occupation numbers, and Fermi level.
[...]
     10       2.00000          -6.702755         -182.39125
     11       2.00000          -6.702755         -182.39125
     12       2.00000          -0.607906          -16.54195
     13       2.00000          -0.459497          -12.50355
     14       2.00000          -0.431687          -11.74680
     15       2.00000          -0.232047           -6.31432
     16       2.00000          -0.232045           -6.31425
     17       2.00000          -0.206355           -5.61520
     18       2.00000          -0.111803           -3.04231
     19       2.00000          -0.111801           -3.04227
     20       2.00000          -0.011991           -0.32628
     21       2.00000          -0.009294           -0.25289
     22       2.00000          -0.009293           -0.25288
     23       0.00000           0.125013            3.40176
     24       0.00000           0.142087            3.86637
     25       0.00000           0.176839            4.81203
     26       0.00000           0.176845            4.81219
     27       0.00000           0.263552            7.17161
     28       0.00000           0.263556            7.17173
     29       0.00000           0.291915            7.94342
     30       0.00000           0.336516            9.15708
     31       0.00000           0.387488           10.54408
     32       0.00000           0.387496           10.54431
     33       0.00000           0.401186           10.91682
     34       0.00000           0.401187           10.91686
     35       0.00000           0.423311           11.51886
     36       0.00000           0.452742           12.31974

  Highest occupied state (VBM) at     -0.25288298 eV
  | Occupation number:      2.00000000

  Lowest unoccupied state (CBM) at     3.40176332 eV
  | Occupation number:      0.00000000

  Overall HOMO-LUMO gap:      3.65464630 eV.

  Self-consistency cycle converged.

  End self-consistency iteration #    16       :  max(cpu_time)    wall_clock(cpu1)
  | Time for this iteration                    :        2.016 s           2.016 s
  | Charge density & force component update    :        1.088 s           1.087 s
  | Density mixing                             :        0.020 s           0.018 s
  | Hartree multipole update                   :        0.016 s           0.016 s
  | Hartree multipole summation                :        0.612 s           0.610 s
  | Integration                                :        0.276 s           0.276 s
  | Solution of K.-S. eqns.                    :        0.004 s           0.004 s
  | Total energy evaluation                    :        0.004 s           0.003 s

  Partial memory accounting:
  | Current value for overall tracked memory usage on task 0  :           0.268 MB
  | Peak value for overall tracked memory usage on task 0     :           2.348 MB after allocating hessian_basis_wave
  | Largest tracked array allocation on task 0 so far         :           1.133 MB  when allocating hessian_basis_wave
  Note:  These values currently only include a subset of arrays which are explicitly tracked.
  The "true" memory usage will be greater.
------------------------------------------------------------
  Obtaining max. number of non-zero basis functions in each batch .
  Evaluating KS electron density on previously omitted grid points.
  Evaluating non-empirical van der Waals correction (Tkatchenko/Scheffler 2009).
  Performing Hirshfeld analysis of fragment charges and moments.
  ----------------------------------------------------------------------
  | Atom     1: Cl
  |   Hirshfeld charge        :     -0.73132822
  |   Free atom volume        :     65.35447769
  |   Hirshfeld volume        :     83.53072725
  |   Hirshfeld dipole vector :      0.15947711       0.00000029      -0.00000000
  |   Hirshfeld dipole moment :      0.15947711
  |   Hirshfeld second moments:     -0.38293928       0.00000175      -0.00000000
  |                                  0.00000175      -0.59172577      -0.00000000
  |                                 -0.00000000      -0.00000000      -0.59172075
  ----------------------------------------------------------------------
  | Atom     2: C
  |   Hirshfeld charge        :     -0.09790675
  |   Free atom volume        :     38.37861207
  |   Hirshfeld volume        :     33.63856775
  |   Hirshfeld dipole vector :      0.03117387      -0.00000575      -0.00000000
  |   Hirshfeld dipole moment :      0.03117387
  |   Hirshfeld second moments:      0.05990441      -0.00000349      -0.00000000
  |                                 -0.00000349       0.12152782      -0.00000000
  |                                 -0.00000000      -0.00000000       0.12152474
  ----------------------------------------------------------------------
  | Atom     3: Cl
  |   Hirshfeld charge        :     -0.24221868
  |   Free atom volume        :     65.35447769
  |   Hirshfeld volume        :     68.77389631
  |   Hirshfeld dipole vector :     -0.11959782       0.00000646      -0.00000000
  |   Hirshfeld dipole moment :      0.11959782
  |   Hirshfeld second moments:      0.02786943       0.00000909       0.00000000
  |                                  0.00000909      -0.19671300      -0.00000000
  |                                  0.00000000      -0.00000000      -0.19671795
  ----------------------------------------------------------------------
  | Atom     4: H
  |   Hirshfeld charge        :      0.02379558
  |   Free atom volume        :     10.31539447
  |   Hirshfeld volume        :      8.35239985
  |   Hirshfeld dipole vector :     -0.00798426       0.07920426      -0.00000000
  |   Hirshfeld dipole moment :      0.07960567
  |   Hirshfeld second moments:      0.02653697       0.00836644      -0.00000000
  |                                  0.00836644       0.07276391      -0.00000000
  |                                 -0.00000000      -0.00000000       0.09005272
  ----------------------------------------------------------------------
  | Atom     5: H
  |   Hirshfeld charge        :      0.02379789
  |   Free atom volume        :     10.31539447
  |   Hirshfeld volume        :      8.35262657
  |   Hirshfeld dipole vector :     -0.00798836      -0.03959875       0.06858613
  |   Hirshfeld dipole moment :      0.07959856
  |   Hirshfeld second moments:      0.02652719      -0.00418412       0.00724776
  |                                 -0.00418412       0.08572614       0.00748671
  |                                  0.00724776       0.00748671       0.07708586
  ----------------------------------------------------------------------
  | Atom     6: H
  |   Hirshfeld charge        :      0.02379789
  |   Free atom volume        :     10.31539447
  |   Hirshfeld volume        :      8.35262657
  |   Hirshfeld dipole vector :     -0.00798836      -0.03959875      -0.06858613
  |   Hirshfeld dipole moment :      0.07959856
  |   Hirshfeld second moments:      0.02652719      -0.00418412      -0.00724776
  |                                 -0.00418412       0.08572614      -0.00748671
  |                                 -0.00724776      -0.00748671       0.07708586
  ----------------------------------------------------------------------


  Total energy components:
  | Sum of eigenvalues            :        -546.41363843 Ha      -14868.67161150 eV
  | XC energy correction          :         -63.04313710 Ha       -1715.49104359 eV
  | XC potential correction       :          81.45347912 Ha        2216.46193927 eV
  | Free-atom electrostatic energy:        -424.19546291 Ha      -11542.94584445 eV
  | Hartree energy correction     :         -12.34869035 Ha        -336.02496132 eV
  | vdW energy correction         :          -0.00037860 Ha          -0.01030218 eV
  | Entropy correction            :           0.00000000 Ha           0.00000000 eV
  | ---------------------------
  | Total energy                  :        -964.54782827 Ha      -26246.68182377 eV
  | Total energy, T -> 0          :        -964.54782827 Ha      -26246.68182377 eV  <-- do not rely on this value for anything but (periodic) metals
  | Electronic free energy        :        -964.54782827 Ha      -26246.68182377 eV

  Derived energy quantities:
  | Kinetic energy                :         968.34404618 Ha       26349.98216902 eV
  | Electrostatic energy          :       -1869.84835876 Ha      -50881.16264701 eV
  | Energy correction for multipole
  | error in Hartree potential    :          -0.00247897 Ha          -0.06745619 eV
  | Sum of eigenvalues per atom                           :       -2478.11193525 eV
  | Total energy (T->0) per atom                          :       -4374.44697063 eV  <-- do not rely on this value for anything but (periodic) metals
  | Electronic free energy per atom                       :       -4374.44697063 eV

  atomic forces [eV/Ang]:
  -----------------------
  atom #    1
   Hellmann-Feynman              : -0.246597E+01  0.720589E-04  0.884872E-11
   Ionic forces                  :  0.000000E+00  0.000000E+00  0.000000E+00
   Multipole                     :  0.668135E-01 -0.139729E-05 -0.277251E-13
   Pulay + GGA                   :  0.215850E+01  0.192852E-03 -0.694671E-10
   Van der Waals                 : -0.473827E-03 -0.481411E-06  0.267019E-13
   ----------------------------------------------------------------
   Total forces(   1)            : -0.241129E+00  0.263033E-03 -0.606194E-10
  atom #    2
   Hellmann-Feynman              : -0.336213E+01  0.297582E-03  0.102275E-10
   Ionic forces                  :  0.000000E+00  0.000000E+00  0.000000E+00
   Multipole                     :  0.918937E-01 -0.319442E-05 -0.102091E-11
   Pulay + GGA                   :  0.334804E+01 -0.147740E-03 -0.536646E-12
   Van der Waals                 :  0.240194E-02 -0.341686E-09 -0.370891E-14
   ----------------------------------------------------------------
   Total forces(   2)            :  0.802062E-01  0.146647E-03  0.866619E-11
  atom #    3
   Hellmann-Feynman              :  0.247928E+02  0.424549E-03  0.188600E-09
   Ionic forces                  :  0.000000E+00  0.000000E+00  0.000000E+00
   Multipole                     : -0.185708E-01  0.597874E-05  0.988788E-12
   Pulay + GGA                   : -0.247757E+02 -0.618619E-03 -0.228200E-09
   Van der Waals                 : -0.477098E-02  0.136147E-06  0.110552E-13
   ----------------------------------------------------------------
   Total forces(   3)            : -0.631087E-02 -0.187954E-03 -0.385999E-10
  atom #    4
   Hellmann-Feynman              :  0.671243E-01 -0.150304E+00  0.308305E-11
   Ionic forces                  :  0.000000E+00  0.000000E+00  0.000000E+00
   Multipole                     :  0.889357E-02 -0.213599E-01 -0.872768E-13
   Pulay + GGA                   : -0.220429E-01  0.714069E-01 -0.347825E-12
   Van der Waals                 :  0.948691E-03  0.155109E-02 -0.869437E-14
   ----------------------------------------------------------------
   Total forces(   4)            :  0.549237E-01 -0.987061E-01  0.263926E-11
  atom #    5
   Hellmann-Feynman              :  0.676208E-01  0.752154E-01 -0.130364E+00
   Ionic forces                  :  0.000000E+00  0.000000E+00  0.000000E+00
   Multipole                     :  0.891323E-02  0.106742E-01 -0.184962E-01
   Pulay + GGA                   : -0.220094E-01 -0.356743E-01  0.617990E-01
   Van der Waals                 :  0.947085E-03 -0.775371E-03  0.134305E-02
   ----------------------------------------------------------------
   Total forces(   5)            :  0.554717E-01  0.494398E-01 -0.857179E-01
  atom #    6
   Hellmann-Feynman              :  0.676208E-01  0.752154E-01  0.130364E+00
   Ionic forces                  :  0.000000E+00  0.000000E+00  0.000000E+00
   Multipole                     :  0.891323E-02  0.106742E-01  0.184962E-01
   Pulay + GGA                   : -0.220094E-01 -0.356743E-01 -0.617990E-01
   Van der Waals                 :  0.947085E-03 -0.775371E-03 -0.134305E-02
   ----------------------------------------------------------------
   Total forces(   6)            :  0.554717E-01  0.494398E-01  0.857179E-01

  Timings for VdW correction (Tkatchenko-Scheffler 2009 or later):
  | CPU time:        0.048 s, Wall clock time:        0.050 s.
  Removing unitary transformations (pure translations, rotations) from forces on atoms.
  Atomic forces before filtering:
  | Net force on center of mass :  -0.136634E-02  0.395356E-03 -0.813624E-10 eV/A
  | Net torque on center of mass:  -0.345181E-13 -0.997784E-10 -0.483700E-03 eV
  Atomic forces after filtering:
  | Net force on center of mass :  -0.111504E-16 -0.557519E-17  0.223008E-16 eV/A
  | Net torque on center of mass:  -0.118011E-16  0.118126E-16 -0.118011E-16 eV

  Energy and forces in a compact form:
  | Total energy uncorrected      :         -0.262466818237671E+05 eV
  | Total energy corrected        :         -0.262466818237671E+05 eV  <-- do not rely on this value for anything but (periodic) metals
  | Electronic free energy        :         -0.262466818237671E+05 eV
  Total atomic forces (unitary forces cleaned) [eV/Ang]:
  |   1         -0.240901109264566E+00          0.103276456445975E-03         -0.276967035496099E-10
  |   2          0.804339147238672E-01          0.925947202417495E-04          0.197841869537649E-10
  |   3         -0.608314765968546E-02         -0.171740346021260E-03         -0.419765480330779E-10
  |   4          0.551127986620121E-01         -0.987719771692086E-01          0.162162289219159E-10
  |   5          0.557187717605653E-01          0.493739231689148E-01         -0.857178589298077E-01
  |   6          0.557187717778064E-01          0.493739231696274E-01          0.857178589634806E-01

  ------------------------------------ 
  Start decomposition of the XC Energy 
  ------------------------------------ 
  X and C from original XC functional choice 
  Hartree-Fock Energy :          0.000000000 Ha              0.000000000 eV
  X Energy            :        -61.415720847 Ha          -1671.206794301 eV
  C Energy            :         -1.627416249 Ha            -44.284249289 eV
  Total XC Energy     :        -63.043137095 Ha          -1715.491043591 eV
  ------------------------------------ 
  LDA X and C from self-consistent density 
  X Energy LDA        :        -56.826566407 Ha          -1546.329548305 eV
  C Energy LDA        :         -3.249410949 Ha            -88.420970722 eV
  ------------------------------------ 
  End decomposition of the XC Energy 
  ------------------------------------ 

------------------------------------------------------------

------------------------------------------------------------------------------
  Final output of selected total energy values:

  The following output summarizes some interesting total energy values
  at the end of a run (AFTER all relaxation, molecular dynamics, etc.).

  | Total energy of the DFT / Hartree-Fock s.c.f. calculation      :         -26246.681823767 eV
  | Final zero-broadening corrected energy (caution - metals only) :         -26246.681823767 eV
  | For reference only, the value of 1 Hartree used in FHI-aims is :             27.211384500 eV

  Before relying on these values, please be sure to understand exactly which
  total energy value is referred to by a given number. Different objects may
  all carry the same name 'total energy'. Definitions:

  Total energy of the DFT / Hartree-Fock s.c.f. calculation:
  | Note that this energy does not include ANY quantities calculated after the
  | s.c.f. cycle, in particular not ANY RPA, MP2, etc. many-body perturbation terms.

  Final zero-broadening corrected energy:
  | For metallic systems only, a broadening of the occupation numbers at the Fermi
  | level can be extrapolated back to zero broadening by an electron-gas inspired
  | formula. For all systems that are not real metals, this value can be
  | meaningless and should be avoided.

------------------------------------------------------------------------------
  Methods described in the following list of references were used in this FHI-aims run.
  If you publish the results, please make sure to cite these reference if they apply.
  FHI-aims is an academic code, and for our developers (often, Ph.D. students
  and postdocs), scientific credit in the community is essential.
  Thank you for helping us!

  For any use of FHI-aims, please cite:

    Volker Blum, Ralf Gehrke, Felix Hanke, Paula Havu, Ville Havu,
    Xinguo Ren, Karsten Reuter, and Matthias Scheffler
    'Ab initio molecular simulations with numeric atom-centered orbitals'
    Computer Physics Communications 180, 2175-2196 (2009)
    http://dx.doi.org/10.1016/j.cpc.2009.06.022


  For the real-space grid partitioning and parallelization used in this calculation, please cite:

    Ville Havu, Volker Blum, Paula Havu, and Matthias Scheffler,
    'Efficient O(N) integration for all-electron electronic structure calculation'
    'using numerically tabulated basis functions'
    Journal of Computational Physics 228, 8367-8379 (2009).
    http://dx.doi.org/10.1016/j.jcp.2009.08.008

  Of course, there are many other important community references, e.g., those cited in the
  above references. Our list is limited to references that describe implementations in the
  FHI-aims code. The reason is purely practical (length of this list) - please credit others as well.

------------------------------------------------------------
          Leaving FHI-aims.
          Date     :  20180214, Time     :  160424.182

          Computational steps:
          | Number of self-consistency cycles          :           16
          | Number of SCF (re)initializations          :            1

          Detailed time accounting                     :  max(cpu_time)    wall_clock(cpu1)
          | Total time                                 :       14.748 s          14.799 s
          | Preparation time                           :        0.388 s           0.480 s
          | Boundary condition initalization           :        0.000 s           0.000 s
          | Grid partitioning                          :        0.092 s           0.093 s
          | Preloading free-atom quantities on grid    :        0.024 s           0.022 s
          | Free-atom superposition energy             :        0.024 s           0.022 s
          | Total time for integrations                :        4.908 s           4.889 s
          | Total time for solution of K.-S. equations :        0.080 s           0.066 s
          | Total time for density & force components  :        5.156 s           5.132 s
          | Total time for mixing                      :        0.248 s           0.240 s
          | Total time for Hartree multipole update    :        0.316 s           0.287 s
          | Total time for Hartree multipole sum       :        3.372 s           3.360 s
          | Total time for total energy evaluation     :        0.020 s           0.014 s
          | Total time for scaled ZORA corrections     :        0.000 s           0.000 s
          | Total time for vdW correction              :        0.048 s           0.050 s

          Partial memory accounting:
          | Residual value for overall tracked memory usage across tasks :           0.000 MB (should be 0.000 MB)
          | Peak values for overall tracked memory usage (after allocating hessian_basis_wave):
          |   Minimum:        2.332 MB (on task 2)
          |   Maximum:        2.348 MB (on task 1)
          |   Average:        2.346 MB
          | Largest tracked array allocation (hessian_basis_wave):
          |   Minimum:        1.123 MB (on task 2)
          |   Maximum:        1.133 MB (on task 1)
          |   Average:        1.132 MB
          Note:  These values currently only include a subset of arrays which are explicitly tracked.
          The "true" memory usage will be greater.

          Have a nice day.
------------------------------------------------------------
