  MPI-parallelism will be employed.
------------------------------------------------------------
          Invoking FHI-aims ...

          When using FHI-aims, please cite the following reference:

          Volker Blum, Ralf Gehrke, Felix Hanke, Paula Havu,
          Ville Havu, Xinguo Ren, Karsten Reuter, and Matthias Scheffler,
          'Ab Initio Molecular Simulations with Numeric Atom-Centered Orbitals',
          Computer Physics Communications 180, 2175-2196 (2009)

          For any questions about FHI-aims, please visit the aimsclub website
          with its forums and wiki. Contributions to both the forums and the
          wiki are warmly encouraged - they are for you, and everyone is welcome there.

------------------------------------------------------------



  Date     :  20190817, Time     :  154538.692
  Time zero on CPU 1             :   0.285720000000000E-01  s.
  Internal wall clock time zero  :           335288738.692  s.

  FHI-aims created a unique identifier for this run for later identification
  aims_uuid : F9BFBBB9-95C2-4560-AFB3-5C20FBA87329

  Build configuration of the current instance of FHI-aims
  -------------------------------------------------------
  FHI-aims version      : 190813
  Commit number         : 3da7baeb3
  CMake host system     : Linux-4.4.180-94.97-default
  CMake version         : 3.5.2
  Fortran compiler      : /mpcdf/soft/SLE_12_SP3/packages/x86_64/intel_parallel_studio/2018.4/compilers_and_libraries_2018.5.274/linux/mpi/bin64/mpiifort (Intel) version 18.0.5.20180823
  Fortran compiler flags: -O3 -ip -fp-model precise
  C compiler            : /mpcdf/soft/SLE_12_SP3/packages/skylake/intel/18.0.5/bin/icc (Intel) version 18.0.5.20180823
  C compiler flags      : -O3 -ip -fp-model precise
  Architecture          :
  Using MPI
  Using Scalapack
  Using C files
  Using SPGlib
  Using i-PI
  Linking against: /mpcdf/soft/SLE_12_SP3/packages/x86_64/anaconda/3.5.1.0/lib/libmkl_intel_lp64.so
                   /mpcdf/soft/SLE_12_SP3/packages/x86_64/anaconda/3.5.1.0/lib/libmkl_sequential.so
                   /mpcdf/soft/SLE_12_SP3/packages/x86_64/anaconda/3.5.1.0/lib/libmkl_core.so
                   /mpcdf/soft/SLE_12_SP3/packages/x86_64/anaconda/3.5.1.0/lib/libmkl_blacs_intelmpi_lp64.so
                   /mpcdf/soft/SLE_12_SP3/packages/x86_64/anaconda/3.5.1.0/lib/libmkl_scalapack_lp64.so

  Using        8 parallel tasks.
  Task        0 on host co1631 reporting.
  Task        1 on host co1631 reporting.
  Task        2 on host co1631 reporting.
  Task        3 on host co1631 reporting.
  Task        4 on host co1631 reporting.
  Task        5 on host co1631 reporting.
  Task        6 on host co1631 reporting.
  Task        7 on host co1631 reporting.

  Performing system and environment tests:
  | Environment variable OMP_NUM_THREADS correctly set to 1.
  | Maximum stacksize for task 0: unlimited
  | Maximum stacksize for task 1: unlimited
  | Maximum stacksize for task 2: unlimited
  | Maximum stacksize for task 3: unlimited
  | Maximum stacksize for task 4: unlimited
  | Maximum stacksize for task 5: unlimited
  | Maximum stacksize for task 6: unlimited
  | Maximum stacksize for task 7: unlimited
  | Current stacksize for task 0: unlimited
  | Current stacksize for task 1: unlimited
  | Current stacksize for task 2: unlimited
  | Current stacksize for task 3: unlimited
  | Current stacksize for task 4: unlimited
  | Current stacksize for task 5: unlimited
  | Current stacksize for task 6: unlimited
  | Current stacksize for task 7: unlimited
  | Checking for scalapack...
  | Testing pdtran()...
  | All pdtran() tests passed.

  Obtaining array dimensions for all initial allocations:
  
  -----------------------------------------------------------------------
  Parsing control.in (first pass over file, find array dimensions only).
  The contents of control.in will be repeated verbatim below
  unless switched off by setting 'verbatim_writeout .false.' .
  in the first line of control.in .
  -----------------------------------------------------------------------
  
  #########################################################################################
  #
  #  Volker Blum, FHI 2010 : Input file for FHI-aims
  #
  #  Input file control.in : All computational details for fcc Al
  #
  #########################################################################################
    #
    #  Physical model settings
    #
      xc               pw-lda
      charge           0.
      spin             none
      relativistic     none
    #
    #  SCF convergence settings
    #
      occupation_type  gaussian 0.1
      mixer            pulay
        n_max_pulay             10
        charge_mix_param        0.2
        # ini_linear_mixing     10
        # ini_linear_mix_param  0.05
        # preconditioner kerker 1.5
        # precondition_max_l    0
        # preconditioner turnoff charge 1e-4
        # preconditioner turnoff sum_ev 1e-1
      sc_accuracy_rho  1E-5
      sc_accuracy_eev  1E-3
      sc_accuracy_etot 1E-6
      sc_iter_limit    100
      max_relaxation_steps 1
    #
    #  For periodic boundary conditions
    #
      k_grid  4 4 4
    #
    #  For relaxation:
    #
      relax_geometry trm_2012 1.e-2
      relax_unit_cell full
      numerical_stress_save_scf .false.
  
      stress_for_relaxation numerical
  
    #  sc_accuracy_forces  1E-4
    #
    #  Output options:
    #
    #  output l_proj_dos -20 30 1000 0.3
    #
    #  High-symmetry k-points for fcc band structure output, if requested.
    #
    #  output l_proj_dos -20 30 1000 0.3
    #  output band  0.25  0.50  0.75  0.5   0.5   0.5   100	W      L
    #  output band  0.5   0.5   0.5   0.25  0.25  0.25  100	L      Lambda
    #  output band  0.25  0.25  0.25  0     0     0     100	Lambda Gamma
    #  output band  0     0       0   0.00  0.25  0.25  100	Gamma  Delta
    #  output band  0.00  0.25  0.25  0     0.5   0.5   100	Delta  X
    #  output band  0     0.5   0.5   0.125 0.5   0.625 100	X      Z
    #  output band  0.125 0.5   0.625 0.25  0.50  0.75  100	Z      W
    #  output band  0.25  0.50  0.75  0.375 0.375 0.75  100	W      K
  
  ################################################################################
  #
  #  FHI-aims code project
  #  VB, Fritz-Haber Institut, 2009
  #
  #  Suggested "light" defaults for Si atom (to be pasted into control.in file)
  #  Be sure to double-check any results obtained with these settings for post-processing,
  #  e.g., with the "tight" defaults and larger basis sets.
  #
  ################################################################################
    species        Si
  #     global species definitions
      nucleus             14
      mass                28.0855
  #
      l_hartree           4
  #
      cut_pot             3.5          1.5  1.0
      basis_dep_cutoff    1e-4
  #
      radial_base         42 5.0
      radial_multiplier   1
      angular_grids       specified
        division   0.5866   50
        division   0.9616  110
        division   1.2249  194
        division   1.3795  302
  #      division   1.4810  434
  #      division   1.5529  590
  #      division   1.6284  770
  #      division   1.7077  974
  #      division   2.4068 1202
  #      outer_grid   974
        outer_grid 302
  ################################################################################
  #
  #  Definition of "minimal" basis
  #
  ################################################################################
  #     valence basis states
      valence      3  s   2.
      valence      3  p   2.
  #     ion occupancy
      ion_occ      3  s   1.
      ion_occ      3  p   1.
  ################################################################################
  #
  #  Suggested additional basis functions. For production calculations,
  #  uncomment them one after another (the most important basis functions are
  #  listed first).
  #
  #  Constructed for dimers: 1.75 A, 2.0 A, 2.25 A, 2.75 A, 3.75 A
  #
  ################################################################################
  #  "First tier" - improvements: -571.96 meV to -37.03 meV
       hydro 3 d 4.2
       hydro 2 p 1.4
  #     hydro 4 f 6.2
       ionic 3 s auto
  #  "Second tier" - improvements: -16.76 meV to -3.03 meV
  #     hydro 3 d 9
  #     hydro 5 g 9.4
  #     hydro 4 p 4
  #     hydro 1 s 0.65
  #  "Third tier" - improvements: -3.89 meV to -0.60 meV
  #     ionic 3 d auto
  #     hydro 3 s 2.6
  #     hydro 4 f 8.4
  #     hydro 3 d 3.4
  #     hydro 3 p 7.8
  #  "Fourth tier" - improvements: -0.33 meV to -0.11 meV
  #     hydro 2 p 1.6
  #     hydro 5 g 10.8
  #     hydro 5 f 11.2
  #     hydro 3 d 1
  #     hydro 4 s 4.5
  #  Further basis functions that fell out of the optimization - noise
  #  level... < -0.08 meV
  #     hydro 4 d 6.6
  #     hydro 5 g 16.4
  #     hydro 4 d 9
  
  -----------------------------------------------------------------------
  Completed first pass over input file control.in .
  -----------------------------------------------------------------------
  
  
  -----------------------------------------------------------------------
  Parsing geometry.in (first pass over file, find array dimensions only).
  The contents of geometry.in will be repeated verbatim below
  unless switched off by setting 'verbatim_writeout .false.' .
  in the first line of geometry.in .
  -----------------------------------------------------------------------
  
  lattice_vector	2.70	2.70	0.00
  constrain_relaxation .true.
  lattice_vector	2.70	0.00	2.70
  constrain_relaxation y
  lattice_vector	0.00	2.70	2.70
  
  atom	0.0000	0.0000	0.0000 Si
  constrain_relaxation x
  
  atom_frac 0.3 0.3 0.3 Si	
  constrain_relaxation .true.
  
  -----------------------------------------------------------------------
  Completed first pass over input file geometry.in .
  -----------------------------------------------------------------------
  

  Basic array size parameters:
  | Number of species                 :        1
  | Number of atoms                   :        2
  | Number of lattice vectors         :        3
  | Max. basis fn. angular momentum   :        2
  | Max. atomic/ionic basis occupied n:        3
  | Max. number of basis fn. types    :        3
  | Max. radial fns per species/type  :        5
  | Max. logarithmic grid size        :     1346
  | Max. radial integration grid size :       42
  | Max. angular integration grid size:      302
  | Max. angular grid division number :        8
  | Radial grid for Hartree potential :     1346
  | Number of spin channels           :        1

------------------------------------------------------------
          Reading file control.in.
------------------------------------------------------------
  XC: Using Perdew-Wang parametrisation of Ceperley-Alder LDA.
  Charge =   0.000000E+00: Neutral system requested explicitly.
  Spin treatment: No spin polarisation.
  Non-relativistic treatment of kinetic energy.
  Occupation type: Gaussian broadening, width =   0.100000E+00 eV.
  Using pulay charge density mixing.
  Pulay mixing - number of memorized iterations:   10
  Charge density mixing - mixing parameter:     0.2000
  Convergence accuracy of self-consistent charge density:  0.1000E-04
  Convergence accuracy of sum of eigenvalues:  0.1000E-02
  Convergence accuracy of total energy:  0.1000E-05
  Maximum number of s.-c. iterations  :   100
  Maximum steps for geometry relaxation:        1
  Found k-point grid:         4         4         4
  Geometry relaxation: Modified BFGS - TRM (trust radius method, i.e., trusted quadratic extrapolation).
  Convergence accuracy for geometry relaxation: Maximum force <   0.100000E-01 eV/A.
  Not using symmetries implied by constrained relaxations for numerical stress calculation.
 
  Reading configuration options for species Si                  .
  | Found nuclear charge :  14.0000
  | Found atomic mass :    28.0855000000000      amu
  | Found l_max for Hartree potential  :   4
  | Found cutoff potl. onset [A], width [A], scale factor :    3.50000    1.50000    1.00000
  | Threshold for basis-dependent cutoff potential is   0.100000E-03
  | Found data for basic radial integration grid :    42 points, outermost radius =    5.000 A
  | Found multiplier for basic radial grid :   1
  | Found angular grid specification: user-specified.
  | Specified grid contains     5 separate shells.
  | Check grid settings after all constraints further below.
  | Found free-atom valence shell :  3 s   2.000
  | Found free-atom valence shell :  3 p   2.000
  | Found free-ion valence shell :  3 s   1.000
  | Found free-ion valence shell :  3 p   1.000
  | Found hydrogenic basis function :  3 d   4.200
  | Found hydrogenic basis function :  2 p   1.400
  | Found ionic basis function :  3 s , default cutoff radius.
  Species Si                  : Missing cutoff potential type.
  Defaulting to exp(1/x)/(1-x)^2 type cutoff potential.
  Species Si: No 'logarithmic' tag. Using default grid for free atom:
  | Default logarithmic grid data [bohr] : 0.1000E-03 0.1000E+03 0.1012E+01
  | Will include ionic basis functions of  2.0-fold positive Si                   ion.
  Species Si: On-site basis accuracy parameter (for Gram-Schmidt orthonormalisation) not specified.
  Using default value basis_acc =  0.1000000E-03.
  Species Si                  : Using default innermost maximum threshold i_radial=  2 for radial functions.
  Species Si                  : Default cutoff onset for free atom density etc. : 0.35000000E+01 AA.
  Species Si                  : Basic radial grid will be enhanced according to radial_multiplier =   1, to contain    42 grid points.
 
  Finished reading input file 'control.in'. Consistency checks are next.
 
  MPI_IN_PLACE appears to work with this MPI implementation.
  | Keeping use_mpi_in_place .true. (see manual).
  Target number of points in a grid batch is not set. Defaulting to  100
  Method for grid partitioning is not set. Defaulting to parallel hash+maxmin partitioning.
  Batch size limit is not set. Defaulting to    200
  By default, will store active basis functions for each batch.
  If in need of memory, prune_basis_once .false. can be used to disable this option.
  communication_type for Hartree potential was not specified.
  Defaulting to calc_hartree .
  Pulay mixer: Number of initial linear mixing iterations not set.
  Defaulting to    0 iterations.
  Work space size for distributed Hartree potential not set.
  Defaulting to   0.200000E+03 MB.
  Algorithm-dependent basis array size parameters:
  | n_max_pulay                         :       10
  Presetting      1001 iterations before the initial mixing cycle
  is restarted anyway using the sc_init_iter criterion / keyword.
  Presetting a factor      1.000 between actual scf density residual
  and density convergence criterion sc_accuracy_rho below which sc_init_iter
  takes no effect.
  Default initial Hessian is Lindh matrix (thres = 15.00) plus  0.200000E+01 eV/A^2 times unity.
  No maximum energy tolerance for TRM/BFGS moves, defaulting to   0.100000E-02
  Maximum energy tolerance by which TRM/BFGS trajectory may increase over multiple steps:   0.300000E-02
  No harmonic length scale. Defaulting to   0.250000E-01 A.
  No trust radius initializer. Defaulting to   0.200000E+00 A.
  Unit cell relaxation: Unit cell will be relaxed fully.
  Unit cell relaxation: Numerical stress will be used.
  No scaling factor delta for numerical stress given. Defaulting to   0.100000E-03.
  Force calculation: scf convergence accuracy of forces not set.
  Defaulting to 'sc_accuracy_forces not_checked'.
  Handling of forces: Unphysical translation and rotation will be removed from forces.
  No accuracy limit for integral partition fn. given. Defaulting to  0.1000E-14.
  No threshold value for u(r) in integrations given. Defaulting to  0.1000E-05.
  No accuracy for occupation numbers given. Defaulting to  0.1000E-12.
  No threshold value for occupation numbers given. Defaulting to  0.0000E+00.
  No accuracy for fermi level given. Defaulting to  0.1000E-19.
  Maximum # of iterations to find E_F not set. Defaulting to  200.
  Preferred method for the eigenvalue solver ('KS_method') not specified in 'control.in'.
  Defaulting to serial version, LAPACK (via ELSI), since more k-points than CPUs available.
  Will not use alltoall communication since running on < 1024 CPUs.
  Threshold for basis singularities not set.
  Default threshold for basis singularities:  0.1000E-04
  partition_type (choice of integration weights) for integrals was not specified.
  | Using a version of the partition function of Stratmann and coworkers ('stratmann_sparse').
  | At each grid point, the set of atoms used to build the partition table is smoothly restricted to
  | only those atoms whose free-atom density would be non-zero at that grid point.
  Partitioning for Hartree potential was not defined. Using partition_type for integrals.
  | Adjusted default value of keyword multip_moments_threshold to:       0.10000000E-11
  | This value may affect high angular momentum components of the Hartree potential in periodic systems.
  Angular momentum expansion for Kerker preconditioner not set explicitly.
  | Using default value of   0
  No explicit requirement for turning off preconditioner.
  | By default, it will be turned off when the charge convergence reaches
  | sc_accuracy_rho  =   0.100000E-04
  | sc_accuracy_eev  =   0.100000E-02
  | sc_accuracy_etot =   0.100000E-05
  No special mixing parameter while Kerker preconditioner is on.
  Using default: charge_mix_param =     0.2000.
  No q(lm)/r^(l+1) cutoff set for long-range Hartree potential.
  | Using default value of  0.100000E-09 .
  | Verify using the multipole_threshold keyword.
  Defaulting to new monopole extrapolation.
  Density update method: automatic selection selected.
  Using density matrix based charge density update.
  Using density matrix based charge density update.
  Using packed matrix style: index .
  Geometry relaxation: A file "geometry.in.next_step" is written out by default after each step.
  | This file contains the geometry of the current relaxation step as well as
  | the current Hessian matrix needed to restart the relaxation algorithm.
  | If you do not want part or all of this information, use the keywords
  | "write_restart_geometry" or "hessian_to_restart_geometry" to switch the output off.
  Defaulting to use time-reversal symmetry for k-point grid.
  Charge integration errors on the 3D integration grid will be compensated
  by explicit normalization and distribution of residual charges.
  Use the "compensate_multipole_errors" flag to change this behaviour.
------------------------------------------------------------


------------------------------------------------------------
          Reading geometry description geometry.in.
------------------------------------------------------------
  Found relaxation constraint for lattice vector      1: All components fixed.
  Found relaxation constraint for lattice vector      2: y coordinate fixed.
  Found relaxation constraint for atom      1: x coordinate fixed.
  Found relaxation constraint for atom      2: All coordinates fixed.
 * Attention. You are trying to treat an element beyond Ne (Z=10) without
 * accounting for relativity. This will lead to slight deviations from the true
 * physics of the system. Check your results if in doubt.
  Input structure read successfully.
  The structure contains        2 atoms,  and a total of         28.000 electrons.

  Input geometry:
  | Unit cell:
  |        2.70000000        2.70000000        0.00000000
  |        2.70000000        0.00000000        2.70000000
  |        0.00000000        2.70000000        2.70000000
  | Atomic structure:
  |       Atom                x [A]            y [A]            z [A]
  |    1: Species Si            0.00000000        0.00000000        0.00000000
  |    2: Species Si            1.62000000        1.62000000        1.62000000

  Lattice parameters for 3D lattice (in Angstroms) :     3.818377    3.818377    3.818377
  Angle(s) between unit vectors (in degrees)       :    60.000000   60.000000   60.000000

  | The smallest distance between any two atoms is         2.22647704 AA.
  | The first atom of this pair is atom number                      1 .
  | The second atom of this pair is atom number                     2 .
  | Wigner-Seitz cell of the first atom image           0     0     1 .
  | (The Wigner-Seitz cell of the second atom is 0 0 0  by definition.)

  Symmetry information by spglib:
  | Precision set to  0.1E-04
  | Number of Operations  : 12
  | Space group           : 166
  | International         : R-3m    0
  | Schoenflies           : D3d^5

  Quantities derived from the lattice vectors:
  | Reciprocal lattice vector 1:  1.163553  1.163553 -1.163553
  | Reciprocal lattice vector 2:  1.163553 -1.163553  1.163553
  | Reciprocal lattice vector 3: -1.163553  1.163553  1.163553
  | Unit cell volume                               :   0.393660E+02  A^3

  Range separation radius for Ewald summation (hartree_convergence_parameter):      3.86449263 bohr.

  Fractional coordinates:
                         L1                L2                L3
       atom_frac         0.00000000        0.00000000        0.00000000  Si
       atom_frac         0.30000000        0.30000000        0.30000000  Si

  Number of empty states per atom not set in control.in - providing a guess from actual geometry.
  | Total number of empty states used during s.c.f. cycle:        6
  If you use a very high smearing, use empty_states (per atom!) in control.in to increase this value.

  Structure-dependent array size parameters: 
  | Maximum number of distinct radial functions  :        8
  | Maximum number of basis functions            :       36
  | Number of Kohn-Sham states (occupied + empty):       20
------------------------------------------------------------

------------------------------------------------------------
          Preparing all fixed parts of the calculation.
------------------------------------------------------------
  Determining machine precision:
    2.225073858507201E-308
  Setting up grids for atomic and cluster calculations.

  Creating wave function, potential, and density for free atoms.

  Species: Si

  List of occupied orbitals and eigenvalues:
    n    l              occ      energy [Ha]    energy [eV]
    1    0           2.0000       -65.172154     -1773.4245
    2    0           2.0000        -5.063250      -137.7780
    3    0           2.0000        -0.389854       -10.6085
    2    1           6.0000        -3.503088       -95.3239
    3    1           2.0000        -0.144317        -3.9271

  Creating fixed part of basis set: Ionic, confined, hydrogenic.
 
  Si                   ion:

  List of free ionic orbitals and eigenvalues:
    n    l      energy [Ha]    energy [eV]
    1    0       -66.042358     -1797.1040
    2    0        -5.909940      -160.8177
    3    0        -1.075552       -29.2673
    2    1        -4.350945      -118.3952
    3    1        -0.781825       -21.2745


  List of ionic basis orbitals and eigenvalues:
    n    l      energy [Ha]    energy [eV]    outer radius [A]
    3    0        -1.075532       -29.2667       4.214062

 
  Si                   hydrogenic:
 
  List of hydrogenic basis orbitals: 
    n    l      effective z      eigenvalue [eV]  inner max. [A]     outer max. [A]     outer radius [A]   
    3    2         4.200000       -26.6624           1.139231           1.139231           4.534782
    2    1         1.400000        -6.4613           1.472672           1.472672           4.590560
 

  Adding cutoff potential to free-atom effective potential.
  Creating atomic-like basis functions for current effective potential.

  Species Si                  :

  List of atomic basis orbitals and eigenvalues:
    n    l      energy [Ha]    energy [eV]    outer radius [A]
    1    0       -65.172154     -1773.4245       0.789468
    2    0        -5.063250      -137.7780       2.815114
    3    0        -0.389854       -10.6085       4.534782
    2    1        -3.503088       -95.3239       3.259919
    3    1        -0.144317        -3.9271       4.590560

  Assembling full basis from fixed parts.
  | Species Si :   atomic orbital   1 s accepted.
  | Species Si :   atomic orbital   2 s accepted.
  | Species Si :    ionic orbital   3 s accepted.
  | Species Si :   atomic orbital   3 s accepted.
  | Species Si :   atomic orbital   2 p accepted.
  | Species Si :   atomic orbital   3 p accepted.
  | Species Si :    hydro orbital   2 p accepted.
  | Species Si :    hydro orbital   3 d accepted.
 
  Basis size parameters after reduction:
  | Total number of radial functions:        8
  | Total number of basis functions :       36
 
  Per-task memory consumption for arrays in subroutine allocate_ext:
  |           2.068716MB.
  Testing on-site integration grid accuracy.
  |  Species  Function  <phi|h_atom|phi> (log., in eV)  <phi|h_atom|phi> (rad., in eV)
           1        1              -1773.4245382485              -1773.4238465557
           1        2               -137.7780422334               -137.7780383875
           1        3                -10.2584966028                -10.2583645750
           1        4                  5.0172755718                  4.9378117642 ***
           1        5                -95.3238759277                -95.3238759093
           1        6                 -3.9367923774                 -3.9521708118
           1        7                  6.3364624620                  6.1540591176 ***
           1        8                  6.2680607190                  6.2659437726
 * Note: Onsite integrals marked "***" above are less accurate than
 * onsite_accuracy_threshold =    0.03000 eV. Usually, this is harmless.
 * When in doubt, tighten the "radial" and/or "radial_multiplier" flags to check.

  Preparing densities etc. for the partition functions (integrals / Hartree potential).

  Preparations completed.
  max(cpu_time)          :      0.151 s.
  Wall clock time (cpu1) :      0.151 s.
------------------------------------------------------------

------------------------------------------------------------
          Begin self-consistency loop: Initialization.

          Date     :  20190817, Time     :  154538.894
------------------------------------------------------------

  Initializing index lists of integration centers etc. from given atomic structure:
  Mapping all atomic coordinates to central unit cell.

  Initializing the k-points
          Using symmetry for reducing the k-points
  | k-points reduced from:       64 to       36
  | Number of k-points                             :        36
  The eigenvectors in the calculations are COMPLEX.
  | K-points in task   0:         4
  | K-points in task   1:         5
  | K-points in task   2:         5
  | K-points in task   3:         5
  | K-points in task   4:         5
  | K-points in task   5:         4
  | K-points in task   6:         4
  | K-points in task   7:         4
  | Number of basis functions in the Hamiltonian integrals :      1451
  | Number of basis functions in a single unit cell        :        36
  | Number of centers in hartree potential         :       732
  | Number of centers in hartree multipole         :       330
  | Number of centers in electron density summation:       216
  | Number of centers in basis integrals           :       228
  | Number of centers in integrals                 :       101
  | Number of centers in hamiltonian               :       216
  | Consuming         73 KiB for k_phase.
  | Number of super-cells (origin) [n_cells]                     :        2197
  | Number of super-cells (after PM_index) [n_cells]             :         130
  | Number of super-cells in hamiltonian [n_cells_in_hamiltonian]:         130
  | Size of matrix packed + index [n_hamiltonian_matrix_size] :       44370

  Initializing relaxation algorithms.
  Finished initialization of distributed Hessian storage.
  | Global dimension:         7
  | BLACS block size:         1
  | Number of workers:        7

  | Estimated reciprocal-space cutoff momentum G_max:         2.41638048 bohr^-1 .
  | Reciprocal lattice points for long-range Hartree potential:      58
  Partitioning the integration grid into batches with parallel hashing+maxmin method.
  | Number of batches:      177
  | Maximal batch size:     114
  | Minimal batch size:      52
  | Average batch size:      63.322
  | Standard deviation of batch sizes:      14.637

  Integration load balanced across     8 MPI tasks.
  Work distribution over tasks is as follows:
  Task     0 has       1368 integration points.
  Task     1 has       1402 integration points.
  Task     2 has       1395 integration points.
  Task     3 has       1409 integration points.
  Task     4 has       1396 integration points.
  Task     5 has       1401 integration points.
  Task     6 has       1408 integration points.
  Task     7 has       1429 integration points.
  Initializing partition tables, free-atom densities, potentials, etc. across the integration grid (initialize_grid_storage).
  | initialize_grid_storage: Actual outermost partition radius vs. multipole_radius_free
  | (-- VB: in principle, multipole_radius_free should be larger, hence this output)
  | Species        1: Confinement radius =              4.999999999999999 AA, multipole_radius_free =              5.000694715736543 AA.
  | Species        1: outer_partition_radius set to              5.000694715736543 AA .
  | The sparse table of interatomic distances needs        256.16 kbyte instead of       415.87 kbyte of memory.
  | Net number of integration points:    11208
  | of which are non-zero points    :     9716
  | Numerical average free-atom electrostatic potential    :    -13.38683177 eV
  Renormalizing the initial density to the exact electron count on the 3D integration grid.
  | Initial density: Formal number of electrons (from input files) :      28.0000000000
  | Integrated number of electrons on 3D grid     :      28.0025366937
  | Charge integration error                      :       0.0025366937
  | Normalization factor for density and gradient :       0.9999094120
  Renormalizing the free-atom superposition density to the exact electron count on the 3D integration grid.
  | Formal number of electrons (from input files) :      28.0000000000
  | Integrated number of electrons on 3D grid     :      28.0025366937
  | Charge integration error                      :       0.0025366937
  | Normalization factor for density and gradient :       0.9999094120
  Obtaining max. number of non-zero basis functions in each batch (get_n_compute_maxes).
  | Maximal number of non-zero basis functions:      462 in task     0
  | Maximal number of non-zero basis functions:      464 in task     1
  | Maximal number of non-zero basis functions:      462 in task     2
  | Maximal number of non-zero basis functions:      463 in task     3
  | Maximal number of non-zero basis functions:      472 in task     4
  | Maximal number of non-zero basis functions:      463 in task     5
  | Maximal number of non-zero basis functions:      465 in task     6
  | Maximal number of non-zero basis functions:      463 in task     7
  Allocating        0.044 MB for KS_eigenvector_complex
  Integrating Hamiltonian matrix: batch-based integration.
  Time summed over all CPUs for integration: real work        0.367 s, elapsed        0.373 s
  Integrating overlap matrix.
  Time summed over all CPUs for integration: real work        0.296 s, elapsed        0.302 s
  Decreasing sparse matrix size:
   Tolerance:  9.999999824516700E-014
   Hamiltonian matrix
  | Array has    38729 nonzero elements out of    44370 elements
  | Sparsity factor is 0.127
   Overlap matrix
  | Array has    37596 nonzero elements out of    44370 elements
  | Sparsity factor is 0.153
  New size of hamiltonian matrix:       38756

  Updating Kohn-Sham eigenvalues and eigenvectors using ELSI and the (modified) LAPACK eigensolver.
  Singularity check in k-point 8, task 0 (analysis for other k-points/tasks may follow below):
  Overlap matrix is not singular
  | Lowest and highest eigenvalues :  0.1019E-02,  0.5531E+01
  Finished singularity check of overlap matrix
  | Time :     0.000 s
  Starting LAPACK eigensolver
  Finished Cholesky decomposition
  | Time :     0.000 s
  Finished transformation to standard eigenproblem
  | Time :     0.000 s
  Finished solving standard eigenproblem
  | Time :     0.000 s
  Finished back-transformation of eigenvectors
  | Time :     0.000 s

  Obtaining occupation numbers and chemical potential using ELSI.
  | Chemical potential (Fermi level):    -5.44029129 eV
  Writing Kohn-Sham eigenvalues.
  K-point:       1 at    0.000000    0.000000    0.000000 (in units of recip. lattice)

  State    Occupation    Eigenvalue [Ha]    Eigenvalue [eV]
      1       2.00000         -65.198276        -1774.13536
      2       2.00000         -65.198276        -1774.13536
      3       2.00000          -5.095149         -138.64607
      4       2.00000          -5.094636         -138.63209
      5       2.00000          -3.536312          -96.22794
      6       2.00000          -3.536312          -96.22794
      7       2.00000          -3.534837          -96.18780
      8       2.00000          -3.534837          -96.18780
      9       2.00000          -3.532446          -96.12274
     10       2.00000          -3.532286          -96.11839
     11       2.00000          -0.676092          -18.39739
     12       2.00000          -0.275547           -7.49801
     13       2.00000          -0.275547           -7.49801
     14       0.00000          -0.172977           -4.70695
     15       0.00000          -0.126702           -3.44774
     16       0.00000          -0.119318           -3.24681
     17       0.00000          -0.119318           -3.24681
     18       0.00000          -0.107818           -2.93388
     19       0.00000           0.059827            1.62797
     20       0.00000           0.076481            2.08114

  What follows are estimated values for band gap, HOMO, LUMO, etc.
  | They are estimated on a discrete k-point grid and not necessarily exact.
  | For converged numbers, create a DOS and/or band structure plot on a denser k-grid.

  Highest occupied state (VBM) at     -5.46486262 eV (relative to internal zero)
  | Occupation number:      1.27177757
  | K-point:      11 at    0.250000    0.000000    0.000000 (in units of recip. lattice)

  Lowest unoccupied state (CBM) at    -5.32991444 eV (relative to internal zero)
  | Occupation number:      0.11853215
  | K-point:      29 at    0.500000    0.500000    0.000000 (in units of recip. lattice)

  ESTIMATED overall HOMO-LUMO gap:      0.13494818 eV between HOMO at k-point 11 and LUMO at k-point 29
  | This appears to be an indirect band gap.
  | Smallest direct gap :      0.58756705 eV for k_point 29 at    0.500000    0.500000    0.000000 (in units of recip. lattice)
  However, this system has fractional occupation numbers. Since we use a finite k-point grid,
  this material is metallic within the approximate finite broadening function (occupation_type)
  applied to determine the occupation numbers.
  Calculating total energy contributions from superposition of free atom densities.

  Total energy components:
  | Sum of eigenvalues            :        -326.93725357 Ha       -8896.41531428 eV
  | XC energy correction          :         -39.56226729 Ha       -1076.54406701 eV
  | XC potential correction       :          52.26703471 Ha        1422.25837811 eV
  | Free-atom electrostatic energy:        -262.56104676 Ha       -7144.64959815 eV
  | Hartree energy correction     :           0.00000000 Ha           0.00000000 eV
  | Entropy correction            :          -0.00010681 Ha          -0.00290648 eV
  | ---------------------------
  | Total energy                  :        -576.79353292 Ha      -15695.35060133 eV
  | Total energy, T -> 0          :        -576.79363973 Ha      -15695.35350781 eV  <-- do not rely on this value for anything but (periodic) metals
  | Electronic free energy        :        -576.79374654 Ha      -15695.35641428 eV

  Derived energy quantities:
  | Kinetic energy                :         575.60459392 Ha       15662.99792508 eV
  | Electrostatic energy          :       -1112.83585954 Ha      -30281.80445940 eV
  | Energy correction for multipole
  | error in Hartree potential    :           0.00000000 Ha           0.00000000 eV
  | Sum of eigenvalues per atom                           :       -4448.20765714 eV
  | Total energy (T->0) per atom                          :       -7847.67675390 eV  <-- do not rely on this value for anything but (periodic) metals
  | Electronic free energy per atom                       :       -7847.67820714 eV
  Initialize hartree_potential_storage
  Max. number of atoms included in rho_multipole:            2

  End scf initialization - timings             :  max(cpu_time)    wall_clock(cpu1)
  | Time for scf. initialization               :        0.213 s           0.213 s
  | Boundary condition initialization          :        0.050 s           0.051 s
  | Relaxation initialization                  :        0.001 s           0.001 s
  | Integration                                :        0.088 s           0.088 s
  | Solution of K.-S. eqns.                    :        0.006 s           0.006 s
  | Grid partitioning                          :        0.017 s           0.017 s
  | Preloading free-atom quantities on grid    :        0.001 s           0.001 s
  | Free-atom superposition energy             :        0.006 s           0.006 s
  | Total energy evaluation                    :        0.000 s           0.000 s

  Partial memory accounting:
  | Current value for overall tracked memory usage:
  |   Minimum:        0.785 MB (on task 0)
  |   Maximum:        0.796 MB (on task 1)
  |   Average:        0.791 MB
  | Peak value for overall tracked memory usage:
  |   Minimum:        3.726 MB (on task 0 after allocating wave)
  |   Maximum:        3.835 MB (on task 4 after allocating wave)
  |   Average:        3.754 MB
  | Largest tracked array allocation so far:
  |   Minimum:        1.628 MB (hamiltonian_shell on task 0)
  |   Maximum:        1.700 MB (hamiltonian_shell on task 4)
  |   Average:        1.644 MB
  Note:  These values currently only include a subset of arrays which are explicitly tracked.
  The "true" memory usage will be greater.
------------------------------------------------------------

------------------------------------------------------------
          Begin self-consistency iteration #    1

  Date     :  20190817, Time     :  154539.108
------------------------------------------------------------
  Evaluating new KS density using the density matrix
  Evaluating density matrix
  Time summed over all CPUs for getting density from density matrix: real work        0.340 s, elapsed        0.351 s
  Integration grid: deviation in total charge (<rho> - N_e) =   2.131628E-14
  Pulay mixing of updated and previous charge densities.
  Renormalizing the density to the exact electron count on the 3D integration grid.
  | Formal number of electrons (from input files) :      28.0000000000
  | Integrated number of electrons on 3D grid     :      27.9997392667
  | Charge integration error                      :      -0.0002607333
  | Normalization factor for density and gradient :       1.0000093120

  Evaluating partitioned Hartree potential by multipole expansion.
  | Original multipole sum: apparent total charge =  -0.364617E-15
  | Sum of charges compensated after spline to logarithmic grids =  -0.102213E-04
  | Analytical far-field extrapolation by fixed multipoles:
  | Hartree multipole sum: apparent total charge =   0.000000E+00
  Summing up the Hartree potential.
  Time summed over all CPUs for potential: real work        0.606 s, elapsed        0.617 s
  | RMS charge density error from multipole expansion :   0.245803E-02
  | Average real-space part of the electrostatic potential :      0.06745662 eV

  Integrating Hamiltonian matrix: batch-based integration.
  Time summed over all CPUs for integration: real work        0.364 s, elapsed        0.373 s

  Updating Kohn-Sham eigenvalues and eigenvectors using ELSI and the (modified) LAPACK eigensolver.
  Starting LAPACK eigensolver
  Finished Cholesky decomposition
  | Time :     0.000 s
  Finished transformation to standard eigenproblem
  | Time :     0.000 s
  Finished solving standard eigenproblem
  | Time :     0.000 s
  Finished back-transformation of eigenvectors
  | Time :     0.000 s

  Obtaining occupation numbers and chemical potential using ELSI.
  | Chemical potential (Fermi level):    -5.38728241 eV
  Writing Kohn-Sham eigenvalues.
  K-point:       1 at    0.000000    0.000000    0.000000 (in units of recip. lattice)

  State    Occupation    Eigenvalue [Ha]    Eigenvalue [eV]
      1       2.00000         -65.188451        -1773.86801
      2       2.00000         -65.188451        -1773.86801
      3       2.00000          -5.088132         -138.45512
      4       2.00000          -5.087619         -138.44115
      5       2.00000          -3.528686          -96.02043
      6       2.00000          -3.528686          -96.02043
      7       2.00000          -3.527211          -95.98029
      8       2.00000          -3.527211          -95.98029
      9       2.00000          -3.525834          -95.94282
     10       2.00000          -3.525674          -95.93846
     11       2.00000          -0.672968          -18.31239
     12       2.00000          -0.270415           -7.35838
     13       2.00000          -0.270415           -7.35838
     14       0.00000          -0.171179           -4.65802
     15       0.00000          -0.124102           -3.37698
     16       0.00000          -0.116908           -3.18122
     17       0.00000          -0.116908           -3.18122
     18       0.00000          -0.103527           -2.81711
     19       0.00000           0.060812            1.65479
     20       0.00000           0.078525            2.13678

  What follows are estimated values for band gap, HOMO, LUMO, etc.
  | They are estimated on a discrete k-point grid and not necessarily exact.
  | For converged numbers, create a DOS and/or band structure plot on a denser k-grid.

  Highest occupied state (VBM) at     -5.40457499 eV (relative to internal zero)
  | Occupation number:      1.19319822
  | K-point:       2 at    0.000000    0.000000    0.250000 (in units of recip. lattice)

  Lowest unoccupied state (CBM) at    -5.30924238 eV (relative to internal zero)
  | Occupation number:      0.26974382
  | K-point:      25 at    0.500000    0.000000    0.500000 (in units of recip. lattice)

  ESTIMATED overall HOMO-LUMO gap:      0.09533261 eV between HOMO at k-point 2 and LUMO at k-point 25
  | This appears to be an indirect band gap.
  | Smallest direct gap :      0.57618807 eV for k_point 25 at    0.500000    0.000000    0.500000 (in units of recip. lattice)
  However, this system has fractional occupation numbers. Since we use a finite k-point grid,
  this material is metallic within the approximate finite broadening function (occupation_type)
  applied to determine the occupation numbers.

  Total energy components:
  | Sum of eigenvalues            :        -326.75583386 Ha       -8891.47863284 eV
  | XC energy correction          :         -39.57394310 Ha       -1076.86178198 eV
  | XC potential correction       :          52.28243400 Ha        1422.67741404 eV
  | Free-atom electrostatic energy:        -262.56104676 Ha       -7144.64959815 eV
  | Hartree energy correction     :          -0.18197449 Ha          -4.95177789 eV
  | Entropy correction            :          -0.00012277 Ha          -0.00334079 eV
  | ---------------------------
  | Total energy                  :        -576.79036423 Ha      -15695.26437682 eV
  | Total energy, T -> 0          :        -576.79048700 Ha      -15695.26771761 eV  <-- do not rely on this value for anything but (periodic) metals
  | Electronic free energy        :        -576.79060977 Ha      -15695.27105840 eV

  Derived energy quantities:
  | Kinetic energy                :         575.66245496 Ha       15664.57240407 eV
  | Electrostatic energy          :       -1112.87887608 Ha      -30282.97499891 eV
  | Energy correction for multipole
  | error in Hartree potential    :           0.00339286 Ha           0.09232441 eV
  | Sum of eigenvalues per atom                           :       -4445.73931642 eV
  | Total energy (T->0) per atom                          :       -7847.63385881 eV  <-- do not rely on this value for anything but (periodic) metals
  | Electronic free energy per atom                       :       -7847.63552920 eV

  Self-consistency convergence accuracy:
  | Change of charge density      :  0.1110E+00
  | Change of sum of eigenvalues  :  0.4937E+01 eV
  | Change of total energy        :  0.8622E-01 eV

  End self-consistency iteration #     1       :  max(cpu_time)    wall_clock(cpu1)
  | Time for this iteration                    :        0.189 s           0.189 s
  | Charge density update                      :        0.046 s           0.045 s
  | Density mixing & preconditioning           :        0.011 s           0.011 s
  | Hartree multipole update                   :        0.001 s           0.001 s
  | Hartree multipole summation                :        0.079 s           0.079 s
  | Integration                                :        0.048 s           0.048 s
  | Solution of K.-S. eqns.                    :        0.004 s           0.004 s
  | Total energy evaluation                    :        0.000 s           0.000 s

  Partial memory accounting:
  | Current value for overall tracked memory usage:
  |   Minimum:        0.785 MB (on task 0)
  |   Maximum:        0.796 MB (on task 1)
  |   Average:        0.791 MB
  | Peak value for overall tracked memory usage:
  |   Minimum:        3.726 MB (on task 0 after allocating wave)
  |   Maximum:        3.835 MB (on task 4 after allocating wave)
  |   Average:        3.754 MB
  | Largest tracked array allocation so far:
  |   Minimum:        1.628 MB (hamiltonian_shell on task 0)
  |   Maximum:        1.700 MB (hamiltonian_shell on task 4)
  |   Average:        1.644 MB
  Note:  These values currently only include a subset of arrays which are explicitly tracked.
  The "true" memory usage will be greater.
------------------------------------------------------------

------------------------------------------------------------
          Begin self-consistency iteration #    2

  Date     :  20190817, Time     :  154539.297
------------------------------------------------------------
  Evaluating new KS density using the density matrix
  Evaluating density matrix
  Time summed over all CPUs for getting density from density matrix: real work        0.334 s, elapsed        0.344 s
  Integration grid: deviation in total charge (<rho> - N_e) =   2.131628E-14
  Pulay mixing of updated and previous charge densities.
  Renormalizing the density to the exact electron count on the 3D integration grid.
  | Formal number of electrons (from input files) :      28.0000000000
  | Integrated number of electrons on 3D grid     :      27.9992454222
  | Charge integration error                      :      -0.0007545778
  | Normalization factor for density and gradient :       1.0000269499

  Evaluating partitioned Hartree potential by multipole expansion.
  | Original multipole sum: apparent total charge =   0.119461E-13
  | Sum of charges compensated after spline to logarithmic grids =  -0.465093E-04
  | Analytical far-field extrapolation by fixed multipoles:
  | Hartree multipole sum: apparent total charge =   0.000000E+00
  Summing up the Hartree potential.
  Time summed over all CPUs for potential: real work        0.662 s, elapsed        0.673 s
  | RMS charge density error from multipole expansion :   0.112438E-01
  | Average real-space part of the electrostatic potential :      0.29260573 eV

  Integrating Hamiltonian matrix: batch-based integration.
  Time summed over all CPUs for integration: real work        0.366 s, elapsed        0.373 s

  Updating Kohn-Sham eigenvalues and eigenvectors using ELSI and the (modified) LAPACK eigensolver.
  Starting LAPACK eigensolver
  Finished Cholesky decomposition
  | Time :     0.000 s
  Finished transformation to standard eigenproblem
  | Time :     0.000 s
  Finished solving standard eigenproblem
  | Time :     0.000 s
  Finished back-transformation of eigenvectors
  | Time :     0.000 s

  Obtaining occupation numbers and chemical potential using ELSI.
  | Chemical potential (Fermi level):    -5.21688145 eV
  What follows are estimated values for band gap, HOMO, LUMO, etc.
  | They are estimated on a discrete k-point grid and not necessarily exact.
  | For converged numbers, create a DOS and/or band structure plot on a denser k-grid.

  Highest occupied state (VBM) at     -5.22397358 eV (relative to internal zero)
  | Occupation number:      1.07989209
  | K-point:       9 at    0.000000    0.500000    0.500000 (in units of recip. lattice)

  Lowest unoccupied state (CBM) at    -5.19633644 eV (relative to internal zero)
  | Occupation number:      0.77139522
  | K-point:       2 at    0.000000    0.000000    0.250000 (in units of recip. lattice)

  ESTIMATED overall HOMO-LUMO gap:      0.02763714 eV between HOMO at k-point 9 and LUMO at k-point 2
  | This appears to be an indirect band gap.
  | Smallest direct gap :      1.02957566 eV for k_point 23 at    0.000000    0.000000    0.250000 (in units of recip. lattice)
  However, this system has fractional occupation numbers. Since we use a finite k-point grid,
  this material is metallic within the approximate finite broadening function (occupation_type)
  applied to determine the occupation numbers.

  Checking to see if s.c.f. parameters should be adjusted.

  Total energy components:
  | Sum of eigenvalues            :        -326.17659914 Ha       -8875.71685421 eV
  | XC energy correction          :         -39.61764560 Ha       -1078.05098733 eV
  | XC potential correction       :          52.34002985 Ha        1424.24467708 eV
  | Free-atom electrostatic energy:        -262.56104676 Ha       -7144.64959815 eV
  | Hartree energy correction     :          -0.77094537 Ha         -20.97849085 eV
  | Entropy correction            :          -0.00014871 Ha          -0.00404650 eV
  | ---------------------------
  | Total energy                  :        -576.78620702 Ha      -15695.15125346 eV
  | Total energy, T -> 0          :        -576.78635572 Ha      -15695.15529996 eV  <-- do not rely on this value for anything but (periodic) metals
  | Electronic free energy        :        -576.78650443 Ha      -15695.15934646 eV

  Derived energy quantities:
  | Kinetic energy                :         575.78333805 Ha       15667.86180050 eV
  | Electrostatic energy          :       -1112.95189948 Ha      -30284.96206663 eV
  | Energy correction for multipole
  | error in Hartree potential    :           0.01537900 Ha           0.41848388 eV
  | Sum of eigenvalues per atom                           :       -4437.85842710 eV
  | Total energy (T->0) per atom                          :       -7847.57764998 eV  <-- do not rely on this value for anything but (periodic) metals
  | Electronic free energy per atom                       :       -7847.57967323 eV

  Self-consistency convergence accuracy:
  | Change of charge density      :  0.8703E-01
  | Change of sum of eigenvalues  :  0.1576E+02 eV
  | Change of total energy        :  0.1131E+00 eV

  End self-consistency iteration #     2       :  max(cpu_time)    wall_clock(cpu1)
  | Time for this iteration                    :        0.194 s           0.194 s
  | Charge density update                      :        0.044 s           0.045 s
  | Density mixing & preconditioning           :        0.010 s           0.010 s
  | Hartree multipole update                   :        0.001 s           0.001 s
  | Hartree multipole summation                :        0.086 s           0.086 s
  | Integration                                :        0.048 s           0.048 s
  | Solution of K.-S. eqns.                    :        0.004 s           0.004 s
  | Total energy evaluation                    :        0.000 s           0.000 s

  Partial memory accounting:
  | Current value for overall tracked memory usage:
  |   Minimum:        0.786 MB (on task 0)
  |   Maximum:        0.797 MB (on task 1)
  |   Average:        0.792 MB
  | Peak value for overall tracked memory usage:
  |   Minimum:        3.726 MB (on task 0 after allocating wave)
  |   Maximum:        3.835 MB (on task 4 after allocating wave)
  |   Average:        3.754 MB
  | Largest tracked array allocation so far:
  |   Minimum:        1.628 MB (hamiltonian_shell on task 0)
  |   Maximum:        1.700 MB (hamiltonian_shell on task 4)
  |   Average:        1.644 MB
  Note:  These values currently only include a subset of arrays which are explicitly tracked.
  The "true" memory usage will be greater.
------------------------------------------------------------

------------------------------------------------------------
          Begin self-consistency iteration #    3

  Date     :  20190817, Time     :  154539.492
------------------------------------------------------------
  Evaluating new KS density using the density matrix
  Evaluating density matrix
  Time summed over all CPUs for getting density from density matrix: real work        0.333 s, elapsed        0.339 s
  Integration grid: deviation in total charge (<rho> - N_e) =  -3.552714E-14
  Pulay mixing of updated and previous charge densities.
  Renormalizing the density to the exact electron count on the 3D integration grid.
  | Formal number of electrons (from input files) :      28.0000000000
  | Integrated number of electrons on 3D grid     :      28.0006658673
  | Charge integration error                      :       0.0006658673
  | Normalization factor for density and gradient :       0.9999762196

  Evaluating partitioned Hartree potential by multipole expansion.
  | Original multipole sum: apparent total charge =  -0.544944E-14
  | Sum of charges compensated after spline to logarithmic grids =  -0.476680E-04
  | Analytical far-field extrapolation by fixed multipoles:
  | Hartree multipole sum: apparent total charge =   0.000000E+00
  Summing up the Hartree potential.
  Time summed over all CPUs for potential: real work        0.652 s, elapsed        0.667 s
  | RMS charge density error from multipole expansion :   0.117476E-01
  | Average real-space part of the electrostatic potential :      0.24995795 eV

  Integrating Hamiltonian matrix: batch-based integration.
  Time summed over all CPUs for integration: real work        0.363 s, elapsed        0.369 s

  Updating Kohn-Sham eigenvalues and eigenvectors using ELSI and the (modified) LAPACK eigensolver.
  Starting LAPACK eigensolver
  Finished Cholesky decomposition
  | Time :     0.000 s
  Finished transformation to standard eigenproblem
  | Time :     0.000 s
  Finished solving standard eigenproblem
  | Time :     0.001 s
  Finished back-transformation of eigenvectors
  | Time :     0.000 s

  Obtaining occupation numbers and chemical potential using ELSI.
  | Chemical potential (Fermi level):    -5.24703819 eV
  What follows are estimated values for band gap, HOMO, LUMO, etc.
  | They are estimated on a discrete k-point grid and not necessarily exact.
  | For converged numbers, create a DOS and/or band structure plot on a denser k-grid.

  Highest occupied state (VBM) at     -5.55775004 eV (relative to internal zero)
  | Occupation number:      1.99998888
  | K-point:      23 at    0.500000    0.000000    0.000000 (in units of recip. lattice)

  Lowest unoccupied state (CBM) at    -5.23770080 eV (relative to internal zero)
  | Occupation number:      0.89494429
  | K-point:       2 at    0.000000    0.000000    0.250000 (in units of recip. lattice)

  ESTIMATED overall HOMO-LUMO gap:      0.32004923 eV between HOMO at k-point 23 and LUMO at k-point 2
  | This appears to be an indirect band gap.
  | Smallest direct gap :      0.54000479 eV for k_point 25 at    0.000000    0.000000    0.250000 (in units of recip. lattice)
  However, this system has fractional occupation numbers. Since we use a finite k-point grid,
  this material is metallic within the approximate finite broadening function (occupation_type)
  applied to determine the occupation numbers.

  Total energy components:
  | Sum of eigenvalues            :        -326.38548167 Ha       -8881.40083684 eV
  | XC energy correction          :         -39.60077721 Ha       -1077.59197509 eV
  | XC potential correction       :          52.31770356 Ha        1423.63714774 eV
  | Free-atom electrostatic energy:        -262.56104676 Ha       -7144.64959815 eV
  | Hartree energy correction     :          -0.55632580 Ha         -15.13839525 eV
  | Entropy correction            :          -0.00014772 Ha          -0.00401961 eV
  | ---------------------------
  | Total energy                  :        -576.78592787 Ha      -15695.14365759 eV
  | Total energy, T -> 0          :        -576.78607559 Ha      -15695.14767720 eV  <-- do not rely on this value for anything but (periodic) metals
  | Electronic free energy        :        -576.78622331 Ha      -15695.15169681 eV

  Derived energy quantities:
  | Kinetic energy                :         575.55806825 Ha       15661.73189727 eV
  | Electrostatic energy          :       -1112.74321892 Ha      -30279.28357977 eV
  | Energy correction for multipole
  | error in Hartree potential    :           0.01563492 Ha           0.42544793 eV
  | Sum of eigenvalues per atom                           :       -4440.70041842 eV
  | Total energy (T->0) per atom                          :       -7847.57383860 eV  <-- do not rely on this value for anything but (periodic) metals
  | Electronic free energy per atom                       :       -7847.57584841 eV

  Self-consistency convergence accuracy:
  | Change of charge density      :  0.1389E-01
  | Change of sum of eigenvalues  : -0.5684E+01 eV
  | Change of total energy        :  0.7596E-02 eV

  End self-consistency iteration #     3       :  max(cpu_time)    wall_clock(cpu1)
  | Time for this iteration                    :        0.193 s           0.193 s
  | Charge density update                      :        0.044 s           0.043 s
  | Density mixing & preconditioning           :        0.010 s           0.011 s
  | Hartree multipole update                   :        0.001 s           0.001 s
  | Hartree multipole summation                :        0.085 s           0.085 s
  | Integration                                :        0.047 s           0.048 s
  | Solution of K.-S. eqns.                    :        0.005 s           0.004 s
  | Total energy evaluation                    :        0.000 s           0.001 s

  Partial memory accounting:
  | Current value for overall tracked memory usage:
  |   Minimum:        0.786 MB (on task 0)
  |   Maximum:        0.797 MB (on task 1)
  |   Average:        0.792 MB
  | Peak value for overall tracked memory usage:
  |   Minimum:        3.726 MB (on task 0 after allocating wave)
  |   Maximum:        3.835 MB (on task 4 after allocating wave)
  |   Average:        3.754 MB
  | Largest tracked array allocation so far:
  |   Minimum:        1.628 MB (hamiltonian_shell on task 0)
  |   Maximum:        1.700 MB (hamiltonian_shell on task 4)
  |   Average:        1.644 MB
  Note:  These values currently only include a subset of arrays which are explicitly tracked.
  The "true" memory usage will be greater.
------------------------------------------------------------

------------------------------------------------------------
          Begin self-consistency iteration #    4

  Date     :  20190817, Time     :  154539.685
------------------------------------------------------------
  Evaluating new KS density using the density matrix
  Evaluating density matrix
  Time summed over all CPUs for getting density from density matrix: real work        0.333 s, elapsed        0.339 s
  Integration grid: deviation in total charge (<rho> - N_e) =  -2.486900E-14
  Pulay mixing of updated and previous charge densities.
  Renormalizing the density to the exact electron count on the 3D integration grid.
  | Formal number of electrons (from input files) :      28.0000000000
  | Integrated number of electrons on 3D grid     :      28.0000078487
  | Charge integration error                      :       0.0000078487
  | Normalization factor for density and gradient :       0.9999997197

  Evaluating partitioned Hartree potential by multipole expansion.
  | Original multipole sum: apparent total charge =  -0.107015E-14
  | Sum of charges compensated after spline to logarithmic grids =  -0.490496E-04
  | Analytical far-field extrapolation by fixed multipoles:
  | Hartree multipole sum: apparent total charge =   0.000000E+00
  Summing up the Hartree potential.
  Time summed over all CPUs for potential: real work        0.652 s, elapsed        0.664 s
  | RMS charge density error from multipole expansion :   0.120765E-01
  | Average real-space part of the electrostatic potential :      0.25420364 eV

  Integrating Hamiltonian matrix: batch-based integration.
  Time summed over all CPUs for integration: real work        0.366 s, elapsed        0.370 s

  Updating Kohn-Sham eigenvalues and eigenvectors using ELSI and the (modified) LAPACK eigensolver.
  Starting LAPACK eigensolver
  Finished Cholesky decomposition
  | Time :     0.001 s
  Finished transformation to standard eigenproblem
  | Time :     0.000 s
  Finished solving standard eigenproblem
  | Time :     0.000 s
  Finished back-transformation of eigenvectors
  | Time :     0.000 s

  Obtaining occupation numbers and chemical potential using ELSI.
  | Chemical potential (Fermi level):    -5.24221277 eV
  What follows are estimated values for band gap, HOMO, LUMO, etc.
  | They are estimated on a discrete k-point grid and not necessarily exact.
  | For converged numbers, create a DOS and/or band structure plot on a denser k-grid.

  Highest occupied state (VBM) at     -5.55098340 eV (relative to internal zero)
  | Occupation number:      1.99998738
  | K-point:      23 at    0.500000    0.000000    0.000000 (in units of recip. lattice)

  Lowest unoccupied state (CBM) at    -5.23195316 eV (relative to internal zero)
  | Occupation number:      0.88463768
  | K-point:       2 at    0.000000    0.000000    0.250000 (in units of recip. lattice)

  ESTIMATED overall HOMO-LUMO gap:      0.31903024 eV between HOMO at k-point 23 and LUMO at k-point 2
  | This appears to be an indirect band gap.
  | Smallest direct gap :      0.54051603 eV for k_point 25 at    0.000000    0.000000    0.250000 (in units of recip. lattice)
  However, this system has fractional occupation numbers. Since we use a finite k-point grid,
  this material is metallic within the approximate finite broadening function (occupation_type)
  applied to determine the occupation numbers.

  Total energy components:
  | Sum of eigenvalues            :        -326.37958573 Ha       -8881.24040036 eV
  | XC energy correction          :         -39.60173060 Ha       -1077.61791818 eV
  | XC potential correction       :          52.31895995 Ha        1423.67133580 eV
  | Free-atom electrostatic energy:        -262.56104676 Ha       -7144.64959815 eV
  | Hartree energy correction     :          -0.56251439 Ha         -15.30679530 eV
  | Entropy correction            :          -0.00014810 Ha          -0.00402997 eV
  | ---------------------------
  | Total energy                  :        -576.78591753 Ha      -15695.14337619 eV
  | Total energy, T -> 0          :        -576.78606563 Ha      -15695.14740616 eV  <-- do not rely on this value for anything but (periodic) metals
  | Electronic free energy        :        -576.78621373 Ha      -15695.15143613 eV

  Derived energy quantities:
  | Kinetic energy                :         575.56021089 Ha       15661.79020141 eV
  | Electrostatic energy          :       -1112.74439782 Ha      -30279.31565942 eV
  | Energy correction for multipole
  | error in Hartree potential    :           0.01609319 Ha           0.43791794 eV
  | Sum of eigenvalues per atom                           :       -4440.62020018 eV
  | Total energy (T->0) per atom                          :       -7847.57370308 eV  <-- do not rely on this value for anything but (periodic) metals
  | Electronic free energy per atom                       :       -7847.57571807 eV

  Self-consistency convergence accuracy:
  | Change of charge density      :  0.4422E-02
  | Change of sum of eigenvalues  :  0.1604E+00 eV
  | Change of total energy        :  0.2814E-03 eV

  End self-consistency iteration #     4       :  max(cpu_time)    wall_clock(cpu1)
  | Time for this iteration                    :        0.192 s           0.192 s
  | Charge density update                      :        0.044 s           0.044 s
  | Density mixing & preconditioning           :        0.010 s           0.009 s
  | Hartree multipole update                   :        0.001 s           0.001 s
  | Hartree multipole summation                :        0.085 s           0.085 s
  | Integration                                :        0.047 s           0.048 s
  | Solution of K.-S. eqns.                    :        0.005 s           0.005 s
  | Total energy evaluation                    :        0.000 s           0.000 s

  Partial memory accounting:
  | Current value for overall tracked memory usage:
  |   Minimum:        0.786 MB (on task 0)
  |   Maximum:        0.797 MB (on task 1)
  |   Average:        0.792 MB
  | Peak value for overall tracked memory usage:
  |   Minimum:        3.726 MB (on task 0 after allocating wave)
  |   Maximum:        3.835 MB (on task 4 after allocating wave)
  |   Average:        3.754 MB
  | Largest tracked array allocation so far:
  |   Minimum:        1.628 MB (hamiltonian_shell on task 0)
  |   Maximum:        1.700 MB (hamiltonian_shell on task 4)
  |   Average:        1.644 MB
  Note:  These values currently only include a subset of arrays which are explicitly tracked.
  The "true" memory usage will be greater.
------------------------------------------------------------

------------------------------------------------------------
          Begin self-consistency iteration #    5

  Date     :  20190817, Time     :  154539.878
------------------------------------------------------------
  Evaluating new KS density using the density matrix
  Evaluating density matrix
  Time summed over all CPUs for getting density from density matrix: real work        0.336 s, elapsed        0.342 s
  Integration grid: deviation in total charge (<rho> - N_e) =   1.776357E-14
  Pulay mixing of updated and previous charge densities.
  Renormalizing the density to the exact electron count on the 3D integration grid.
  | Formal number of electrons (from input files) :      28.0000000000
  | Integrated number of electrons on 3D grid     :      28.0001400509
  | Charge integration error                      :       0.0001400509
  | Normalization factor for density and gradient :       0.9999949982

  Evaluating partitioned Hartree potential by multipole expansion.
  | Original multipole sum: apparent total charge =  -0.173407E-14
  | Sum of charges compensated after spline to logarithmic grids =  -0.497661E-04
  | Analytical far-field extrapolation by fixed multipoles:
  | Hartree multipole sum: apparent total charge =   0.000000E+00
  Summing up the Hartree potential.
  Time summed over all CPUs for potential: real work        0.644 s, elapsed        0.659 s
  | RMS charge density error from multipole expansion :   0.122197E-01
  | Average real-space part of the electrostatic potential :      0.24684327 eV

  Integrating Hamiltonian matrix: batch-based integration.
  Time summed over all CPUs for integration: real work        0.379 s, elapsed        0.403 s

  Updating Kohn-Sham eigenvalues and eigenvectors using ELSI and the (modified) LAPACK eigensolver.
  Starting LAPACK eigensolver
  Finished Cholesky decomposition
  | Time :     0.000 s
  Finished transformation to standard eigenproblem
  | Time :     0.000 s
  Finished solving standard eigenproblem
  | Time :     0.000 s
  Finished back-transformation of eigenvectors
  | Time :     0.000 s

  Obtaining occupation numbers and chemical potential using ELSI.
  | Chemical potential (Fermi level):    -5.24354528 eV
  What follows are estimated values for band gap, HOMO, LUMO, etc.
  | They are estimated on a discrete k-point grid and not necessarily exact.
  | For converged numbers, create a DOS and/or band structure plot on a denser k-grid.

  Highest occupied state (VBM) at     -5.55095960 eV (relative to internal zero)
  | Occupation number:      1.99998623
  | K-point:      23 at    0.500000    0.000000    0.000000 (in units of recip. lattice)

  Lowest unoccupied state (CBM) at    -5.23392246 eV (relative to internal zero)
  | Occupation number:      0.89175234
  | K-point:       2 at    0.000000    0.000000    0.250000 (in units of recip. lattice)

  ESTIMATED overall HOMO-LUMO gap:      0.31703714 eV between HOMO at k-point 23 and LUMO at k-point 2
  | This appears to be an indirect band gap.
  | Smallest direct gap :      0.54606844 eV for k_point 25 at    0.000000    0.000000    0.250000 (in units of recip. lattice)
  However, this system has fractional occupation numbers. Since we use a finite k-point grid,
  this material is metallic within the approximate finite broadening function (occupation_type)
  applied to determine the occupation numbers.

  Total energy components:
  | Sum of eigenvalues            :        -326.41010875 Ha       -8882.07097375 eV
  | XC energy correction          :         -39.60065457 Ha       -1077.58863801 eV
  | XC potential correction       :          52.31754918 Ha        1423.63294673 eV
  | Free-atom electrostatic energy:        -262.56104676 Ha       -7144.64959815 eV
  | Hartree energy correction     :          -0.53160841 Ha         -14.46580098 eV
  | Entropy correction            :          -0.00014905 Ha          -0.00405579 eV
  | ---------------------------
  | Total energy                  :        -576.78586932 Ha      -15695.14206415 eV
  | Total energy, T -> 0          :        -576.78601836 Ha      -15695.14611994 eV  <-- do not rely on this value for anything but (periodic) metals
  | Electronic free energy        :        -576.78616741 Ha      -15695.15017573 eV

  Derived energy quantities:
  | Kinetic energy                :         575.57071831 Ha       15662.07612289 eV
  | Electrostatic energy          :       -1112.75593306 Ha      -30279.62954904 eV
  | Energy correction for multipole
  | error in Hartree potential    :           0.01635258 Ha           0.44497638 eV
  | Sum of eigenvalues per atom                           :       -4441.03548687 eV
  | Total energy (T->0) per atom                          :       -7847.57305997 eV  <-- do not rely on this value for anything but (periodic) metals
  | Electronic free energy per atom                       :       -7847.57508787 eV

  Self-consistency convergence accuracy:
  | Change of charge density      :  0.2969E-02
  | Change of sum of eigenvalues  : -0.8306E+00 eV
  | Change of total energy        :  0.1312E-02 eV

  End self-consistency iteration #     5       :  max(cpu_time)    wall_clock(cpu1)
  | Time for this iteration                    :        0.197 s           0.196 s
  | Charge density update                      :        0.044 s           0.044 s
  | Density mixing & preconditioning           :        0.009 s           0.009 s
  | Hartree multipole update                   :        0.001 s           0.001 s
  | Hartree multipole summation                :        0.085 s           0.085 s
  | Integration                                :        0.052 s           0.052 s
  | Solution of K.-S. eqns.                    :        0.005 s           0.005 s
  | Total energy evaluation                    :        0.000 s           0.000 s

  Partial memory accounting:
  | Current value for overall tracked memory usage:
  |   Minimum:        0.786 MB (on task 0)
  |   Maximum:        0.797 MB (on task 1)
  |   Average:        0.792 MB
  | Peak value for overall tracked memory usage:
  |   Minimum:        3.726 MB (on task 0 after allocating wave)
  |   Maximum:        3.835 MB (on task 4 after allocating wave)
  |   Average:        3.754 MB
  | Largest tracked array allocation so far:
  |   Minimum:        1.628 MB (hamiltonian_shell on task 0)
  |   Maximum:        1.700 MB (hamiltonian_shell on task 4)
  |   Average:        1.644 MB
  Note:  These values currently only include a subset of arrays which are explicitly tracked.
  The "true" memory usage will be greater.
------------------------------------------------------------

------------------------------------------------------------
          Begin self-consistency iteration #    6

  Date     :  20190817, Time     :  154540.075
------------------------------------------------------------
  Evaluating new KS density using the density matrix
  Evaluating density matrix
  Time summed over all CPUs for getting density from density matrix: real work        0.338 s, elapsed        0.347 s
  Integration grid: deviation in total charge (<rho> - N_e) =   4.973799E-14
  Pulay mixing of updated and previous charge densities.
  Renormalizing the density to the exact electron count on the 3D integration grid.
  | Formal number of electrons (from input files) :      28.0000000000
  | Integrated number of electrons on 3D grid     :      28.0002465285
  | Charge integration error                      :       0.0002465285
  | Normalization factor for density and gradient :       0.9999911955

  Evaluating partitioned Hartree potential by multipole expansion.
  | Original multipole sum: apparent total charge =  -0.522864E-14
  | Sum of charges compensated after spline to logarithmic grids =  -0.498062E-04
  | Analytical far-field extrapolation by fixed multipoles:
  | Hartree multipole sum: apparent total charge =   0.000000E+00
  Summing up the Hartree potential.
  Time summed over all CPUs for potential: real work        0.649 s, elapsed        0.661 s
  | RMS charge density error from multipole expansion :   0.122394E-01
  | Average real-space part of the electrostatic potential :      0.24774482 eV

  Integrating Hamiltonian matrix: batch-based integration.
  Time summed over all CPUs for integration: real work        0.370 s, elapsed        0.379 s

  Updating Kohn-Sham eigenvalues and eigenvectors using ELSI and the (modified) LAPACK eigensolver.
  Starting LAPACK eigensolver
  Finished Cholesky decomposition
  | Time :     0.000 s
  Finished transformation to standard eigenproblem
  | Time :     0.001 s
  Finished solving standard eigenproblem
  | Time :     0.000 s
  Finished back-transformation of eigenvectors
  | Time :     0.000 s

  Obtaining occupation numbers and chemical potential using ELSI.
  | Chemical potential (Fermi level):    -5.24437795 eV
  What follows are estimated values for band gap, HOMO, LUMO, etc.
  | They are estimated on a discrete k-point grid and not necessarily exact.
  | For converged numbers, create a DOS and/or band structure plot on a denser k-grid.

  Highest occupied state (VBM) at     -5.55300418 eV (relative to internal zero)
  | Occupation number:      1.99998727
  | K-point:      23 at    0.500000    0.000000    0.000000 (in units of recip. lattice)

  Lowest unoccupied state (CBM) at    -5.23519024 eV (relative to internal zero)
  | Occupation number:      0.89661875
  | K-point:       2 at    0.000000    0.000000    0.250000 (in units of recip. lattice)

  ESTIMATED overall HOMO-LUMO gap:      0.31781394 eV between HOMO at k-point 23 and LUMO at k-point 2
  | This appears to be an indirect band gap.
  | Smallest direct gap :      0.54462875 eV for k_point 25 at    0.000000    0.000000    0.250000 (in units of recip. lattice)
  However, this system has fractional occupation numbers. Since we use a finite k-point grid,
  this material is metallic within the approximate finite broadening function (occupation_type)
  applied to determine the occupation numbers.

  Total energy components:
  | Sum of eigenvalues            :        -326.40698814 Ha       -8881.98605776 eV
  | XC energy correction          :         -39.60112607 Ha       -1077.60146808 eV
  | XC potential correction       :          52.31817490 Ha        1423.64997349 eV
  | Free-atom electrostatic energy:        -262.56104676 Ha       -7144.64959815 eV
  | Hartree energy correction     :          -0.53488263 Ha         -14.55489680 eV
  | Entropy correction            :          -0.00014857 Ha          -0.00404285 eV
  | ---------------------------
  | Total energy                  :        -576.78586870 Ha      -15695.14204730 eV
  | Total energy, T -> 0          :        -576.78601727 Ha      -15695.14609015 eV  <-- do not rely on this value for anything but (periodic) metals
  | Electronic free energy        :        -576.78616584 Ha      -15695.15013299 eV

  Derived energy quantities:
  | Kinetic energy                :         575.57971670 Ha       15662.32098156 eV
  | Electrostatic energy          :       -1112.76445933 Ha      -30279.86156078 eV
  | Energy correction for multipole
  | error in Hartree potential    :           0.01641174 Ha           0.44658610 eV
  | Sum of eigenvalues per atom                           :       -4440.99302888 eV
  | Total energy (T->0) per atom                          :       -7847.57304507 eV  <-- do not rely on this value for anything but (periodic) metals
  | Electronic free energy per atom                       :       -7847.57506650 eV

  Self-consistency convergence accuracy:
  | Change of charge density      :  0.7843E-03
  | Change of sum of eigenvalues  :  0.8492E-01 eV
  | Change of total energy        :  0.1685E-04 eV

  End self-consistency iteration #     6       :  max(cpu_time)    wall_clock(cpu1)
  | Time for this iteration                    :        0.194 s           0.194 s
  | Charge density update                      :        0.045 s           0.045 s
  | Density mixing & preconditioning           :        0.010 s           0.009 s
  | Hartree multipole update                   :        0.001 s           0.001 s
  | Hartree multipole summation                :        0.085 s           0.085 s
  | Integration                                :        0.048 s           0.048 s
  | Solution of K.-S. eqns.                    :        0.005 s           0.005 s
  | Total energy evaluation                    :        0.000 s           0.000 s

  Partial memory accounting:
  | Current value for overall tracked memory usage:
  |   Minimum:        0.786 MB (on task 0)
  |   Maximum:        0.797 MB (on task 1)
  |   Average:        0.792 MB
  | Peak value for overall tracked memory usage:
  |   Minimum:        3.726 MB (on task 0 after allocating wave)
  |   Maximum:        3.835 MB (on task 4 after allocating wave)
  |   Average:        3.754 MB
  | Largest tracked array allocation so far:
  |   Minimum:        1.628 MB (hamiltonian_shell on task 0)
  |   Maximum:        1.700 MB (hamiltonian_shell on task 4)
  |   Average:        1.644 MB
  Note:  These values currently only include a subset of arrays which are explicitly tracked.
  The "true" memory usage will be greater.
[...]
  | Time :     0.000 s

  Obtaining occupation numbers and chemical potential using ELSI.
  | Chemical potential (Fermi level):    -5.33270477 eV
  What follows are estimated values for band gap, HOMO, LUMO, etc.
  | They are estimated on a discrete k-point grid and not necessarily exact.
  | For converged numbers, create a DOS and/or band structure plot on a denser k-grid.

  Highest occupied state (VBM) at     -5.39010520 eV (relative to internal zero)
  | Occupation number:      1.58307332
  | K-point:       4 at    0.000000    0.250000    0.000000 (in units of recip. lattice)

  Lowest unoccupied state (CBM) at    -5.29681011 eV (relative to internal zero)
  | Occupation number:      0.61171486
  | K-point:       2 at    0.000000    0.000000    0.250000 (in units of recip. lattice)

  ESTIMATED overall HOMO-LUMO gap:      0.09329509 eV between HOMO at k-point 4 and LUMO at k-point 2
  | This appears to be an indirect band gap.
  | Smallest direct gap :      0.46128908 eV for k_point 25 at    0.000000    0.000000    0.250000 (in units of recip. lattice)
  However, this system has fractional occupation numbers. Since we use a finite k-point grid,
  this material is metallic within the approximate finite broadening function (occupation_type)
  applied to determine the occupation numbers.

  Total energy components:
  | Sum of eigenvalues            :        -326.35928147 Ha       -8880.68789335 eV
  | XC energy correction          :         -39.59449526 Ha       -1077.42103447 eV
  | XC potential correction       :          52.30944235 Ha        1423.41234886 eV
  | Free-atom electrostatic energy:        -262.61407142 Ha       -7146.09247261 eV
  | Hartree energy correction     :          -0.53374540 Ha         -14.52395123 eV
  | Entropy correction            :          -0.00007209 Ha          -0.00196175 eV
  | ---------------------------
  | Total energy                  :        -576.79215120 Ha      -15695.31300280 eV
  | Total energy, T -> 0          :        -576.79222329 Ha      -15695.31496455 eV  <-- do not rely on this value for anything but (periodic) metals
  | Electronic free energy        :        -576.79229538 Ha      -15695.31692630 eV

  Derived energy quantities:
  | Kinetic energy                :         575.53092538 Ha       15660.99330205 eV
  | Electrostatic energy          :       -1112.72858132 Ha      -30278.88527039 eV
  | Energy correction for multipole
  | error in Hartree potential    :           0.01637766 Ha           0.44565890 eV
  | Sum of eigenvalues per atom                           :       -4440.34394668 eV
  | Total energy (T->0) per atom                          :       -7847.65748228 eV  <-- do not rely on this value for anything but (periodic) metals
  | Electronic free energy per atom                       :       -7847.65846315 eV

  atomic forces [eV/Ang]:
  -----------------------
  atom #    1
   Hellmann-Feynman              :  0.955962E+00  0.681663E+00  0.817402E+00
   Ionic forces                  :  0.000000E+00  0.000000E+00  0.000000E+00
   Multipole                     :  0.133985E+00  0.661035E-02  0.302524E-02
   Pulay                         :  0.111978E+01  0.180050E+00 -0.158605E-01
   ----------------------------------------------------------------
   Total forces(   1)            :  0.220972E+01  0.868323E+00  0.804567E+00
  atom #    2
   Hellmann-Feynman              : -0.955962E+00 -0.681663E+00 -0.817402E+00
   Ionic forces                  :  0.000000E+00  0.000000E+00  0.000000E+00
   Multipole                     : -0.133985E+00 -0.661035E-02 -0.302524E-02
   Pulay                         : -0.111978E+01 -0.180050E+00  0.158605E-01
   ----------------------------------------------------------------
   Total forces(   2)            : -0.220972E+01 -0.868323E+00 -0.804567E+00


  Self-consistency convergence accuracy:
  | Change of charge density      :  0.7126E-05
  | Change of sum of eigenvalues  :  0.2916E-03 eV
  | Change of total energy        : -0.4217E-07 eV
  | Change of forces              :  0.1528E+01 eV/A

  Writing Kohn-Sham eigenvalues.
  K-point:       1 at    0.000000    0.000000    0.000000 (in units of recip. lattice)

  State    Occupation    Eigenvalue [Ha]    Eigenvalue [eV]
      1       2.00000         -65.170108        -1773.36887
      2       2.00000         -65.170108        -1773.36887
      3       2.00000          -5.074718         -138.09011
      4       2.00000          -5.074262         -138.07771
      5       2.00000          -3.513943          -95.61925
      6       2.00000          -3.513886          -95.61770
      7       2.00000          -3.513512          -95.60751
      8       2.00000          -3.513325          -95.60243
      9       2.00000          -3.512320          -95.57508
     10       2.00000          -3.511943          -95.56484
     11       2.00000          -0.658931          -17.93043
     12       2.00000          -0.256561           -6.98139
     13       2.00000          -0.240106           -6.53363
     14       0.00000          -0.158550           -4.31436
     15       0.00000          -0.133937           -3.64461
     16       0.00000          -0.118916           -3.23588
     17       0.00000          -0.102005           -2.77571
     18       0.00000          -0.093308           -2.53903
     19       0.00000           0.079414            2.16096
     20       0.00000           0.082237            2.23779

  What follows are estimated values for band gap, HOMO, LUMO, etc.
  | They are estimated on a discrete k-point grid and not necessarily exact.
  | For converged numbers, create a DOS and/or band structure plot on a denser k-grid.

  Highest occupied state (VBM) at     -5.39010520 eV (relative to internal zero)
  | Occupation number:      1.58307332
  | K-point:       4 at    0.000000    0.250000    0.000000 (in units of recip. lattice)

  Lowest unoccupied state (CBM) at    -5.29681011 eV (relative to internal zero)
  | Occupation number:      0.61171486
  | K-point:       2 at    0.000000    0.000000    0.250000 (in units of recip. lattice)

  ESTIMATED overall HOMO-LUMO gap:      0.09329509 eV between HOMO at k-point 4 and LUMO at k-point 2
  | This appears to be an indirect band gap.
  | Smallest direct gap :      0.46128908 eV for k_point 25 at    0.000000    0.000000    0.250000 (in units of recip. lattice)
  However, this system has fractional occupation numbers. Since we use a finite k-point grid,
  this material is metallic within the approximate finite broadening function (occupation_type)
  applied to determine the occupation numbers.

  Self-consistency cycle converged.

  End self-consistency iteration #     3       :  max(cpu_time)    wall_clock(cpu1)
  | Time for this iteration                    :        0.759 s           0.759 s
  | Charge density & force component update    :        0.423 s           0.423 s
  | Density mixing                             :        0.000 s           0.000 s
  | Hartree multipole update                   :        0.001 s           0.001 s
  | Hartree multipole summation                :        0.284 s           0.284 s
  | Integration                                :        0.047 s           0.047 s
  | Solution of K.-S. eqns.                    :        0.004 s           0.004 s
  | Total energy evaluation                    :        0.000 s           0.000 s

  Partial memory accounting:
  | Current value for overall tracked memory usage:
  |   Minimum:        0.838 MB (on task 0)
  |   Maximum:        0.860 MB (on task 1)
  |   Average:        0.849 MB
  | Peak value for overall tracked memory usage:
  |   Minimum:        8.340 MB (on task 2 after allocating d_wave)
  |   Maximum:        8.765 MB (on task 7 after allocating d_wave)
  |   Average:        8.535 MB
  | Largest tracked array allocation so far:
  |   Minimum:        1.685 MB (density_matrix_con on task 6)
  |   Maximum:        1.809 MB (density_matrix_con on task 4)
  |   Average:        1.763 MB
  Note:  These values currently only include a subset of arrays which are explicitly tracked.
  The "true" memory usage will be greater.
------------------------------------------------------------
  Removing unitary transformations (pure translations, rotations) from forces on atoms.
  Atomic forces before filtering:
  | Net force on center of mass :  -0.284317E-08 -0.119449E-08  0.134966E-08 eV/A
  Atomic forces after filtering:
  | Net force on center of mass :   0.000000E+00  0.868323E+00  0.804567E+00 eV/A

  Energy and forces in a compact form:
  | Total energy uncorrected      :         -0.156953130028027E+05 eV
  | Total energy corrected        :         -0.156953149645501E+05 eV  <-- do not rely on this value for anything but (periodic) metals
  | Electronic free energy        :         -0.156953169262975E+05 eV
  Total atomic forces (unitary forces were cleaned, then relaxation constraints were applied) [eV/Ang]:
  |    1          0.000000000000000E+00          0.868322740280434E+00          0.804566789589970E+00
  |    2          0.000000000000000E+00          0.000000000000000E+00          0.000000000000000E+00

  ------------------------------------ 
  Start decomposition of the XC Energy 
  ------------------------------------ 
  X and C from original XC functional choice 
  Hartree-Fock Energy :          0.000000000 Ha              0.000000000 eV
  X Energy            :        -37.450053529 Ha          -1019.067806127 eV
  C Energy            :         -2.144441726 Ha            -58.353228340 eV
  Total XC Energy     :        -39.594495255 Ha          -1077.421034467 eV
  ------------------------------------ 
  LDA X and C from self-consistent density 
  X Energy LDA        :        -37.450053529 Ha          -1019.067806127 eV
  C Energy LDA        :         -2.144441726 Ha            -58.353228340 eV
  ------------------------------------ 
  End decomposition of the XC Energy 
  ------------------------------------ 

------------------------------------------------------------
  Relaxation / MD: End force evaluation.       :  max(cpu_time)    wall_clock(cpu1)
  | Time for this force evaluation             :        1.307 s           1.308 s

------------------------------------------------------------
  Geometry optimization: Attempting to predict improved coordinates.

  +-------------------------------------------------------------------+
  | Generalized derivatives on lattice vectors [eV/A]                 |
  +-------------------------------------------------------------------+
  |lattice_vector      -0.05758262      -0.37391164       0.76093912  |
  |lattice_vector      -0.02627927       0.73648747      -0.36423531  |
  |lattice_vector       0.42088573       0.01649813      -0.00579718  |
  +-------------------------------------------------------------------+
  | Forces on lattice vectors cleaned from atomic contributions [eV/A]|
  +-------------------------------------------------------------------+
  |lattice_vector       0.05758262       0.37380010      -0.76104247  |
  |lattice_vector       0.02627927      -0.73660527       0.36412615  |
  |lattice_vector      -0.42088573      -0.03877146      -0.01484075  |
  +-------------------------------------------------------------------+
  Removing unitary transformations (pure translations, rotations) from forces on atoms.
  Atomic forces before filtering:
  | Net force on center of mass :   0.000000E+00  0.868323E+00  0.804567E+00 eV/A
  Atomic forces after filtering:
  | Net force on center of mass :   0.000000E+00  0.434161E+00  0.402283E+00 eV/A
  Net remaining forces (excluding translations, rotations) in present geometry:
  || Forces on atoms   || =   0.434161E+00 eV/A.
  || Forces on lattice || =   0.420886E+00 eV/A^3.
  Maximum force component is  0.434161E+00 eV/A.
  Present geometry is not yet converged.

 * Maximum number of relaxation steps exceeded.
 * Aborting optimization.
------------------------------------------------------------
  Final atomic structure:
                         x [A]             y [A]             z [A]
  lattice_vector         2.70000000        2.70000000        0.00000000
  lattice_vector         2.70767582        0.00000000        2.70767294
  lattice_vector        -0.02784137        2.70767469        2.70767453

            atom        -0.00000000        0.06980132        0.06982186  Si
            atom         1.61395033        1.62230241        1.62460424  Si

  Fractional coordinates:
                         L1                L2                L3
       atom_frac         0.00012845        0.00013567        0.02565098  Si
       atom_frac         0.30000000        0.30000000        0.30000000  Si
------------------------------------------------------------
  |------------------------------------------------------
  | Final ELSI Output
  |------------------------------------------------------
  |
  | Physical Properties
  |   Number of electrons       :        0.28000000E+02
  |   Number of states          :                    20
  |
  | Matrix Properties
  |   Matrix format             :           BLACS_DENSE
  |   Number of basis functions :                    36
  |
  | Computational Details
  |   Parallel mode             :           SINGLE_PROC
  |   Solver requested          :                LAPACK
  |   Number of ELSI calls      :                   476
  |
  |------------------------------------------------------
  | ELSI Project (c)  elsi-interchange.org
  |------------------------------------------------------

------------------------------------------------------------------------------
  Final output of selected total energy values:

  The following output summarizes some interesting total energy values
  at the end of a run (AFTER all relaxation, molecular dynamics, etc.).

  | Total energy of the DFT / Hartree-Fock s.c.f. calculation      :         -15695.313002803 eV
  | Final zero-broadening corrected energy (caution - metals only) :         -15695.314964550 eV
  | For reference only, the value of 1 Hartree used in FHI-aims is :             27.211384500 eV
  | For reference only, the overall average (free atom contribution
  | + realspace contribution) of the electrostatic potential after
  | s.c.f. convergence is                                          :            -12.958944074 eV

  Before relying on these values, please be sure to understand exactly which
  total energy value is referred to by a given number. Different objects may
  all carry the same name 'total energy'. Definitions:

  Total energy of the DFT / Hartree-Fock s.c.f. calculation:
  | Note that this energy does not include ANY quantities calculated after the
  | s.c.f. cycle, in particular not ANY RPA, MP2, etc. many-body perturbation terms.

  Final zero-broadening corrected energy:
  | For metallic systems only, a broadening of the occupation numbers at the Fermi
  | level can be extrapolated back to zero broadening by an electron-gas inspired
  | formula. For all systems that are not real metals, this value can be
  | meaningless and should be avoided.

------------------------------------------------------------------------------
  Methods described in the following list of references were used in this FHI-aims run.
  If you publish the results, please make sure to cite these reference if they apply.
  FHI-aims is an academic code, and for our developers (often, Ph.D. students
  and postdocs), scientific credit in the community is essential.
  Thank you for helping us!

  For any use of FHI-aims, please cite:

    Volker Blum, Ralf Gehrke, Felix Hanke, Paula Havu, Ville Havu,
    Xinguo Ren, Karsten Reuter, and Matthias Scheffler
    'Ab initio molecular simulations with numeric atom-centered orbitals'
    Computer Physics Communications 180, 2175-2196 (2009)
    http://dx.doi.org/10.1016/j.cpc.2009.06.022


  The provided symmetry information was generated with SPGlib:

    Atsushi Togo, Yusuke Seto, Dimitar Pashov
    SPGlib 1.7.3 obtained from http://spglib.sourceforge.net
    Copyright (C) 2008 Atsushi Togo


  The ELSI infrastructure was used in your run to solve the Kohn-Sham electronic structure.
  Please check out http://elsi-interchange.org to learn more.
  If scalability is important for your project, please acknowledge ELSI by citing:

    V. W-z. Yu, F. Corsetti, A. Garcia, W. P. Huhn, M. Jacquelin, W. Jia,
    B. Lange, L. Lin, J. Lu, W. Mi, A. Seifitokaldani, A. Vazquez-Mayagoitia,
    C. Yang, H. Yang, and V. Blum
    'ELSI: A unified software interface for Kohn-Sham electronic structure solvers'
    Computer Physics Communications 222, 267-285 (2018).
    http://dx.doi.org/10.1016/j.cpc.2017.09.007


  For the real-space grid partitioning and parallelization used in this calculation, please cite:

    Ville Havu, Volker Blum, Paula Havu, and Matthias Scheffler,
    'Efficient O(N) integration for all-electron electronic structure calculation'
    'using numerically tabulated basis functions'
    Journal of Computational Physics 228, 8367-8379 (2009).
    http://dx.doi.org/10.1016/j.jcp.2009.08.008

  Of course, there are many other important community references, e.g., those cited in the
  above references. Our list is limited to references that describe implementations in the
  FHI-aims code. The reason is purely practical (length of this list) - please credit others as well.

------------------------------------------------------------
          Leaving FHI-aims.
          Date     :  20190817, Time     :  154607.723

          Computational steps:
          | Number of self-consistency cycles          :          118
          | Number of SCF (re)initializations          :           28
          | Number of relaxation steps                 :            1

          Detailed time accounting                     :  max(cpu_time)    wall_clock(cpu1)
          | Total time                                 :       29.017 s          29.031 s
          | Preparation time                           :        0.151 s           0.151 s
          | Boundary condition initalization           :        1.455 s           1.433 s
          | Grid partitioning                          :        0.466 s           0.468 s
          | Preloading free-atom quantities on grid    :        1.064 s           1.064 s
          | Free-atom superposition energy             :        0.159 s           0.157 s
          | Total time for integrations                :        6.786 s           6.784 s
          | Total time for solution of K.-S. equations :        0.558 s           0.570 s
          | Total time for EV reorthonormalization     :        0.019 s           0.016 s
          | Total time for density & force components  :        5.919 s           5.917 s
          | Total time for mixing & preconditioning    :        0.857 s           0.859 s
          | Total time for Hartree multipole update    :        0.111 s           0.103 s
          | Total time for Hartree multipole sum       :       10.556 s          10.563 s
          | Total time for total energy evaluation     :        0.019 s           0.021 s

          Partial memory accounting:
          | Residual value for overall tracked memory usage across tasks:     0.000000 MB (should be 0.000000 MB)
          | Peak values for overall tracked memory usage:
          |   Minimum:        8.340 MB (on task 2 after allocating d_wave)
          |   Maximum:        8.765 MB (on task 7 after allocating d_wave)
          |   Average:        8.535 MB
          | Largest tracked array allocation:
          |   Minimum:        1.685 MB (density_matrix_con on task 6)
          |   Maximum:        1.809 MB (density_matrix_con on task 4)
          |   Average:        1.763 MB
          Note:  These values currently only include a subset of arrays which are explicitly tracked.
          The "true" memory usage will be greater.

          Have a nice day.
------------------------------------------------------------
