  MPI-parallelism will be employed.
------------------------------------------------------------
          Invoking FHI-aims ...
          Version 180101-
          Git rev. (modified): fa29f3a Merge branch master of fhiaims.rzberlin.mp[...]
          Compiled on 2018/01/19 at 14:47:46 on host theobook132.

          When using FHI-aims, please cite the following reference:

          Volker Blum, Ralf Gehrke, Felix Hanke, Paula Havu,
          Ville Havu, Xinguo Ren, Karsten Reuter, and Matthias Scheffler,
          'Ab Initio Molecular Simulations with Numeric Atom-Centered Orbitals',
          Computer Physics Communications 180, 2175-2196 (2009)

          For any questions about FHI-aims, please visit the aimsclub website
          with its forums and wiki. Contributions to both the forums and the
          wiki are warmly encouraged - they are for you, and everyone is welcome there.

------------------------------------------------------------



  Date     :  20180215, Time     :  214221.632
  Time zero on CPU 1             :   0.800000000000000E-01  s.
  Internal wall clock time zero  :           287962941.632  s.

  FHI-aims created a unique identifier for this run for later identification
  aims_uuid : DB196B6F-441B-4949-A358-1F307FF28273

  Using        8 parallel tasks.
  Task        0 on host theobook132 reporting.
  Task        1 on host theobook132 reporting.
  Task        2 on host theobook132 reporting.
  Task        3 on host theobook132 reporting.
  Task        4 on host theobook132 reporting.
  Task        5 on host theobook132 reporting.
  Task        6 on host theobook132 reporting.
  Task        7 on host theobook132 reporting.

  Performing system and environment tests:
  *** Environment variable OMP_NUM_THREADS is not set
  *** For performance reasons you might want to set it to 1
  | Stacksize not measured: no C compiler
  | Checking for scalapack...
  | No scalapack compiled in.

  Obtaining array dimensions for all initial allocations:
  
  -----------------------------------------------------------------------
  Parsing control.in (first pass over file, find array dimensions only).
  The contents of control.in will be repeated verbatim below
  unless switched off by setting 'verbatim_writeout .false.' .
  in the first line of control.in .
  -----------------------------------------------------------------------
  
  ################################################################################
  #
  #		Control.in generated by mkcontrol
  #
  ################################################################################
  xc			pbe
  vdw_correction_hirshfeld
  relativistic		none
  sc_accuracy_rho		1E-5
  sc_accuracy_eev		1E-3
  sc_accuracy_etot	1E-6
  sc_iter_limit		1000	
  
  compute_forces .true.
  final_forces_cleaned .true.
  
  ################################################################################
  #
  #  FHI-aims code project
  #  VB, Fritz-Haber Institut, 2009
  #
  #  Suggested "light" defaults for H atom (to be pasted into control.in file)
  #  Be sure to double-check any results obtained with these settings for post-processing,
  #  e.g., with the "tight" defaults and larger basis sets.
  #
  ################################################################################
    species        H
  #     global species definitions
      nucleus             1
      mass                1.00794
  #
      l_hartree           4
  #
      cut_pot             3.5  1.5  1.0
      basis_dep_cutoff    1e-4
  #
      radial_base         24 5.0
      radial_multiplier   1
      angular_grids       specified
        division   0.2421   50
        division   0.3822  110
        division   0.4799  194
        division   0.5341  302
  #      division   0.5626  434
  #      division   0.5922  590
  #      division   0.6542  770
  #      division   0.6868 1202
  #      outer_grid  770
        outer_grid  302
  ################################################################################
  #
  #  Definition of "minimal" basis
  #
  ################################################################################
  #     valence basis states
      valence      1  s   1.
  #     ion occupancy
      ion_occ      1  s   0.5
  ################################################################################
  #
  #  Suggested additional basis functions. For production calculations,
  #  uncomment them one after another (the most important basis functions are
  #  listed first).
  #
  #  Basis constructed for dimers: 0.5 A, 0.7 A, 1.0 A, 1.5 A, 2.5 A
  #
  ################################################################################
  #  "First tier" - improvements: -1014.90 meV to -62.69 meV
       hydro 2 s 2.1
       hydro 2 p 3.5
  #  "Second tier" - improvements: -12.89 meV to -1.83 meV
  #     hydro 1 s 0.85
  #     hydro 2 p 3.7
  #     hydro 2 s 1.2
  #     hydro 3 d 7
  #  "Third tier" - improvements: -0.25 meV to -0.12 meV
  #     hydro 4 f 11.2
  #     hydro 3 p 4.8
  #     hydro 4 d 9
  #     hydro 3 s 3.2
  
  ################################################################################
  #
  #  FHI-aims code project
  #  VB, Fritz-Haber Institut, 2009
  #
  #  Suggested "light" defaults for C atom (to be pasted into control.in file)
  #  Be sure to double-check any results obtained with these settings forpost-processing,
  #  e.g., with the "tight" defaults and larger basis sets.
  #
  ################################################################################
    species        C
  #     global species definitions
      nucleus             6
      mass                12.0107
  #
      l_hartree           4
  #
      cut_pot             3.5  1.5  1.0
      basis_dep_cutoff    1e-4
  #
      radial_base         34 5.0
      radial_multiplier   1
      angular_grids specified
        division   0.3326   50
        division   0.5710  110
        division   0.7727  194
        division   0.8772  302
  #      division   0.9334  434
  #      division   0.9625  590
  #      division   0.9924  770
  #      division   1.0230  974
  #      division   1.4589 1202
  #     outer_grid  974
       outer_grid 302
  ################################################################################
  #
  #  Definition of "minimal" basis
  #
  ################################################################################
  #     valence basis states
      valence      2  s   2.
      valence      2  p   2.
  #     ion occupancy
      ion_occ      2  s   1.
      ion_occ      2  p   1.
  ################################################################################
  #
  #  Suggested additional basis functions. For production calculations,
  #  uncomment them one after another (the most important basis functions are
  #  listed first).
  #
  #  Constructed for dimers: 1.0 A, 1.25 A, 1.5 A, 2.0 A, 3.0 A
  #
  ################################################################################
  #  "First tier" - improvements: -1214.57 meV to -155.61 meV
       hydro 2 p 1.7
       hydro 3 d 6
       hydro 2 s 4.9
  #  "Second tier" - improvements: -67.75 meV to -5.23 meV
  #     hydro 4 f 9.8
  #     hydro 3 p 5.2
  #     hydro 3 s 4.3
  #     hydro 5 g 14.4
  #     hydro 3 d 6.2
  #  "Third tier" - improvements: -2.43 meV to -0.60 meV
  #     hydro 2 p 5.6
  #     hydro 2 s 1.4
  #     hydro 3 d 4.9
  #     hydro 4 f 11.2
  #  "Fourth tier" - improvements: -0.39 meV to -0.18 meV
  #     hydro 2 p 2.1
  #     hydro 5 g 16.4
  #     hydro 4 d 13.2
  #     hydro 3 s 13.6
  #     hydro 4 f 17.6
  #  Further basis functions - improvements: -0.08 meV and below
  #     hydro 3 s 2
  #     hydro 3 p 6
  #     hydro 4 d 20
  
  -----------------------------------------------------------------------
  Completed first pass over input file control.in .
  -----------------------------------------------------------------------
  
  
  -----------------------------------------------------------------------
  Parsing geometry.in (first pass over file, find array dimensions only).
  The contents of geometry.in will be repeated verbatim below
  unless switched off by setting 'verbatim_writeout .false.' .
  in the first line of geometry.in .
  -----------------------------------------------------------------------
  
  #=======================================#
  # iterations/iteration0037/aims-chain-node-0.06851/geometry.in
  #=======================================#
  atom -1.9278700516022111 -0.3720854552745654 0.0001336904073768 C
  atom -0.5936567525212600 0.3107109482295878 -0.0044767063457017 C
  atom 0.5936567520566947 -0.3107109472689423 -0.0044767630764276 C
  atom 1.9278700517174499 0.3720854551941733 0.0001336053036884 C
  atom -1.8228025310556828 -1.4650739210455426 -0.0517138295506230 H
  atom -2.5467975370575950 -0.0477759038115293 -0.8518511191204491 H
  atom -2.4986112655796897 -0.1283051945773268 0.9111737989650484 H
  atom -0.6082043995883504 1.4083698208909992 -0.0032655539385153 H
  atom 0.6082043988447212 -1.4083698200239030 -0.0032656911161999 H
  atom 1.8228025283963205 1.4650739255385878 -0.0517138125994034 H
  atom 2.4986113259048883 0.1283051145756141 0.9111736546924551 H
  atom 2.5467974804846980 0.0477759775728434 -0.8518512736212507 H
  
  -----------------------------------------------------------------------
  Completed first pass over input file geometry.in .
  -----------------------------------------------------------------------
  

  Basic array size parameters:
  | Number of species                 :        2
  | Number of atoms                   :       12
  | Max. basis fn. angular momentum   :        2
  | Max. atomic/ionic basis occupied n:        2
  | Max. number of basis fn. types    :        2
  | Max. radial fns per species/type  :        3
  | Max. logarithmic grid size        :     1277
  | Max. radial integration grid size :       34
  | Max. angular integration grid size:      302
  | Max. angular grid division number :        8
  | Radial grid for Hartree potential :     1277
  | Number of spin channels           :        1

------------------------------------------------------------
          Reading file control.in.
------------------------------------------------------------
  XC: Using PBE gradient-corrected functionals.
  Non-relativistic treatment of kinetic energy.
  Convergence accuracy of self-consistent charge density:  0.1000E-04
  Convergence accuracy of sum of eigenvalues:  0.1000E-02
  Convergence accuracy of total energy:  0.1000E-05
  Maximum number of s.-c. iterations  :  1000
  Forces will be computed.
  Cleaning forces before final output.
 
  Reading configuration options for species H                   .
  | Found nuclear charge :   1.0000
  | Found atomic mass :    1.00794000000000      amu
  | Found l_max for Hartree potential  :   4
  | Found cutoff potl. onset [A], width [A], scale factor :    3.50000    1.50000    1.00000
  | Threshold for basis-dependent cutoff potential is   0.100000E-03
  | Found data for basic radial integration grid :    24 points, outermost radius =    5.000 A
  | Found multiplier for basic radial grid :   1
  | Found angular grid specification: user-specified.
  | Specified grid contains     5 separate shells.
  | Check grid settings after all constraints further below.
  | Found free-atom valence shell :  1 s   1.000
  | No ionic wave fns used. Skipping ion_occ.
  | Found hydrogenic basis function :  2 s   2.100
  | Found hydrogenic basis function :  2 p   3.500
  Species H                   : Missing cutoff potential type.
  Defaulting to exp(1/x)/(1-x)^2 type cutoff potential.
  Species H : No 'logarithmic' tag. Using default grid for free atom:
  | Default logarithmic grid data [bohr] : 0.1000E-03 0.1000E+03 0.1012E+01
  Species H : On-site basis accuracy parameter (for Gram-Schmidt orthonormalisation) not specified.
  Using default value basis_acc =  0.1000000E-03.
  Species H                   : Using default innermost maximum threshold i_radial=  2 for radial functions.
  Species H                   : Default cutoff onset for free atom density etc. : 0.35000000E+01 AA.
  Species H                   : Basic radial grid will be enhanced according to radial_multiplier =   1, to contain    24 grid points.
 
  Reading configuration options for species C                   .
  | Found nuclear charge :   6.0000
  | Found atomic mass :    12.0107000000000      amu
  | Found l_max for Hartree potential  :   4
  | Found cutoff potl. onset [A], width [A], scale factor :    3.50000    1.50000    1.00000
  | Threshold for basis-dependent cutoff potential is   0.100000E-03
  | Found data for basic radial integration grid :    34 points, outermost radius =    5.000 A
  | Found multiplier for basic radial grid :   1
  | Found angular grid specification: user-specified.
  | Specified grid contains     5 separate shells.
  | Check grid settings after all constraints further below.
  | Found free-atom valence shell :  2 s   2.000
  | Found free-atom valence shell :  2 p   2.000
  | No ionic wave fns used. Skipping ion_occ.
  | No ionic wave fns used. Skipping ion_occ.
  | Found hydrogenic basis function :  2 p   1.700
  | Found hydrogenic basis function :  3 d   6.000
  | Found hydrogenic basis function :  2 s   4.900
  Species C                   : Missing cutoff potential type.
  Defaulting to exp(1/x)/(1-x)^2 type cutoff potential.
  Species C : No 'logarithmic' tag. Using default grid for free atom:
  | Default logarithmic grid data [bohr] : 0.1000E-03 0.1000E+03 0.1012E+01
  Species C : On-site basis accuracy parameter (for Gram-Schmidt orthonormalisation) not specified.
  Using default value basis_acc =  0.1000000E-03.
  Species C                   : Using default innermost maximum threshold i_radial=  2 for radial functions.
  Species C                   : Default cutoff onset for free atom density etc. : 0.35000000E+01 AA.
  Species C                   : Basic radial grid will be enhanced according to radial_multiplier =   1, to contain    34 grid points.
 
  Finished reading input file 'control.in'. Consistency checks are next.
 
  MPI_IN_PLACE appears to work with this MPI implementation.
  | Keeping use_mpi_in_place .true. (see manual).
  Target number of points in a grid batch is not set. Defaulting to  100
  Method for grid partitioning is not set. Defaulting to parallel hash+maxmin partitioning.
  Batch size limit is not set. Defaulting to    200
  By default, will store active basis functions for each batch.
  If in need of memory, prune_basis_once .false. can be used to disable this option.
  communication_type for Hartree potential was not specified.
  Defaulting to calc_hartree .
  Defaulting to Pulay charge density mixer.
  Pulay mixer: Number of relevant iterations not set.
  Defaulting to    8 iterations.
  Pulay mixer: Number of initial linear mixing iterations not set.
  Defaulting to    0 iterations.
  Work space size for distributed Hartree potential not set.
  Defaulting to   0.200000E+03 MB.
  Mixing parameter for charge density mixing has not been set.
  Using default: charge_mix_param =     0.0500.
  The mixing parameter will be adjusted in iteration number     2 of the first full s.c.f. cycle only.
  Algorithm-dependent basis array size parameters:
  | n_max_pulay                         :        8
  Presetting        40 iterations before the initial mixing cycle
  is restarted anyway using the sc_init_iter criterion / keyword.
  Presetting a factor      1.000 between actual scf density residual
  and density convergence criterion sc_accuracy_rho below which sc_init_iter
  takes no effect.
  Geometry relaxation not requested: no relaxation will be performed.
  Force calculation: scf convergence accuracy of forces not set.
  Defaulting to 'sc_accuracy_forces not_checked'.
  Handling of forces: Unphysical translation and rotation will be removed from forces.
  No accuracy limit for integral partition fn. given. Defaulting to  0.1000E-14.
  No threshold value for u(r) in integrations given. Defaulting to  0.1000E-05.
  No occupation type (smearing scheme) given. Defaulting to Gaussian broadening, width =  0.1000E-01 eV.
  The width will be adjusted in iteration number     2 of the first full s.c.f. cycle only.
  S.C.F. convergence parameters will be adjusted in iteration number     2 of the first full s.c.f. cycle only.
  No accuracy for occupation numbers given. Defaulting to  0.1000E-12.
  No threshold value for occupation numbers given. Defaulting to  0.0000E+00.
  No accuracy for fermi level given. Defaulting to  0.1000E-19.
  Maximum # of iterations to find E_F not set. Defaulting to  200.
  Preferred method for the eigenvalue solver ('KS_method') not specified in 'control.in'.
  Calling BLACS routine to test compilation state
  The best choice would be 'elsi', but your version of FHI-aims is compiled without ScaLAPACK support.
  Defaulting to 'lapack_fast' instead (serial solution, time will not improve with more CPUs).
  Will not use alltoall communication since running on < 1024 CPUs.
  Threshold for basis singularities not set.
  Default threshold for basis singularities:  0.1000E-04
  partition_type (choice of integration weights) for integrals was not specified.
  | Using a version of the partition function of Stratmann and coworkers ('stratmann_smoother').
  | At each grid point, the set of atoms used to build the partition table is smoothly restricted to
  | only those atoms whose free-atom density would be non-zero at that grid point.
  Partitioning for Hartree potential was not defined. Using partition_type for integrals.
  | Adjusted default value of keyword multip_moments_threshold to:       0.10000000E-11
  | This value may affect high angular momentum components of the Hartree potential in periodic systems.
  Spin handling was not defined in control.in. Defaulting to unpolarized case.
  No q(lm)/r^(l+1) cutoff set for long-range Hartree potential.
  | Using default value of  0.100000E-09 .
  | Verify using the multipole_threshold keyword.
  Defaulting to new monopole extrapolation.
  Density update method: automatic selection selected.
------------------------------------------------------------


------------------------------------------------------------
          Reading geometry description geometry.in.
------------------------------------------------------------
  Input structure read successfully.
  The structure contains       12 atoms,  and a total of         32.000 electrons.

  Input geometry:
  | No unit cell requested.
  | Atomic structure:
  |       Atom                x [A]            y [A]            z [A]
  |    1: Species C            -1.92787005       -0.37208546        0.00013369
  |    2: Species C            -0.59365675        0.31071095       -0.00447671
  |    3: Species C             0.59365675       -0.31071095       -0.00447676
  |    4: Species C             1.92787005        0.37208546        0.00013361
  |    5: Species H            -1.82280253       -1.46507392       -0.05171383
  |    6: Species H            -2.54679754       -0.04777590       -0.85185112
  |    7: Species H            -2.49861127       -0.12830519        0.91117380
  |    8: Species H            -0.60820440        1.40836982       -0.00326555
  |    9: Species H             0.60820440       -1.40836982       -0.00326569
  |   10: Species H             1.82280253        1.46507393       -0.05171381
  |   11: Species H             2.49861133        0.12830511        0.91117365
  |   12: Species H             2.54679748        0.04777598       -0.85185127
  |

  | The smallest distance between any two atoms is         1.09775594 AA.
  |
  | The first atom of this pair is atom number                      2 .
  | The second atom of this pair is atom number                     8 .

  Number of empty states per atom not set in control.in - providing a guess from actual geometry.
  | Total number of empty states used during s.c.f. cycle:       24
  If you use a very high smearing, use empty_states (per atom!) in control.in to increase this value.

  Structure-dependent array size parameters: 
  | Maximum number of distinct radial functions  :        9
  | Maximum number of basis functions            :       96
  | Number of Kohn-Sham states (occupied + empty):       40
------------------------------------------------------------

------------------------------------------------------------
          Preparing all fixed parts of the calculation.
------------------------------------------------------------
  Determining machine precision:
    2.225073858507201E-308
  Setting up grids for atomic and cluster calculations.

  Creating wave function, potential, and density for free atoms.

  Species: H

  List of occupied orbitals and eigenvalues:
    n    l              occ      energy [Ha]    energy [eV]
    1    0           1.0000        -0.237589        -6.4651


  Species: C

  List of occupied orbitals and eigenvalues:
    n    l              occ      energy [Ha]    energy [eV]
    1    0           2.0000       -10.038835      -273.1706
    2    0           2.0000        -0.502696       -13.6791
    2    1           2.0000        -0.191971        -5.2238

  Creating fixed part of basis set: Ionic, confined, hydrogenic.
 
  H                    hydrogenic:
 
  List of hydrogenic basis orbitals: 
    n    l      effective z      eigenvalue [eV]  inner max. [A]     outer max. [A]     outer radius [A]   
    2    0         2.100000       -14.9728           0.193243           1.317208           4.583499
    2    1         3.500000       -41.6669           0.602369           0.602369           3.723403
 
 
  C                    hydrogenic:
 
  List of hydrogenic basis orbitals: 
    n    l      effective z      eigenvalue [eV]  inner max. [A]     outer max. [A]     outer radius [A]   
    2    1         1.700000        -9.7616           1.230570           1.230570           4.607917
    3    2         6.000000       -54.4224           0.792453           0.792453           3.883070
    2    0         4.900000       -81.6679           0.082559           0.562749           3.078220
 

  Adding cutoff potential to free-atom effective potential.
  Creating atomic-like basis functions for current effective potential.

  Species H                   :

  List of atomic basis orbitals and eigenvalues:
    n    l      energy [Ha]    energy [eV]    outer radius [A]
    1    0        -0.237589        -6.4651       4.527807


  Species C                   :

  List of atomic basis orbitals and eigenvalues:
    n    l      energy [Ha]    energy [eV]    outer radius [A]
    1    0       -10.038835      -273.1706       1.934409
    2    0        -0.502696       -13.6791       4.496620
    2    1        -0.191971        -5.2238       4.551928

  Assembling full basis from fixed parts.
  | Species H :   atomic orbital   1 s accepted.
  | Species H :    hydro orbital   2 s accepted.
  | Species H :    hydro orbital   2 p accepted.
  | Species C :   atomic orbital   1 s accepted.
  | Species C :    hydro orbital   2 s accepted.
  | Species C :   atomic orbital   2 s accepted.
  | Species C :   atomic orbital   2 p accepted.
  | Species C :    hydro orbital   2 p accepted.
  | Species C :    hydro orbital   3 d accepted.
 
  Basis size parameters after reduction:
  | Total number of radial functions:        9
  | Total number of basis functions :       96
 
  Per-task memory consumption for arrays in subroutine allocate_ext:
  |           2.209696MB.
  Testing on-site integration grid accuracy.
  |  Species  Function  <phi|h_atom|phi> (log., in eV)  <phi|h_atom|phi> (rad., in eV)
           1        1                 -6.4663192853                 -6.4651273558
           1        2                 13.7111246313                 13.7170609718
           1        3                 25.2673269279                 25.2674696378
           2        4               -273.1705927641               -273.1705631568
           2        5                -10.7109323383                -10.7107120029
           2        6                 17.4381822266                 17.4352413244
           2        7                 -5.2255326521                 -5.2270484734
           2        8                  8.6835629259                  8.6603288385
           2        9                 27.4952418996                 27.4953360207

  Preparing densities etc. for the partition functions (integrals / Hartree potential).

  Preparations completed.
  max(cpu_time)          :      0.128 s.
  Wall clock time (cpu1) :      0.129 s.
------------------------------------------------------------

------------------------------------------------------------
          Begin self-consistency loop: Initialization.

          Date     :  20180215, Time     :  214221.772
------------------------------------------------------------

  Initializing index lists of integration centers etc. from given atomic structure:
  | Number of centers in hartree potential         :        12
  | Number of centers in hartree multipole         :        12
  | Number of centers in electron density summation:        12
  | Number of centers in basis integrals           :        12
  | Number of centers in integrals                 :        12
  | Number of centers in hamiltonian               :        12
  Partitioning the integration grid into batches with parallel hashing+maxmin method.
  | Number of batches:      764
  | Maximal batch size:     190
  | Minimal batch size:      56
  | Average batch size:      79.770
  | Standard deviation of batch sizes:      23.955

  Integration load balanced across     8 MPI tasks.
  Work distribution over tasks is as follows:
  Task     0 has       7591 integration points.
  Task     1 has       7614 integration points.
  Task     2 has       7588 integration points.
  Task     3 has       7627 integration points.
  Task     4 has       7620 integration points.
  Task     5 has       7610 integration points.
  Task     6 has       7648 integration points.
  Task     7 has       7646 integration points.
  Initializing partition tables, free-atom densities, potentials, etc. across the integration grid (initialize_grid_storage).
  | initialize_grid_storage: Actual outermost partition radius vs. multipole_radius_free
  | (-- VB: in principle, multipole_radius_free should be larger, hence this output)
  | Species        1: Confinement radius =              4.999999999999999 AA, multipole_radius_free =              5.054417573612229 AA.
  | Species        1: outer_partition_radius set to              5.054417573612229 AA .
  | Species        2: Confinement radius =              4.999999999999999 AA, multipole_radius_free =              5.019602836301480 AA.
  | Species        2: outer_partition_radius set to              5.019602836301480 AA .
  | Original list of interatomic distances with          12 x         12 entries is created.
  | Net number of integration points:    60944
  | of which are non-zero points    :    52339
  Renormalizing the initial density to the exact electron count on the 3D integration grid.
  | Initial density: Formal number of electrons (from input files) :      32.0000000000
  | Integrated number of electrons on 3D grid     :      31.9998994767
  | Charge integration error                      :      -0.0001005233
  | Normalization factor for density and gradient :       1.0000031414
  Obtaining max. number of non-zero basis functions in each batch (get_n_compute_maxes).
  | Maximal number of non-zero basis functions:       96 in task     0
  | Maximal number of non-zero basis functions:       96 in task     1
  | Maximal number of non-zero basis functions:       96 in task     2
  | Maximal number of non-zero basis functions:       96 in task     3
  | Maximal number of non-zero basis functions:       96 in task     4
  | Maximal number of non-zero basis functions:       96 in task     5
  | Maximal number of non-zero basis functions:       96 in task     6
  | Maximal number of non-zero basis functions:       96 in task     7
  Selecting the method for density update.
  Loop over occupied states selected for charge density update.
  Allocating        0.031 MB for KS_eigenvector
  Integrating Hamiltonian matrix: batch-based integration.
  Time summed over all CPUs for integration: real work        1.106 s, elapsed        1.125 s
  Integrating overlap matrix.
  Time summed over all CPUs for integration: real work        0.413 s, elapsed        0.435 s

  Updating Kohn-Sham eigenvalues, eigenvectors, occupation numbers, and Fermi level.
  Solving generalized eigenproblem
  Updating Kohn-Sham eigenvalues and eigenfunctions.
  Transforming overlap matrix and checking for singularities.
  Overlap matrix is nonsingular:
  | Lowest eigenvalue:  0.322954E-02
  Solving real generalised eigenvalue problem by standard LAPACK (fast)

  Obtaining occupation numbers and chemical potential using ELSI.
  | Chemical potential (Fermi level):    -8.47415700eV
  Writing Kohn-Sham eigenvalues.

  State    Occupation    Eigenvalue [Ha]    Eigenvalue [eV]
      1       2.00000         -10.166686         -276.64961
      2       2.00000         -10.166686         -276.64961
      3       2.00000         -10.151768         -276.24367
      4       2.00000         -10.151112         -276.22580
      5       2.00000          -0.929323          -25.28817
      6       2.00000          -0.855944          -23.29143
      7       2.00000          -0.784383          -21.34415
      8       2.00000          -0.668464          -18.18982
      9       2.00000          -0.593118          -16.13957
     10       2.00000          -0.585362          -15.92851
     11       2.00000          -0.546377          -14.86768
     12       2.00000          -0.534348          -14.54035
     13       2.00000          -0.518140          -14.09930
     14       2.00000          -0.511256          -13.91197
     15       2.00000          -0.477589          -12.99586
     16       2.00000          -0.386192          -10.50882
     17       0.00000          -0.177227           -4.82258
     18       0.00000          -0.034273           -0.93261
     19       0.00000          -0.029994           -0.81619
     20       0.00000          -0.021755           -0.59198
     21       0.00000           0.019866            0.54059
     22       0.00000           0.020934            0.56965
     23       0.00000           0.026437            0.71938
     24       0.00000           0.029738            0.80920
     25       0.00000           0.031041            0.84467
     26       0.00000           0.031216            0.84944
     27       0.00000           0.134015            3.64673
     28       0.00000           0.187014            5.08891
     29       0.00000           0.188297            5.12383
     30       0.00000           0.208985            5.68678
     31       0.00000           0.223091            6.07061
     32       0.00000           0.228602            6.22057
     33       0.00000           0.239683            6.52212
     34       0.00000           0.301954            8.21659
     35       0.00000           0.352333            9.58747
     36       0.00000           0.368370           10.02385
     37       0.00000           0.399392           10.86800
     38       0.00000           0.417830           11.36973
     39       0.00000           0.506773           13.78998
     40       0.00000           0.523773           14.25258

  Highest occupied state (VBM) at    -10.50881959 eV
  | Occupation number:      2.00000000

  Lowest unoccupied state (CBM) at    -4.82258433 eV
  | Occupation number:      0.00000000

  Overall HOMO-LUMO gap:      5.68623526 eV.
  Calculating total energy contributions from superposition of free atom densities.

  Total energy components:
  | Sum of eigenvalues            :         -96.05349836 Ha       -2613.74867650 eV
  | XC energy correction          :         -23.65940236 Ha        -643.80509475 eV
  | XC potential correction       :          30.39247051 Ha         827.02120107 eV
  | Free-atom electrostatic energy:         -68.00868685 Ha       -1850.61052724 eV
  | Hartree energy correction     :           0.00000000 Ha           0.00000000 eV
  | vdW energy correction         :           0.00000000 Ha           0.00000000 eV
  | Entropy correction            :           0.00000000 Ha           0.00000000 eV
  | ---------------------------
  | Total energy                  :        -157.32911706 Ha       -4281.14309742 eV
  | Total energy, T -> 0          :        -157.32911706 Ha       -4281.14309742 eV  <-- do not rely on this value for anything but (periodic) metals
  | Electronic free energy        :        -157.32911706 Ha       -4281.14309742 eV

  Derived energy quantities:
  | Kinetic energy                :         154.19322456 Ha        4195.81112074 eV
  | Electrostatic energy          :        -287.86293926 Ha       -7833.14912340 eV
  | Energy correction for multipole
  | error in Hartree potential    :           0.00000000 Ha           0.00000000 eV
  | Sum of eigenvalues per atom                           :        -217.81238971 eV
  | Total energy (T->0) per atom                          :        -356.76192478 eV  <-- do not rely on this value for anything but (periodic) metals
  | Electronic free energy per atom                       :        -356.76192478 eV
  Initialize hartree_potential_storage
  Max. number of atoms included in rho_multipole:           12

  End scf initialization - timings             :  max(cpu_time)    wall_clock(cpu1)
  | Time for scf. initialization               :        0.416 s           0.414 s
  | Boundary condition initialization          :        0.004 s           0.001 s
  | Integration                                :        0.240 s           0.238 s
  | Solution of K.-S. eqns.                    :        0.012 s           0.011 s
  | Grid partitioning                          :        0.064 s           0.062 s
  | Preloading free-atom quantities on grid    :        0.004 s           0.003 s
  | Free-atom superposition energy             :        0.024 s           0.022 s
  | Total energy evaluation                    :        0.000 s           0.001 s

  Partial memory accounting:
  | Current value for overall tracked memory usage on task 0  :           0.179 MB
  | Peak value for overall tracked memory usage on task 0     :           0.619 MB after allocating wave
  | Largest tracked array allocation on task 0 so far         :           0.146 MB  when allocating H_times_psi
  Note:  These values currently only include a subset of arrays which are explicitly tracked.
  The "true" memory usage will be greater.
------------------------------------------------------------

------------------------------------------------------------
          Begin self-consistency iteration #    1

  Date     :  20180215, Time     :  214222.187
------------------------------------------------------------
  Evaluating new KS density.
  Integration grid: deviation in total charge (<rho> - N_e) =   0.000000E+00
  Pulay mixing of updated and previous charge densities.

  Evaluating partitioned Hartree potential by multipole expansion.
  | Analytical far-field extrapolation by fixed multipoles:
  | Hartree multipole sum: apparent total charge =  -0.131548E-03
  Summing up the Hartree potential.
  Time summed over all CPUs for potential: real work        1.097 s, elapsed        1.135 s
  | RMS charge density error from multipole expansion :   0.133676E-02

  Integrating Hamiltonian matrix: batch-based integration.
  Time summed over all CPUs for integration: real work        1.100 s, elapsed        1.138 s

  Updating Kohn-Sham eigenvalues, eigenvectors, occupation numbers, and Fermi level.
  Solving generalized eigenproblem
  Updating Kohn-Sham eigenvalues and eigenfunctions.
  Solving real generalised eigenvalue problem by standard LAPACK (fast)

  Obtaining occupation numbers and chemical potential using ELSI.
  | Chemical potential (Fermi level):    -8.08487076eV
  Writing Kohn-Sham eigenvalues.

  State    Occupation    Eigenvalue [Ha]    Eigenvalue [eV]
      1       2.00000         -10.132007         -275.70594
      2       2.00000         -10.132007         -275.70594
      3       2.00000         -10.122150         -275.43772
      4       2.00000         -10.121493         -275.41984
      5       2.00000          -0.908913          -24.73278
      6       2.00000          -0.836957          -22.77475
      7       2.00000          -0.765015          -20.81712
      8       2.00000          -0.652216          -17.74769
      9       2.00000          -0.574352          -15.62892
     10       2.00000          -0.567072          -15.43081
     11       2.00000          -0.529917          -14.41977
     12       2.00000          -0.518055          -14.09701
     13       2.00000          -0.499317          -13.58711
     14       2.00000          -0.494712          -13.46181
     15       2.00000          -0.461425          -12.55603
     16       2.00000          -0.368987          -10.04065
     17       0.00000          -0.160695           -4.37272
     18       0.00000          -0.022751           -0.61907
     19       0.00000          -0.021251           -0.57828
     20       0.00000          -0.013533           -0.36825
     21       0.00000           0.029821            0.81147
     22       0.00000           0.036237            0.98606
     23       0.00000           0.036711            0.99895
     24       0.00000           0.040024            1.08910
     25       0.00000           0.041379            1.12599
     26       0.00000           0.041768            1.13655
     27       0.00000           0.146280            3.98047
     28       0.00000           0.197004            5.36075
     29       0.00000           0.198937            5.41334
     30       0.00000           0.220404            5.99750
     31       0.00000           0.232534            6.32757
     32       0.00000           0.242347            6.59460
     33       0.00000           0.252709            6.87656
     34       0.00000           0.315517            8.58564
     35       0.00000           0.364285            9.91269
     36       0.00000           0.378748           10.30627
     37       0.00000           0.410856           11.17995
     38       0.00000           0.430494           11.71434
     39       0.00000           0.518385           14.10598
     40       0.00000           0.536352           14.59488

  Highest occupied state (VBM) at    -10.04065245 eV
  | Occupation number:      2.00000000

  Lowest unoccupied state (CBM) at    -4.37272224 eV
  | Occupation number:      0.00000000

  Overall HOMO-LUMO gap:      5.66793021 eV.

  Total energy components:
  | Sum of eigenvalues            :         -95.36919387 Ha       -2595.12780396 eV
  | XC energy correction          :         -23.71991422 Ha        -645.45170614 eV
  | XC potential correction       :          30.47090471 Ha         829.15550426 eV
  | Free-atom electrostatic energy:         -68.00868685 Ha       -1850.61052724 eV
  | Hartree energy correction     :          -0.65292087 Ha         -17.76688078 eV
  | vdW energy correction         :           0.00000000 Ha           0.00000000 eV
  | Entropy correction            :           0.00000000 Ha           0.00000000 eV
  | ---------------------------
  | Total energy                  :        -157.27981110 Ha       -4279.80141386 eV
  | Total energy, T -> 0          :        -157.27981110 Ha       -4279.80141386 eV  <-- do not rely on this value for anything but (periodic) metals
  | Electronic free energy        :        -157.27981110 Ha       -4279.80141386 eV

  Derived energy quantities:
  | Kinetic energy                :         154.52147020 Ha        4204.74313910 eV
  | Electrostatic energy          :        -288.08136708 Ha       -7839.09284681 eV
  | Energy correction for multipole
  | error in Hartree potential    :           0.00230048 Ha           0.06259913 eV
  | Sum of eigenvalues per atom                           :        -216.26065033 eV
  | Total energy (T->0) per atom                          :        -356.65011782 eV  <-- do not rely on this value for anything but (periodic) metals
  | Electronic free energy per atom                       :        -356.65011782 eV

  Self-consistency convergence accuracy:
  | Change of charge density      :  0.4879E+00
  | Change of sum of eigenvalues  :  0.1862E+02 eV
  | Change of total energy        :  0.1342E+01 eV

  End self-consistency iteration #     1       :  max(cpu_time)    wall_clock(cpu1)
  | Time for this iteration                    :        0.536 s           0.534 s
  | Charge density update                      :        0.172 s           0.170 s
  | Density mixing                             :        0.004 s           0.001 s
  | Hartree multipole update                   :        0.012 s           0.011 s
  | Hartree multipole summation                :        0.172 s           0.173 s
  | Integration                                :        0.176 s           0.173 s
  | Solution of K.-S. eqns.                    :        0.004 s           0.002 s
  | Total energy evaluation                    :        0.004 s           0.001 s

  Partial memory accounting:
  | Current value for overall tracked memory usage on task 0  :           0.179 MB
  | Peak value for overall tracked memory usage on task 0     :           0.763 MB after allocating gradient_basis_wave
  | Largest tracked array allocation on task 0 so far         :           0.438 MB  when allocating gradient_basis_wave
  Note:  These values currently only include a subset of arrays which are explicitly tracked.
  The "true" memory usage will be greater.
------------------------------------------------------------

------------------------------------------------------------
          Begin self-consistency iteration #    2

  Date     :  20180215, Time     :  214222.722
------------------------------------------------------------
  Evaluating new KS density.
  Integration grid: deviation in total charge (<rho> - N_e) =   1.421085E-14
  Pulay mixing of updated and previous charge densities.

  Evaluating partitioned Hartree potential by multipole expansion.
  | Analytical far-field extrapolation by fixed multipoles:
  | Hartree multipole sum: apparent total charge =  -0.403179E-03
  Summing up the Hartree potential.
  Time summed over all CPUs for potential: real work        1.085 s, elapsed        1.117 s
  | RMS charge density error from multipole expansion :   0.131297E-01

  Integrating Hamiltonian matrix: batch-based integration.
  Time summed over all CPUs for integration: real work        1.100 s, elapsed        1.139 s

  Updating Kohn-Sham eigenvalues, eigenvectors, occupation numbers, and Fermi level.
  Solving generalized eigenproblem
  Updating Kohn-Sham eigenvalues and eigenfunctions.
  Solving real generalised eigenvalue problem by standard LAPACK (fast)

  Obtaining occupation numbers and chemical potential using ELSI.
  | Chemical potential (Fermi level):    -4.69716741eV
  Highest occupied state (VBM) at     -6.18846232 eV
  | Occupation number:      2.00000000

  Lowest unoccupied state (CBM) at    -0.70031046 eV
  | Occupation number:      0.00000000

  Overall HOMO-LUMO gap:      5.48815186 eV.

  Checking to see if s.c.f. parameters should be adjusted.
  The system likely has a gap. Increased the default Pulay mixing parameter (charge_mix_param). Value:   0.200000 .
  Kept the default occupation width. Value:   0.010000 eV.

  Total energy components:
  | Sum of eigenvalues            :         -89.65986668 Ha       -2439.76910653 eV
  | XC energy correction          :         -24.27638238 Ha        -660.59397525 eV
  | XC potential correction       :          31.19183811 Ha         848.77310016 eV
  | Free-atom electrostatic energy:         -68.00868685 Ha       -1850.61052724 eV
  | Hartree energy correction     :          -6.32434517 Ha        -172.09418820 eV
  | vdW energy correction         :           0.00000000 Ha           0.00000000 eV
  | Entropy correction            :           0.00000000 Ha           0.00000000 eV
  | ---------------------------
  | Total energy                  :        -157.07744297 Ha       -4274.29469705 eV
  | Total energy, T -> 0          :        -157.07744297 Ha       -4274.29469705 eV  <-- do not rely on this value for anything but (periodic) metals
  | Electronic free energy        :        -157.07744297 Ha       -4274.29469705 eV

  Derived energy quantities:
  | Kinetic energy                :         156.94084315 Ha        4270.57762666 eV
  | Electrostatic energy          :        -289.74190374 Ha       -7884.27834846 eV
  | Energy correction for multipole
  | error in Hartree potential    :           0.02179345 Ha           0.59303007 eV
  | Sum of eigenvalues per atom                           :        -203.31409221 eV
  | Total energy (T->0) per atom                          :        -356.19122475 eV  <-- do not rely on this value for anything but (periodic) metals
  | Electronic free energy per atom                       :        -356.19122475 eV

  Self-consistency convergence accuracy:
  | Change of charge density      :  0.4488E+00
  | Change of sum of eigenvalues  :  0.1554E+03 eV
  | Change of total energy        :  0.5507E+01 eV

  End self-consistency iteration #     2       :  max(cpu_time)    wall_clock(cpu1)
  | Time for this iteration                    :        0.532 s           0.531 s
  | Charge density update                      :        0.172 s           0.170 s
  | Density mixing                             :        0.004 s           0.003 s
  | Hartree multipole update                   :        0.012 s           0.010 s
  | Hartree multipole summation                :        0.172 s           0.171 s
  | Integration                                :        0.176 s           0.173 s
  | Solution of K.-S. eqns.                    :        0.004 s           0.003 s
  | Total energy evaluation                    :        0.000 s           0.001 s

  Partial memory accounting:
  | Current value for overall tracked memory usage on task 0  :           0.180 MB
  | Peak value for overall tracked memory usage on task 0     :           0.763 MB after allocating gradient_basis_wave
  | Largest tracked array allocation on task 0 so far         :           0.438 MB  when allocating gradient_basis_wave
  Note:  These values currently only include a subset of arrays which are explicitly tracked.
  The "true" memory usage will be greater.
------------------------------------------------------------

------------------------------------------------------------
          Begin self-consistency iteration #    3

  Date     :  20180215, Time     :  214223.254
------------------------------------------------------------
  Evaluating new KS density.
  Integration grid: deviation in total charge (<rho> - N_e) =   7.105427E-15
  Pulay mixing of updated and previous charge densities.

  Evaluating partitioned Hartree potential by multipole expansion.
  | Analytical far-field extrapolation by fixed multipoles:
  | Hartree multipole sum: apparent total charge =  -0.393557E-03
  Summing up the Hartree potential.
  Time summed over all CPUs for potential: real work        1.081 s, elapsed        1.089 s
  | RMS charge density error from multipole expansion :   0.162611E-01

  Integrating Hamiltonian matrix: batch-based integration.
  Time summed over all CPUs for integration: real work        1.095 s, elapsed        1.135 s

  Updating Kohn-Sham eigenvalues, eigenvectors, occupation numbers, and Fermi level.
  Solving generalized eigenproblem
  Updating Kohn-Sham eigenvalues and eigenfunctions.
  Solving real generalised eigenvalue problem by standard LAPACK (fast)

  Obtaining occupation numbers and chemical potential using ELSI.
  | Chemical potential (Fermi level):    -5.08710868eV
  Highest occupied state (VBM) at     -6.86413647 eV
  | Occupation number:      2.00000000

  Lowest unoccupied state (CBM) at    -1.35692224 eV
  | Occupation number:      0.00000000

  Overall HOMO-LUMO gap:      5.50721423 eV.

  Total energy components:
  | Sum of eigenvalues            :         -90.61138734 Ha       -2465.66130097 eV
  | XC energy correction          :         -24.23085608 Ha        -659.35514158 eV
  | XC potential correction       :          31.12925010 Ha         847.06999361 eV
  | Free-atom electrostatic energy:         -68.00868685 Ha       -1850.61052724 eV
  | Hartree energy correction     :          -5.35064029 Ha        -145.59833023 eV
  | vdW energy correction         :           0.00000000 Ha           0.00000000 eV
  | Entropy correction            :           0.00000000 Ha           0.00000000 eV
  | ---------------------------
  | Total energy                  :        -157.07232046 Ha       -4274.15530640 eV
  | Total energy, T -> 0          :        -157.07232046 Ha       -4274.15530640 eV  <-- do not rely on this value for anything but (periodic) metals
  | Electronic free energy        :        -157.07232046 Ha       -4274.15530640 eV

  Derived energy quantities:
  | Kinetic energy                :         156.28062857 Ha        4252.61227386 eV
  | Electrostatic energy          :        -289.12209295 Ha       -7867.41243868 eV
  | Energy correction for multipole
  | error in Hartree potential    :           0.02612606 Ha           0.71092637 eV
  | Sum of eigenvalues per atom                           :        -205.47177508 eV
  | Total energy (T->0) per atom                          :        -356.17960887 eV  <-- do not rely on this value for anything but (periodic) metals
  | Electronic free energy per atom                       :        -356.17960887 eV

  Self-consistency convergence accuracy:
  | Change of charge density      :  0.2095E+00
  | Change of sum of eigenvalues  : -0.2589E+02 eV
  | Change of total energy        :  0.1394E+00 eV

  End self-consistency iteration #     3       :  max(cpu_time)    wall_clock(cpu1)
  | Time for this iteration                    :        0.520 s           0.520 s
  | Charge density update                      :        0.164 s           0.163 s
  | Density mixing                             :        0.004 s           0.004 s
  | Hartree multipole update                   :        0.012 s           0.010 s
  | Hartree multipole summation                :        0.168 s           0.167 s
  | Integration                                :        0.176 s           0.173 s
  | Solution of K.-S. eqns.                    :        0.000 s           0.002 s
  | Total energy evaluation                    :        0.000 s           0.001 s

  Partial memory accounting:
  | Current value for overall tracked memory usage on task 0  :           0.180 MB
  | Peak value for overall tracked memory usage on task 0     :           0.764 MB after allocating gradient_basis_wave
  | Largest tracked array allocation on task 0 so far         :           0.438 MB  when allocating gradient_basis_wave
  Note:  These values currently only include a subset of arrays which are explicitly tracked.
  The "true" memory usage will be greater.
------------------------------------------------------------

------------------------------------------------------------
          Begin self-consistency iteration #    4

  Date     :  20180215, Time     :  214223.775
------------------------------------------------------------
  Evaluating new KS density.
  Integration grid: deviation in total charge (<rho> - N_e) =  -3.552714E-15
  Pulay mixing of updated and previous charge densities.

  Evaluating partitioned Hartree potential by multipole expansion.
  | Analytical far-field extrapolation by fixed multipoles:
  | Hartree multipole sum: apparent total charge =  -0.472800E-03
  Summing up the Hartree potential.
  Time summed over all CPUs for potential: real work        1.108 s, elapsed        1.204 s
  | RMS charge density error from multipole expansion :   0.221272E-01

  Integrating Hamiltonian matrix: batch-based integration.
  Time summed over all CPUs for integration: real work        1.097 s, elapsed        1.126 s

  Updating Kohn-Sham eigenvalues, eigenvectors, occupation numbers, and Fermi level.
  Solving generalized eigenproblem
  Updating Kohn-Sham eigenvalues and eigenfunctions.
  Solving real generalised eigenvalue problem by standard LAPACK (fast)

  Obtaining occupation numbers and chemical potential using ELSI.
  | Chemical potential (Fermi level):    -4.35422564eV
  Highest occupied state (VBM) at     -6.20852314 eV
  | Occupation number:      2.00000000

  Lowest unoccupied state (CBM) at    -0.74118999 eV
  | Occupation number:      0.00000000

  Overall HOMO-LUMO gap:      5.46733315 eV.

  Total energy components:
  | Sum of eigenvalues            :         -89.68498240 Ha       -2440.45254006 eV
  | XC energy correction          :         -24.37153231 Ha        -663.18313648 eV
  | XC potential correction       :          31.30908643 Ha         851.96358913 eV
  | Free-atom electrostatic energy:         -68.00868685 Ha       -1850.61052724 eV
  | Hartree energy correction     :          -6.30540765 Ha        -171.57887203 eV
  | vdW energy correction         :           0.00000000 Ha           0.00000000 eV
  | Entropy correction            :           0.00000000 Ha           0.00000000 eV
  | ---------------------------
  | Total energy                  :        -157.06152279 Ha       -4273.86148667 eV
  | Total energy, T -> 0          :        -157.06152279 Ha       -4273.86148667 eV  <-- do not rely on this value for anything but (periodic) metals
  | Electronic free energy        :        -157.06152279 Ha       -4273.86148667 eV

  Derived energy quantities:
  | Kinetic energy                :         156.35097633 Ha        4254.52653395 eV
  | Electrostatic energy          :        -289.04096681 Ha       -7865.20488414 eV
  | Energy correction for multipole
  | error in Hartree potential    :           0.03393649 Ha           0.92345884 eV
  | Sum of eigenvalues per atom                           :        -203.37104500 eV
  | Total energy (T->0) per atom                          :        -356.15512389 eV  <-- do not rely on this value for anything but (periodic) metals
  | Electronic free energy per atom                       :        -356.15512389 eV

  Self-consistency convergence accuracy:
  | Change of charge density      :  0.1273E+00
  | Change of sum of eigenvalues  :  0.2521E+02 eV
  | Change of total energy        :  0.2938E+00 eV

  End self-consistency iteration #     4       :  max(cpu_time)    wall_clock(cpu1)
  | Time for this iteration                    :        0.540 s           0.539 s
  | Charge density update                      :        0.168 s           0.165 s
  | Density mixing                             :        0.008 s           0.006 s
  | Hartree multipole update                   :        0.012 s           0.009 s
  | Hartree multipole summation                :        0.184 s           0.184 s
  | Integration                                :        0.172 s           0.172 s
  | Solution of K.-S. eqns.                    :        0.004 s           0.002 s
  | Total energy evaluation                    :        0.000 s           0.000 s

  Partial memory accounting:
  | Current value for overall tracked memory usage on task 0  :           0.180 MB
  | Peak value for overall tracked memory usage on task 0     :           0.764 MB after allocating gradient_basis_wave
  | Largest tracked array allocation on task 0 so far         :           0.438 MB  when allocating gradient_basis_wave
  Note:  These values currently only include a subset of arrays which are explicitly tracked.
  The "true" memory usage will be greater.
------------------------------------------------------------

------------------------------------------------------------
          Begin self-consistency iteration #    5

  Date     :  20180215, Time     :  214224.315
------------------------------------------------------------
  Evaluating new KS density.
  Integration grid: deviation in total charge (<rho> - N_e) =   7.105427E-15
  Pulay mixing of updated and previous charge densities.

  Evaluating partitioned Hartree potential by multipole expansion.
  | Analytical far-field extrapolation by fixed multipoles:
  | Hartree multipole sum: apparent total charge =  -0.498602E-03
  Summing up the Hartree potential.
  Time summed over all CPUs for potential: real work        1.096 s, elapsed        1.128 s
  | RMS charge density error from multipole expansion :   0.226517E-01

  Integrating Hamiltonian matrix: batch-based integration.
  Time summed over all CPUs for integration: real work        1.094 s, elapsed        1.131 s

  Updating Kohn-Sham eigenvalues, eigenvectors, occupation numbers, and Fermi level.
  Solving generalized eigenproblem
  Updating Kohn-Sham eigenvalues and eigenfunctions.
  Solving real generalised eigenvalue problem by standard LAPACK (fast)

  Obtaining occupation numbers and chemical potential using ELSI.
  | Chemical potential (Fermi level):    -4.18119895eV
  Highest occupied state (VBM) at     -5.97099582 eV
  | Occupation number:      2.00000000

  Lowest unoccupied state (CBM) at    -0.50328017 eV
  | Occupation number:      0.00000000

  Overall HOMO-LUMO gap:      5.46771565 eV.

  Total energy components:
  | Sum of eigenvalues            :         -89.45392306 Ha       -2434.16509553 eV
  | XC energy correction          :         -24.39119141 Ha        -663.71808790 eV
  | XC potential correction       :          31.33465836 Ha         852.65943672 eV
  | Free-atom electrostatic energy:         -68.00868685 Ha       -1850.61052724 eV
  | Hartree energy correction     :          -6.54133489 Ha        -177.99877872 eV
  | vdW energy correction         :           0.00000000 Ha           0.00000000 eV
  | Entropy correction            :           0.00000000 Ha           0.00000000 eV
  | ---------------------------
  | Total energy                  :        -157.06047786 Ha       -4273.83305267 eV
  | Total energy, T -> 0          :        -157.06047786 Ha       -4273.83305267 eV  <-- do not rely on this value for anything but (periodic) metals
  | Electronic free energy        :        -157.06047786 Ha       -4273.83305267 eV

  Derived energy quantities:
  | Kinetic energy                :         156.33375984 Ha        4254.05804934 eV
  | Electrostatic energy          :        -289.00304628 Ha       -7864.17301412 eV
  | Energy correction for multipole
  | error in Hartree potential    :           0.03344115 Ha           0.90998004 eV
  | Sum of eigenvalues per atom                           :        -202.84709129 eV
  | Total energy (T->0) per atom                          :        -356.15275439 eV  <-- do not rely on this value for anything but (periodic) metals
  | Electronic free energy per atom                       :        -356.15275439 eV

  Self-consistency convergence accuracy:
  | Change of charge density      :  0.3085E-01
  | Change of sum of eigenvalues  :  0.6287E+01 eV
  | Change of total energy        :  0.2843E-01 eV

  End self-consistency iteration #     5       :  max(cpu_time)    wall_clock(cpu1)
  | Time for this iteration                    :        0.548 s           0.546 s
  | Charge density update                      :        0.180 s           0.179 s
  | Density mixing                             :        0.008 s           0.008 s
  | Hartree multipole update                   :        0.012 s           0.011 s
  | Hartree multipole summation                :        0.172 s           0.172 s
  | Integration                                :        0.172 s           0.173 s
  | Solution of K.-S. eqns.                    :        0.004 s           0.002 s
  | Total energy evaluation                    :        0.000 s           0.001 s

  Partial memory accounting:
  | Current value for overall tracked memory usage on task 0  :           0.180 MB
  | Peak value for overall tracked memory usage on task 0     :           0.764 MB after allocating gradient_basis_wave
  | Largest tracked array allocation on task 0 so far         :           0.438 MB  when allocating gradient_basis_wave
  Note:  These values currently only include a subset of arrays which are explicitly tracked.
  The "true" memory usage will be greater.
------------------------------------------------------------

------------------------------------------------------------
          Begin self-consistency iteration #    6

  Date     :  20180215, Time     :  214224.862
------------------------------------------------------------
  Evaluating new KS density.
  Integration grid: deviation in total charge (<rho> - N_e) =   0.000000E+00
  Pulay mixing of updated and previous charge densities.

  Evaluating partitioned Hartree potential by multipole expansion.
  | Analytical far-field extrapolation by fixed multipoles:
  | Hartree multipole sum: apparent total charge =  -0.519946E-03
  Summing up the Hartree potential.
  Time summed over all CPUs for potential: real work        1.097 s, elapsed        1.144 s
  | RMS charge density error from multipole expansion :   0.229841E-01

  Integrating Hamiltonian matrix: batch-based integration.
  Time summed over all CPUs for integration: real work        1.104 s, elapsed        1.133 s

  Updating Kohn-Sham eigenvalues, eigenvectors, occupation numbers, and Fermi level.
  Solving generalized eigenproblem
  Updating Kohn-Sham eigenvalues and eigenfunctions.
  Solving real generalised eigenvalue problem by standard LAPACK (fast)

  Obtaining occupation numbers and chemical potential using ELSI.
  | Chemical potential (Fermi level):    -4.08577506eV
  Highest occupied state (VBM) at     -5.86943859 eV
  | Occupation number:      2.00000000

  Lowest unoccupied state (CBM) at    -0.40412327 eV
  | Occupation number:      0.00000000

  Overall HOMO-LUMO gap:      5.46531532 eV.

  Total energy components:
  | Sum of eigenvalues            :         -89.34078550 Ha       -2431.08646590 eV
  | XC energy correction          :         -24.40299952 Ha        -664.03940291 eV
  | XC potential correction       :          31.34998571 Ha         853.07651522 eV
  | Free-atom electrostatic energy:         -68.00868685 Ha       -1850.61052724 eV
  | Hartree energy correction     :          -6.65771659 Ha        -181.16568604 eV
  | vdW energy correction         :           0.00000000 Ha           0.00000000 eV
  | Entropy correction            :           0.00000000 Ha           0.00000000 eV
  | ---------------------------
  | Total energy                  :        -157.06020276 Ha       -4273.82556687 eV
  | Total energy, T -> 0          :        -157.06020276 Ha       -4273.82556687 eV  <-- do not rely on this value for anything but (periodic) metals
  | Electronic free energy        :        -157.06020276 Ha       -4273.82556687 eV

  Derived energy quantities:
  | Kinetic energy                :         156.28860094 Ha        4252.82921327 eV
  | Electrostatic energy          :        -288.94580418 Ha       -7862.61537723 eV
  | Energy correction for multipole
  | error in Hartree potential    :           0.03264057 Ha           0.88819511 eV
  | Sum of eigenvalues per atom                           :        -202.59053882 eV
  | Total energy (T->0) per atom                          :        -356.15213057 eV  <-- do not rely on this value for anything but (periodic) metals
  | Electronic free energy per atom                       :        -356.15213057 eV

  Self-consistency convergence accuracy:
  | Change of charge density      :  0.1645E-01
  | Change of sum of eigenvalues  :  0.3079E+01 eV
  | Change of total energy        :  0.7486E-02 eV

  End self-consistency iteration #     6       :  max(cpu_time)    wall_clock(cpu1)
  | Time for this iteration                    :        0.544 s           0.542 s
  | Charge density update                      :        0.172 s           0.171 s
  | Density mixing                             :        0.008 s           0.010 s
  | Hartree multipole update                   :        0.012 s           0.009 s
  | Hartree multipole summation                :        0.176 s           0.175 s
  | Integration                                :        0.176 s           0.173 s
  | Solution of K.-S. eqns.                    :        0.004 s           0.003 s
  | Total energy evaluation                    :        0.000 s           0.001 s

  Partial memory accounting:
  | Current value for overall tracked memory usage on task 0  :           0.180 MB
  | Peak value for overall tracked memory usage on task 0     :           0.764 MB after allocating gradient_basis_wave
  | Largest tracked array allocation on task 0 so far         :           0.438 MB  when allocating gradient_basis_wave
  Note:  These values currently only include a subset of arrays which are explicitly tracked.
  The "true" memory usage will be greater.
------------------------------------------------------------

------------------------------------------------------------
          Begin self-consistency iteration #    7

  Date     :  20180215, Time     :  214225.405
------------------------------------------------------------
  Evaluating new KS density.
  Integration grid: deviation in total charge (<rho> - N_e) =  -1.065814E-14
  Pulay mixing of updated and previous charge densities.

  Evaluating partitioned Hartree potential by multipole expansion.
  | Analytical far-field extrapolation by fixed multipoles:
  | Hartree multipole sum: apparent total charge =  -0.524461E-03
  Summing up the Hartree potential.
  Time summed over all CPUs for potential: real work        1.099 s, elapsed        1.163 s
  | RMS charge density error from multipole expansion :   0.229681E-01

  Integrating Hamiltonian matrix: batch-based integration.
  Time summed over all CPUs for integration: real work        1.100 s, elapsed        1.121 s

  Updating Kohn-Sham eigenvalues, eigenvectors, occupation numbers, and Fermi level.
  Solving generalized eigenproblem
  Updating Kohn-Sham eigenvalues and eigenfunctions.
  Solving real generalised eigenvalue problem by standard LAPACK (fast)

  Obtaining occupation numbers and chemical potential using ELSI.
  | Chemical potential (Fermi level):    -4.06240712eV
  Highest occupied state (VBM) at     -5.83616106 eV
  | Occupation number:      2.00000000

  Lowest unoccupied state (CBM) at    -0.37119335 eV
  | Occupation number:      0.00000000

  Overall HOMO-LUMO gap:      5.46496771 eV.

  Total energy components:
  | Sum of eigenvalues            :         -89.30732945 Ha       -2430.17608030 eV
  | XC energy correction          :         -24.40515744 Ha        -664.09812275 eV
  | XC potential correction       :          31.35285558 Ha         853.15460844 eV
  | Free-atom electrostatic energy:         -68.00868685 Ha       -1850.61052724 eV
  | Hartree energy correction     :          -6.69183468 Ha        -182.09408654 eV
  | vdW energy correction         :           0.00000000 Ha           0.00000000 eV
  | Entropy correction            :           0.00000000 Ha           0.00000000 eV
  | ---------------------------
  | Total energy                  :        -157.06015283 Ha       -4273.82420840 eV
  | Total energy, T -> 0          :        -157.06015283 Ha       -4273.82420840 eV  <-- do not rely on this value for anything but (periodic) metals
  | Electronic free energy        :        -157.06015283 Ha       -4273.82420840 eV

  Derived energy quantities:
  | Kinetic energy                :         156.28772010 Ha        4252.80524429 eV
  | Electrostatic energy          :        -288.94271550 Ha       -7862.53132993 eV
  | Energy correction for multipole
  | error in Hartree potential    :           0.03234810 Ha           0.88023650 eV
  | Sum of eigenvalues per atom                           :        -202.51467336 eV
  | Total energy (T->0) per atom                          :        -356.15201737 eV  <-- do not rely on this value for anything but (periodic) metals
  | Electronic free energy per atom                       :        -356.15201737 eV

  Self-consistency convergence accuracy:
  | Change of charge density      :  0.6717E-02
  | Change of sum of eigenvalues  :  0.9104E+00 eV
  | Change of total energy        :  0.1358E-02 eV

  End self-consistency iteration #     7       :  max(cpu_time)    wall_clock(cpu1)
  | Time for this iteration                    :        0.540 s           0.541 s
  | Charge density update                      :        0.168 s           0.169 s
  | Density mixing                             :        0.012 s           0.011 s
  | Hartree multipole update                   :        0.012 s           0.009 s
  | Hartree multipole summation                :        0.180 s           0.178 s
  | Integration                                :        0.172 s           0.171 s
  | Solution of K.-S. eqns.                    :        0.004 s           0.002 s
  | Total energy evaluation                    :        0.000 s           0.001 s

  Partial memory accounting:
  | Current value for overall tracked memory usage on task 0  :           0.180 MB
  | Peak value for overall tracked memory usage on task 0     :           0.764 MB after allocating gradient_basis_wave
  | Largest tracked array allocation on task 0 so far         :           0.438 MB  when allocating gradient_basis_wave
  Note:  These values currently only include a subset of arrays which are explicitly tracked.
  The "true" memory usage will be greater.
------------------------------------------------------------

------------------------------------------------------------
          Begin self-consistency iteration #    8

  Date     :  20180215, Time     :  214225.947
------------------------------------------------------------
  Evaluating new KS density.
  Integration grid: deviation in total charge (<rho> - N_e) =  -7.105427E-15
  Pulay mixing of updated and previous charge densities.

  Evaluating partitioned Hartree potential by multipole expansion.
  | Analytical far-field extrapolation by fixed multipoles:
  | Hartree multipole sum: apparent total charge =  -0.533522E-03
  Summing up the Hartree potential.
  Time summed over all CPUs for potential: real work        1.093 s, elapsed        1.117 s
  | RMS charge density error from multipole expansion :   0.230128E-01

  Integrating Hamiltonian matrix: batch-based integration.
  Time summed over all CPUs for integration: real work        1.096 s, elapsed        1.127 s

  Updating Kohn-Sham eigenvalues, eigenvectors, occupation numbers, and Fermi level.
  Solving generalized eigenproblem
  Updating Kohn-Sham eigenvalues and eigenfunctions.
  Solving real generalised eigenvalue problem by standard LAPACK (fast)

  Obtaining occupation numbers and chemical potential using ELSI.
  | Chemical potential (Fermi level):    -4.01376121eV
  Highest occupied state (VBM) at     -5.77462946 eV
  | Occupation number:      2.00000000

  Lowest unoccupied state (CBM) at    -0.31209190 eV
  | Occupation number:      0.00000000

  Overall HOMO-LUMO gap:      5.46253756 eV.

  Total energy components:
  | Sum of eigenvalues            :         -89.24201079 Ha       -2428.39866922 eV
  | XC energy correction          :         -24.41150120 Ha        -664.27074532 eV
  | XC potential correction       :          31.36115190 Ha         853.38036278 eV
  | Free-atom electrostatic energy:         -68.00868685 Ha       -1850.61052724 eV
  | Hartree energy correction     :          -6.75906538 Ha        -183.92352693 eV
  | vdW energy correction         :           0.00000000 Ha           0.00000000 eV
  | Entropy correction            :           0.00000000 Ha           0.00000000 eV
  | ---------------------------
  | Total energy                  :        -157.06011232 Ha       -4273.82310593 eV
  | Total energy, T -> 0          :        -157.06011232 Ha       -4273.82310593 eV  <-- do not rely on this value for anything but (periodic) metals
  | Electronic free energy        :        -157.06011232 Ha       -4273.82310593 eV

  Derived energy quantities:
  | Kinetic energy                :         156.29122107 Ha        4252.90051052 eV
  | Electrostatic energy          :        -288.93983219 Ha       -7862.45287112 eV
  | Energy correction for multipole
  | error in Hartree potential    :           0.03197375 Ha           0.87004994 eV
  | Sum of eigenvalues per atom                           :        -202.36655577 eV
  | Total energy (T->0) per atom                          :        -356.15192549 eV  <-- do not rely on this value for anything but (periodic) metals
  | Electronic free energy per atom                       :        -356.15192549 eV

  Self-consistency convergence accuracy:
  | Change of charge density      :  0.4841E-02
  | Change of sum of eigenvalues  :  0.1777E+01 eV
  | Change of total energy        :  0.1102E-02 eV

  End self-consistency iteration #     8       :  max(cpu_time)    wall_clock(cpu1)
  | Time for this iteration                    :        0.532 s           0.530 s
  | Charge density update                      :        0.164 s           0.163 s
  | Density mixing                             :        0.012 s           0.011 s
  | Hartree multipole update                   :        0.012 s           0.010 s
  | Hartree multipole summation                :        0.172 s           0.170 s
  | Integration                                :        0.172 s           0.172 s
  | Solution of K.-S. eqns.                    :        0.004 s           0.003 s
  | Total energy evaluation                    :        0.000 s           0.001 s

  Partial memory accounting:
  | Current value for overall tracked memory usage on task 0  :           0.180 MB
  | Peak value for overall tracked memory usage on task 0     :           0.764 MB after allocating gradient_basis_wave
  | Largest tracked array allocation on task 0 so far         :           0.438 MB  when allocating gradient_basis_wave
  Note:  These values currently only include a subset of arrays which are explicitly tracked.
  The "true" memory usage will be greater.
------------------------------------------------------------

------------------------------------------------------------
          Begin self-consistency iteration #    9

  Date     :  20180215, Time     :  214226.478
------------------------------------------------------------
  Evaluating new KS density.
  Integration grid: deviation in total charge (<rho> - N_e) =   0.000000E+00
  Pulay mixing of updated and previous charge densities.

  Evaluating partitioned Hartree potential by multipole expansion.
  | Analytical far-field extrapolation by fixed multipoles:
  | Hartree multipole sum: apparent total charge =  -0.535298E-03
  Summing up the Hartree potential.
  Time summed over all CPUs for potential: real work        1.093 s, elapsed        1.123 s
  | RMS charge density error from multipole expansion :   0.230229E-01

  Integrating Hamiltonian matrix: batch-based integration.
  Time summed over all CPUs for integration: real work        1.089 s, elapsed        1.114 s

  Updating Kohn-Sham eigenvalues, eigenvectors, occupation numbers, and Fermi level.
  Solving generalized eigenproblem
  Updating Kohn-Sham eigenvalues and eigenfunctions.
  Solving real generalised eigenvalue problem by standard LAPACK (fast)

  Obtaining occupation numbers and chemical potential using ELSI.
  | Chemical potential (Fermi level):    -4.00369359eV
  Highest occupied state (VBM) at     -5.76247359 eV
  | Occupation number:      2.00000000

  Lowest unoccupied state (CBM) at    -0.30021033 eV
  | Occupation number:      0.00000000

  Overall HOMO-LUMO gap:      5.46226325 eV.

  Total energy components:
  | Sum of eigenvalues            :         -89.22803752 Ha       -2428.01843720 eV
  | XC energy correction          :         -24.41303134 Ha        -664.31238264 eV
  | XC potential correction       :          31.36314374 Ha         853.43456357 eV
  | Free-atom electrostatic energy:         -68.00868685 Ha       -1850.61052724 eV
  | Hartree energy correction     :          -6.77350006 Ha        -184.31631456 eV
  | vdW energy correction         :           0.00000000 Ha           0.00000000 eV
  | Entropy correction            :           0.00000000 Ha           0.00000000 eV
  | ---------------------------
  | Total energy                  :        -157.06011203 Ha       -4273.82309806 eV
  | Total energy, T -> 0          :        -157.06011203 Ha       -4273.82309806 eV  <-- do not rely on this value for anything but (periodic) metals
  | Electronic free energy        :        -157.06011203 Ha       -4273.82309806 eV

  Derived energy quantities:
  | Kinetic energy                :         156.29430809 Ha        4252.98451272 eV
  | Electrostatic energy          :        -288.94138878 Ha       -7862.49522814 eV
  | Energy correction for multipole
  | error in Hartree potential    :           0.03192588 Ha           0.86874752 eV
  | Sum of eigenvalues per atom                           :        -202.33486977 eV
  | Total energy (T->0) per atom                          :        -356.15192484 eV  <-- do not rely on this value for anything but (periodic) metals
  | Electronic free energy per atom                       :        -356.15192484 eV

  Self-consistency convergence accuracy:
  | Change of charge density      :  0.7857E-03
  | Change of sum of eigenvalues  :  0.3802E+00 eV
  | Change of total energy        :  0.7863E-05 eV

  End self-consistency iteration #     9       :  max(cpu_time)    wall_clock(cpu1)
  | Time for this iteration                    :        0.528 s           0.529 s
  | Charge density update                      :        0.164 s           0.161 s
  | Density mixing                             :        0.016 s           0.013 s
  | Hartree multipole update                   :        0.012 s           0.010 s
  | Hartree multipole summation                :        0.172 s           0.171 s
  | Integration                                :        0.172 s           0.170 s
  | Solution of K.-S. eqns.                    :        0.004 s           0.002 s
  | Total energy evaluation                    :        0.000 s           0.001 s

  Partial memory accounting:
  | Current value for overall tracked memory usage on task 0  :           0.180 MB
  | Peak value for overall tracked memory usage on task 0     :           0.764 MB after allocating gradient_basis_wave
  | Largest tracked array allocation on task 0 so far         :           0.438 MB  when allocating gradient_basis_wave
  Note:  These values currently only include a subset of arrays which are explicitly tracked.
  The "true" memory usage will be greater.
------------------------------------------------------------

------------------------------------------------------------
          Begin self-consistency iteration #   10

  Date     :  20180215, Time     :  214227.008
------------------------------------------------------------
  Evaluating new KS density.
  Integration grid: deviation in total charge (<rho> - N_e) =   1.421085E-14
  Pulay mixing of updated and previous charge densities.

  Evaluating partitioned Hartree potential by multipole expansion.
  | Analytical far-field extrapolation by fixed multipoles:
  | Hartree multipole sum: apparent total charge =  -0.535132E-03
  Summing up the Hartree potential.
  Time summed over all CPUs for potential: real work        1.095 s, elapsed        1.103 s
  | RMS charge density error from multipole expansion :   0.230223E-01

  Integrating Hamiltonian matrix: batch-based integration.
  Time summed over all CPUs for integration: real work        1.091 s, elapsed        1.108 s

[...]
  |   Hirshfeld dipole moment :      0.08806134
  |   Hirshfeld second moments:      0.09833678       0.00160118       0.00913866
  |                                  0.00160118       0.11057134      -0.00394880
  |                                  0.00913866      -0.00394880       0.09415691
  ----------------------------------------------------------------------
  | Atom     8: H
  |   Hirshfeld charge        :      0.03773259
  |   Free atom volume        :      9.95071624
  |   Hirshfeld volume        :      6.48456510
  |   Hirshfeld dipole vector :     -0.00768573       0.08802639       0.00018415
  |   Hirshfeld dipole moment :      0.08836148
  |   Hirshfeld second moments:      0.09915104       0.00042736       0.00002333
  |                                  0.00042736       0.08577568      -0.00014132
  |                                  0.00002333      -0.00014132       0.09909649
  ----------------------------------------------------------------------
  | Atom     9: H
  |   Hirshfeld charge        :      0.03773259
  |   Free atom volume        :      9.95071624
  |   Hirshfeld volume        :      6.48456510
  |   Hirshfeld dipole vector :      0.00768573      -0.08802639       0.00018414
  |   Hirshfeld dipole moment :      0.08836148
  |   Hirshfeld second moments:      0.09915104       0.00042736      -0.00002333
  |                                  0.00042736       0.08577568       0.00014132
  |                                 -0.00002333       0.00014132       0.09909649
  ----------------------------------------------------------------------
  | Atom    10: H
  |   Hirshfeld charge        :      0.04166207
  |   Free atom volume        :      9.95071624
  |   Hirshfeld volume        :      6.29218650
  |   Hirshfeld dipole vector :     -0.00400547       0.08750786      -0.00411056
  |   Hirshfeld dipole moment :      0.08769587
  |   Hirshfeld second moments:      0.10014176       0.00053090      -0.00024445
  |                                  0.00053090       0.08623696       0.00091428
  |                                 -0.00024445       0.00091428       0.10850457
  ----------------------------------------------------------------------
  | Atom    11: H
  |   Hirshfeld charge        :      0.04211256
  |   Free atom volume        :      9.95071624
  |   Hirshfeld volume        :      6.14859474
  |   Hirshfeld dipole vector :      0.04747514      -0.01917453       0.07164669
  |   Hirshfeld dipole moment :      0.08806134
  |   Hirshfeld second moments:      0.09833677       0.00160119      -0.00913866
  |                                  0.00160119       0.11057134       0.00394880
  |                                 -0.00913866       0.00394880       0.09415691
  ----------------------------------------------------------------------
  | Atom    12: H
  |   Hirshfeld charge        :      0.04200082
  |   Free atom volume        :      9.95071624
  |   Hirshfeld volume        :      6.13844772
  |   Hirshfeld dipole vector :      0.05121168      -0.02580799      -0.06697932
  |   Hirshfeld dipole moment :      0.08817549
  |   Hirshfeld second moments:      0.09768105       0.00285034       0.00918862
  |                                  0.00285034       0.10999271      -0.00499782
  |                                  0.00918862      -0.00499782       0.09610166
  ----------------------------------------------------------------------


  Total energy components:
  | Sum of eigenvalues            :         -89.22954807 Ha       -2428.05954135 eV
  | XC energy correction          :         -24.41294349 Ha        -664.30999207 eV
  | XC potential correction       :          31.36302637 Ha         853.43136957 eV
  | Free-atom electrostatic energy:         -68.00868685 Ha       -1850.61052724 eV
  | Hartree energy correction     :          -6.77196031 Ha        -184.27441573 eV
  | vdW energy correction         :          -0.00201898 Ha          -0.05493924 eV
  | Entropy correction            :           0.00000000 Ha           0.00000000 eV
  | ---------------------------
  | Total energy                  :        -157.06213133 Ha       -4273.87804607 eV
  | Total energy, T -> 0          :        -157.06213133 Ha       -4273.87804607 eV  <-- do not rely on this value for anything but (periodic) metals
  | Electronic free energy        :        -157.06213133 Ha       -4273.87804607 eV

  Derived energy quantities:
  | Kinetic energy                :         156.29426734 Ha        4252.98340363 eV
  | Electrostatic energy          :        -288.94143620 Ha       -7862.49651839 eV
  | Energy correction for multipole
  | error in Hartree potential    :           0.03193483 Ha           0.86899104 eV
  | Sum of eigenvalues per atom                           :        -202.33829511 eV
  | Total energy (T->0) per atom                          :        -356.15650384 eV  <-- do not rely on this value for anything but (periodic) metals
  | Electronic free energy per atom                       :        -356.15650384 eV

  atomic forces [eV/Ang]:
  -----------------------
  atom #    1
   Hellmann-Feynman              :  0.333027E+00  0.140128E+00 -0.451559E-02
   Ionic forces                  :  0.000000E+00  0.000000E+00  0.000000E+00
   Multipole                     : -0.612568E+00 -0.303136E+00  0.167101E-02
   Pulay + GGA                   :  0.279383E+00  0.159223E+00  0.298543E-02
   Van der Waals                 : -0.104067E-03  0.373366E-02  0.132691E-04
   ----------------------------------------------------------------
   Total forces(   1)            : -0.262300E-03 -0.514375E-04  0.154114E-03
  atom #    2
   Hellmann-Feynman              :  0.211270E+01 -0.398757E+00  0.235080E-01
   Ionic forces                  :  0.000000E+00  0.000000E+00  0.000000E+00
   Multipole                     : -0.149510E+00 -0.100233E-01 -0.184827E-01
   Pulay + GGA                   : -0.196390E+01  0.410559E+00 -0.487096E-02
   Van der Waals                 :  0.364584E-03 -0.154876E-02 -0.603646E-06
   ----------------------------------------------------------------
   Total forces(   2)            : -0.347548E-03  0.230484E-03  0.153723E-03
  atom #    3
   Hellmann-Feynman              : -0.211270E+01  0.398757E+00  0.235081E-01
   Ionic forces                  :  0.000000E+00  0.000000E+00  0.000000E+00
   Multipole                     :  0.149510E+00  0.100233E-01 -0.184827E-01
   Pulay + GGA                   :  0.196390E+01 -0.410559E+00 -0.487111E-02
   Van der Waals                 : -0.364584E-03  0.154876E-02 -0.603511E-06
   ----------------------------------------------------------------
   Total forces(   3)            :  0.347549E-03 -0.230484E-03  0.153722E-03
  atom #    4
   Hellmann-Feynman              : -0.333027E+00 -0.140128E+00 -0.451559E-02
   Ionic forces                  :  0.000000E+00  0.000000E+00  0.000000E+00
   Multipole                     :  0.612568E+00  0.303136E+00  0.167099E-02
   Pulay + GGA                   : -0.279383E+00 -0.159223E+00  0.298544E-02
   Van der Waals                 :  0.104067E-03 -0.373366E-02  0.132688E-04
   ----------------------------------------------------------------
   Total forces(   4)            :  0.262300E-03  0.514375E-04  0.154114E-03
  atom #    5
   Hellmann-Feynman              :  0.760592E-01  0.122773E-01  0.924974E-02
   Ionic forces                  :  0.000000E+00  0.000000E+00  0.000000E+00
   Multipole                     : -0.486917E-01 -0.123068E+00 -0.635364E-02
   Pulay + GGA                   : -0.209459E-01  0.110701E+00  0.372700E-02
   Van der Waals                 : -0.709341E-02 -0.193432E-03 -0.169170E-03
   ----------------------------------------------------------------
   Total forces(   5)            : -0.671867E-03 -0.283752E-03  0.645392E-02
  atom #    6
   Hellmann-Feynman              :  0.254135E-01  0.353799E-01 -0.481028E-02
   Ionic forces                  :  0.000000E+00  0.000000E+00  0.000000E+00
   Multipole                     : -0.911973E-01 -0.229768E-02 -0.701549E-01
   Pulay + GGA                   :  0.668121E-01 -0.342190E-01  0.726182E-01
   Van der Waals                 :  0.994176E-03 -0.330220E-02 -0.960815E-03
   ----------------------------------------------------------------
   Total forces(   6)            :  0.202252E-02 -0.443898E-02 -0.330782E-02
  atom #    7
   Hellmann-Feynman              :  0.149591E-01  0.415643E-01  0.677746E-03
   Ionic forces                  :  0.000000E+00  0.000000E+00  0.000000E+00
   Multipole                     : -0.835825E-01 -0.715118E-02  0.737074E-01
   Pulay + GGA                   :  0.647147E-01 -0.259849E-01 -0.781409E-01
   Van der Waals                 :  0.108957E-02 -0.311593E-02  0.950746E-03
   ----------------------------------------------------------------
   Total forces(   7)            : -0.281919E-02  0.531225E-02 -0.280501E-02
  atom #    8
   Hellmann-Feynman              : -0.394914E-01 -0.347534E-01  0.809958E-03
   Ionic forces                  :  0.000000E+00  0.000000E+00  0.000000E+00
   Multipole                     :  0.398648E-01  0.144044E+00 -0.678374E-03
   Pulay + GGA                   :  0.620114E-03 -0.112272E+00 -0.363704E-03
   Van der Waals                 : -0.127174E-02  0.280098E-02  0.166574E-03
   ----------------------------------------------------------------
   Total forces(   8)            : -0.278208E-03 -0.180725E-03 -0.655452E-04
  atom #    9
   Hellmann-Feynman              :  0.394914E-01  0.347534E-01  0.809954E-03
   Ionic forces                  :  0.000000E+00  0.000000E+00  0.000000E+00
   Multipole                     : -0.398648E-01 -0.144044E+00 -0.678381E-03
   Pulay + GGA                   : -0.620114E-03  0.112272E+00 -0.363695E-03
   Van der Waals                 :  0.127174E-02 -0.280098E-02  0.166574E-03
   ----------------------------------------------------------------
   Total forces(   9)            :  0.278209E-03  0.180725E-03 -0.655488E-04
  atom #   10
   Hellmann-Feynman              : -0.760592E-01 -0.122773E-01  0.924974E-02
   Ionic forces                  :  0.000000E+00  0.000000E+00  0.000000E+00
   Multipole                     :  0.486917E-01  0.123068E+00 -0.635363E-02
   Pulay + GGA                   :  0.209459E-01 -0.110701E+00  0.372699E-02
   Van der Waals                 :  0.709341E-02  0.193432E-03 -0.169171E-03
   ----------------------------------------------------------------
   Total forces(  10)            :  0.671867E-03  0.283751E-03  0.645392E-02
  atom #   11
   Hellmann-Feynman              : -0.149591E-01 -0.415642E-01  0.677745E-03
   Ionic forces                  :  0.000000E+00  0.000000E+00  0.000000E+00
   Multipole                     :  0.835825E-01  0.715117E-02  0.737074E-01
   Pulay + GGA                   : -0.647147E-01  0.259849E-01 -0.781409E-01
   Van der Waals                 : -0.108957E-02  0.311593E-02  0.950747E-03
   ----------------------------------------------------------------
   Total forces(  11)            :  0.281919E-02 -0.531225E-02 -0.280501E-02
  atom #   12
   Hellmann-Feynman              : -0.254135E-01 -0.353799E-01 -0.481028E-02
   Ionic forces                  :  0.000000E+00  0.000000E+00  0.000000E+00
   Multipole                     :  0.911973E-01  0.229769E-02 -0.701550E-01
   Pulay + GGA                   : -0.668121E-01  0.342190E-01  0.726182E-01
   Van der Waals                 : -0.994176E-03  0.330220E-02 -0.960815E-03
   ----------------------------------------------------------------
   Total forces(  12)            : -0.202252E-02  0.443898E-02 -0.330782E-02

  Timings for VdW correction (Tkatchenko-Scheffler 2009 or later):
  | CPU time:        0.040 s, Wall clock time:        0.042 s.
  Removing unitary transformations (pure translations, rotations) from forces on atoms.
  Atomic forces before filtering:
  | Net force on center of mass :   0.152993E-08 -0.430749E-09  0.116677E-02 eV/A
  | Net torque on center of mass:   0.910517E-10 -0.793515E-09 -0.445161E-02 eV
  Atomic forces after filtering:
  | Net force on center of mass :   0.348449E-18  0.696899E-18 -0.278760E-17 eV/A
  | Net torque on center of mass:  -0.737566E-18  0.295026E-17 -0.472503E-17 eV

  Energy and forces in a compact form:
  | Total energy uncorrected      :         -0.427387804606510E+04 eV
  | Total energy corrected        :         -0.427387804606510E+04 eV  <-- do not rely on this value for anything but (periodic) metals
  | Electronic free energy        :         -0.427387804606510E+04 eV
  Total atomic forces (unitary forces cleaned) [eV/Ang]:
  |   1         -0.229005530396947E-03         -0.223945722918737E-03          0.568831621601314E-04
  |   2         -0.375351275619208E-03          0.177362821220968E-03          0.564921826550266E-04
  |   3          0.375351416590995E-03         -0.177363206019766E-03          0.564909889388003E-04
  |   4          0.229005484607863E-03          0.223945767809164E-03          0.568827728971712E-04
  |   5         -0.540770582551411E-03         -0.446858206872926E-03          0.635669396524549E-02
  |   6          0.202679981364833E-02         -0.466687149417612E-02         -0.340504822432569E-02
  |   7         -0.280770801395328E-02          0.508867417782240E-02         -0.290224239204163E-02
  |   8         -0.404230967088184E-03         -0.235148251033773E-03         -0.162775964254739E-03
  |   9          0.404231287449990E-03          0.235147880916267E-03         -0.162779543387899E-03
  |  10          0.540770668447628E-03          0.446857506244274E-03          0.635669180006417E-02
  |  11          0.280770627137995E-02         -0.508867225626229E-02         -0.290224225185115E-02
  |  12         -0.202679857251573E-02          0.466687098327054E-02         -0.340504649609969E-02

  ------------------------------------ 
  Start decomposition of the XC Energy 
  ------------------------------------ 
  X and C from original XC functional choice 
  Hartree-Fock Energy :          0.000000000 Ha              0.000000000 eV
  X Energy            :        -23.396948604 Ha           -636.663364583 eV
  C Energy            :         -1.015994886 Ha            -27.646627487 eV
  Total XC Energy     :        -24.412943490 Ha           -664.309992071 eV
  ------------------------------------ 
  LDA X and C from self-consistent density 
  X Energy LDA        :        -21.149975315 Ha           -575.520110449 eV
  C Energy LDA        :         -1.974406796 Ha            -53.726342488 eV
  ------------------------------------ 
  End decomposition of the XC Energy 
  ------------------------------------ 

------------------------------------------------------------

------------------------------------------------------------------------------
  Final output of selected total energy values:

  The following output summarizes some interesting total energy values
  at the end of a run (AFTER all relaxation, molecular dynamics, etc.).

  | Total energy of the DFT / Hartree-Fock s.c.f. calculation      :          -4273.878046065 eV
  | Final zero-broadening corrected energy (caution - metals only) :          -4273.878046065 eV
  | For reference only, the value of 1 Hartree used in FHI-aims is :             27.211384500 eV

  Before relying on these values, please be sure to understand exactly which
  total energy value is referred to by a given number. Different objects may
  all carry the same name 'total energy'. Definitions:

  Total energy of the DFT / Hartree-Fock s.c.f. calculation:
  | Note that this energy does not include ANY quantities calculated after the
  | s.c.f. cycle, in particular not ANY RPA, MP2, etc. many-body perturbation terms.

  Final zero-broadening corrected energy:
  | For metallic systems only, a broadening of the occupation numbers at the Fermi
  | level can be extrapolated back to zero broadening by an electron-gas inspired
  | formula. For all systems that are not real metals, this value can be
  | meaningless and should be avoided.

------------------------------------------------------------------------------
  Methods described in the following list of references were used in this FHI-aims run.
  If you publish the results, please make sure to cite these reference if they apply.
  FHI-aims is an academic code, and for our developers (often, Ph.D. students
  and postdocs), scientific credit in the community is essential.
  Thank you for helping us!

  For any use of FHI-aims, please cite:

    Volker Blum, Ralf Gehrke, Felix Hanke, Paula Havu, Ville Havu,
    Xinguo Ren, Karsten Reuter, and Matthias Scheffler
    'Ab initio molecular simulations with numeric atom-centered orbitals'
    Computer Physics Communications 180, 2175-2196 (2009)
    http://dx.doi.org/10.1016/j.cpc.2009.06.022


  For the real-space grid partitioning and parallelization used in this calculation, please cite:

    Ville Havu, Volker Blum, Paula Havu, and Matthias Scheffler,
    'Efficient O(N) integration for all-electron electronic structure calculation'
    'using numerically tabulated basis functions'
    Journal of Computational Physics 228, 8367-8379 (2009).
    http://dx.doi.org/10.1016/j.jcp.2009.08.008

  Of course, there are many other important community references, e.g., those cited in the
  above references. Our list is limited to references that describe implementations in the
  FHI-aims code. The reason is purely practical (length of this list) - please credit others as well.

------------------------------------------------------------
          Leaving FHI-aims.
          Date     :  20180215, Time     :  214230.478

          Computational steps:
          | Number of self-consistency cycles          :           14
          | Number of SCF (re)initializations          :            1

          Detailed time accounting                     :  max(cpu_time)    wall_clock(cpu1)
          | Total time                                 :        8.832 s           8.846 s
          | Preparation time                           :        0.128 s           0.129 s
          | Boundary condition initalization           :        0.004 s           0.001 s
          | Grid partitioning                          :        0.064 s           0.062 s
          | Preloading free-atom quantities on grid    :        0.004 s           0.003 s
          | Free-atom superposition energy             :        0.024 s           0.022 s
          | Total time for integrations                :        2.652 s           2.636 s
          | Total time for solution of K.-S. equations :        0.064 s           0.043 s
          | Total time for density & force components  :        2.712 s           2.685 s
          | Total time for mixing                      :        0.156 s           0.134 s
          | Total time for Hartree multipole update    :        0.168 s           0.139 s
          | Total time for Hartree multipole sum       :        2.820 s           2.812 s
          | Total time for total energy evaluation     :        0.008 s           0.016 s
          | Total time for vdW correction              :        0.040 s           0.042 s

          Partial memory accounting:
          | Residual value for overall tracked memory usage across tasks :           0.000 MB (should be 0.000 MB)
          | Peak values for overall tracked memory usage (after allocating hessian_basis_wave):
          |   Minimum:        1.785 MB (on task 1)
          |   Maximum:        1.785 MB (on task 1)
          |   Average:        1.785 MB
          | Largest tracked array allocation (hessian_basis_wave):
          |   Minimum:        0.876 MB (on task 1)
          |   Maximum:        0.876 MB (on task 1)
          |   Average:        0.876 MB
          Note:  These values currently only include a subset of arrays which are explicitly tracked.
          The "true" memory usage will be greater.

          Have a nice day.
------------------------------------------------------------
