  MPI-parallelism will be employed.
------------------------------------------------------------
          Invoking FHI-aims ...
          Version 180101-
          Git rev. (modified): fa29f3a Merge branch master of fhiaims.rzberlin.mp[...]
          Compiled on 2018/01/19 at 14:47:46 on host theobook132.

          When using FHI-aims, please cite the following reference:

          Volker Blum, Ralf Gehrke, Felix Hanke, Paula Havu,
          Ville Havu, Xinguo Ren, Karsten Reuter, and Matthias Scheffler,
          'Ab Initio Molecular Simulations with Numeric Atom-Centered Orbitals',
          Computer Physics Communications 180, 2175-2196 (2009)

          For any questions about FHI-aims, please visit the aimsclub website
          with its forums and wiki. Contributions to both the forums and the
          wiki are warmly encouraged - they are for you, and everyone is welcome there.

------------------------------------------------------------



  Date     :  20180215, Time     :  214454.520
  Time zero on CPU 1             :   0.600000000000000E-01  s.
  Internal wall clock time zero  :           287963094.520  s.

  FHI-aims created a unique identifier for this run for later identification
  aims_uuid : 7DC371A6-4824-4332-AD34-042D072D94C7

  Using        8 parallel tasks.
  Task        0 on host theobook132 reporting.
  Task        1 on host theobook132 reporting.
  Task        2 on host theobook132 reporting.
  Task        3 on host theobook132 reporting.
  Task        4 on host theobook132 reporting.
  Task        5 on host theobook132 reporting.
  Task        6 on host theobook132 reporting.
  Task        7 on host theobook132 reporting.

  Performing system and environment tests:
  *** Environment variable OMP_NUM_THREADS is not set
  *** For performance reasons you might want to set it to 1
  | Stacksize not measured: no C compiler
  | Checking for scalapack...
  | No scalapack compiled in.

  Obtaining array dimensions for all initial allocations:
  
  -----------------------------------------------------------------------
  Parsing control.in (first pass over file, find array dimensions only).
  The contents of control.in will be repeated verbatim below
  unless switched off by setting 'verbatim_writeout .false.' .
  in the first line of control.in .
  -----------------------------------------------------------------------
  
  ################################################################################
  #
  #		Control.in generated by mkcontrol
  #
  ################################################################################
  xc			pbe
  vdw_correction_hirshfeld
  relativistic		none
  sc_accuracy_rho		1E-5
  sc_accuracy_eev		1E-3
  sc_accuracy_etot	1E-6
  sc_iter_limit		1000	
  
  compute_forces .true.
  final_forces_cleaned .true.
  
  ################################################################################
  #
  #  FHI-aims code project
  #  VB, Fritz-Haber Institut, 2009
  #
  #  Suggested "light" defaults for H atom (to be pasted into control.in file)
  #  Be sure to double-check any results obtained with these settings for post-processing,
  #  e.g., with the "tight" defaults and larger basis sets.
  #
  ################################################################################
    species        H
  #     global species definitions
      nucleus             1
      mass                1.00794
  #
      l_hartree           4
  #
      cut_pot             3.5  1.5  1.0
      basis_dep_cutoff    1e-4
  #
      radial_base         24 5.0
      radial_multiplier   1
      angular_grids       specified
        division   0.2421   50
        division   0.3822  110
        division   0.4799  194
        division   0.5341  302
  #      division   0.5626  434
  #      division   0.5922  590
  #      division   0.6542  770
  #      division   0.6868 1202
  #      outer_grid  770
        outer_grid  302
  ################################################################################
  #
  #  Definition of "minimal" basis
  #
  ################################################################################
  #     valence basis states
      valence      1  s   1.
  #     ion occupancy
      ion_occ      1  s   0.5
  ################################################################################
  #
  #  Suggested additional basis functions. For production calculations,
  #  uncomment them one after another (the most important basis functions are
  #  listed first).
  #
  #  Basis constructed for dimers: 0.5 A, 0.7 A, 1.0 A, 1.5 A, 2.5 A
  #
  ################################################################################
  #  "First tier" - improvements: -1014.90 meV to -62.69 meV
       hydro 2 s 2.1
       hydro 2 p 3.5
  #  "Second tier" - improvements: -12.89 meV to -1.83 meV
  #     hydro 1 s 0.85
  #     hydro 2 p 3.7
  #     hydro 2 s 1.2
  #     hydro 3 d 7
  #  "Third tier" - improvements: -0.25 meV to -0.12 meV
  #     hydro 4 f 11.2
  #     hydro 3 p 4.8
  #     hydro 4 d 9
  #     hydro 3 s 3.2
  
  ################################################################################
  #
  #  FHI-aims code project
  #  VB, Fritz-Haber Institut, 2009
  #
  #  Suggested "light" defaults for C atom (to be pasted into control.in file)
  #  Be sure to double-check any results obtained with these settings forpost-processing,
  #  e.g., with the "tight" defaults and larger basis sets.
  #
  ################################################################################
    species        C
  #     global species definitions
      nucleus             6
      mass                12.0107
  #
      l_hartree           4
  #
      cut_pot             3.5  1.5  1.0
      basis_dep_cutoff    1e-4
  #
      radial_base         34 5.0
      radial_multiplier   1
      angular_grids specified
        division   0.3326   50
        division   0.5710  110
        division   0.7727  194
        division   0.8772  302
  #      division   0.9334  434
  #      division   0.9625  590
  #      division   0.9924  770
  #      division   1.0230  974
  #      division   1.4589 1202
  #     outer_grid  974
       outer_grid 302
  ################################################################################
  #
  #  Definition of "minimal" basis
  #
  ################################################################################
  #     valence basis states
      valence      2  s   2.
      valence      2  p   2.
  #     ion occupancy
      ion_occ      2  s   1.
      ion_occ      2  p   1.
  ################################################################################
  #
  #  Suggested additional basis functions. For production calculations,
  #  uncomment them one after another (the most important basis functions are
  #  listed first).
  #
  #  Constructed for dimers: 1.0 A, 1.25 A, 1.5 A, 2.0 A, 3.0 A
  #
  ################################################################################
  #  "First tier" - improvements: -1214.57 meV to -155.61 meV
       hydro 2 p 1.7
       hydro 3 d 6
       hydro 2 s 4.9
  #  "Second tier" - improvements: -67.75 meV to -5.23 meV
  #     hydro 4 f 9.8
  #     hydro 3 p 5.2
  #     hydro 3 s 4.3
  #     hydro 5 g 14.4
  #     hydro 3 d 6.2
  #  "Third tier" - improvements: -2.43 meV to -0.60 meV
  #     hydro 2 p 5.6
  #     hydro 2 s 1.4
  #     hydro 3 d 4.9
  #     hydro 4 f 11.2
  #  "Fourth tier" - improvements: -0.39 meV to -0.18 meV
  #     hydro 2 p 2.1
  #     hydro 5 g 16.4
  #     hydro 4 d 13.2
  #     hydro 3 s 13.6
  #     hydro 4 f 17.6
  #  Further basis functions - improvements: -0.08 meV and below
  #     hydro 3 s 2
  #     hydro 3 p 6
  #     hydro 4 d 20
  
  -----------------------------------------------------------------------
  Completed first pass over input file control.in .
  -----------------------------------------------------------------------
  
  
  -----------------------------------------------------------------------
  Parsing geometry.in (first pass over file, find array dimensions only).
  The contents of geometry.in will be repeated verbatim below
  unless switched off by setting 'verbatim_writeout .false.' .
  in the first line of geometry.in .
  -----------------------------------------------------------------------
  
  #=======================================#
  # iterations/iteration0037/aims-chain-node-0.69205/geometry.in
  #=======================================#
  atom -1.1452332380297043 -1.1028228917487213 -0.4037306340730847 C
  atom -0.4854050239996017 -0.4642565175730862 0.7830124203111740 C
  atom 0.4854050139249633 0.4642565305725212 0.7830124189152737 C
  atom 1.1452332419776625 1.1028228865611245 -0.4037306376786763 C
  atom -0.6813625257270607 -0.8202923316885222 -1.3575549817156376 H
  atom -2.2126878472994571 -0.8321885090900276 -0.4553381816976412 H
  atom -1.1065475331669175 -2.2007986012728749 -0.3248539965388371 H
  atom -0.8485564183774346 -0.8055875531091102 1.7584653840065929 H
  atom 0.8485563992422971 0.8055875783876378 1.7584653816605311 H
  atom 0.6813625148442015 0.8202923443101906 -1.3575549834162839 H
  atom 1.1065475747538727 2.2007985969083825 -0.3248539967606889 H
  atom 2.2126878418571887 0.8321884677424820 -0.4553381930127290 H
  
  -----------------------------------------------------------------------
  Completed first pass over input file geometry.in .
  -----------------------------------------------------------------------
  

  Basic array size parameters:
  | Number of species                 :        2
  | Number of atoms                   :       12
  | Max. basis fn. angular momentum   :        2
  | Max. atomic/ionic basis occupied n:        2
  | Max. number of basis fn. types    :        2
  | Max. radial fns per species/type  :        3
  | Max. logarithmic grid size        :     1277
  | Max. radial integration grid size :       34
  | Max. angular integration grid size:      302
  | Max. angular grid division number :        8
  | Radial grid for Hartree potential :     1277
  | Number of spin channels           :        1

------------------------------------------------------------
          Reading file control.in.
------------------------------------------------------------
  XC: Using PBE gradient-corrected functionals.
  Non-relativistic treatment of kinetic energy.
  Convergence accuracy of self-consistent charge density:  0.1000E-04
  Convergence accuracy of sum of eigenvalues:  0.1000E-02
  Convergence accuracy of total energy:  0.1000E-05
  Maximum number of s.-c. iterations  :  1000
  Forces will be computed.
  Cleaning forces before final output.
 
  Reading configuration options for species H                   .
  | Found nuclear charge :   1.0000
  | Found atomic mass :    1.00794000000000      amu
  | Found l_max for Hartree potential  :   4
  | Found cutoff potl. onset [A], width [A], scale factor :    3.50000    1.50000    1.00000
  | Threshold for basis-dependent cutoff potential is   0.100000E-03
  | Found data for basic radial integration grid :    24 points, outermost radius =    5.000 A
  | Found multiplier for basic radial grid :   1
  | Found angular grid specification: user-specified.
  | Specified grid contains     5 separate shells.
  | Check grid settings after all constraints further below.
  | Found free-atom valence shell :  1 s   1.000
  | No ionic wave fns used. Skipping ion_occ.
  | Found hydrogenic basis function :  2 s   2.100
  | Found hydrogenic basis function :  2 p   3.500
  Species H                   : Missing cutoff potential type.
  Defaulting to exp(1/x)/(1-x)^2 type cutoff potential.
  Species H : No 'logarithmic' tag. Using default grid for free atom:
  | Default logarithmic grid data [bohr] : 0.1000E-03 0.1000E+03 0.1012E+01
  Species H : On-site basis accuracy parameter (for Gram-Schmidt orthonormalisation) not specified.
  Using default value basis_acc =  0.1000000E-03.
  Species H                   : Using default innermost maximum threshold i_radial=  2 for radial functions.
  Species H                   : Default cutoff onset for free atom density etc. : 0.35000000E+01 AA.
  Species H                   : Basic radial grid will be enhanced according to radial_multiplier =   1, to contain    24 grid points.
 
  Reading configuration options for species C                   .
  | Found nuclear charge :   6.0000
  | Found atomic mass :    12.0107000000000      amu
  | Found l_max for Hartree potential  :   4
  | Found cutoff potl. onset [A], width [A], scale factor :    3.50000    1.50000    1.00000
  | Threshold for basis-dependent cutoff potential is   0.100000E-03
  | Found data for basic radial integration grid :    34 points, outermost radius =    5.000 A
  | Found multiplier for basic radial grid :   1
  | Found angular grid specification: user-specified.
  | Specified grid contains     5 separate shells.
  | Check grid settings after all constraints further below.
  | Found free-atom valence shell :  2 s   2.000
  | Found free-atom valence shell :  2 p   2.000
  | No ionic wave fns used. Skipping ion_occ.
  | No ionic wave fns used. Skipping ion_occ.
  | Found hydrogenic basis function :  2 p   1.700
  | Found hydrogenic basis function :  3 d   6.000
  | Found hydrogenic basis function :  2 s   4.900
  Species C                   : Missing cutoff potential type.
  Defaulting to exp(1/x)/(1-x)^2 type cutoff potential.
  Species C : No 'logarithmic' tag. Using default grid for free atom:
  | Default logarithmic grid data [bohr] : 0.1000E-03 0.1000E+03 0.1012E+01
  Species C : On-site basis accuracy parameter (for Gram-Schmidt orthonormalisation) not specified.
  Using default value basis_acc =  0.1000000E-03.
  Species C                   : Using default innermost maximum threshold i_radial=  2 for radial functions.
  Species C                   : Default cutoff onset for free atom density etc. : 0.35000000E+01 AA.
  Species C                   : Basic radial grid will be enhanced according to radial_multiplier =   1, to contain    34 grid points.
 
  Finished reading input file 'control.in'. Consistency checks are next.
 
  MPI_IN_PLACE appears to work with this MPI implementation.
  | Keeping use_mpi_in_place .true. (see manual).
  Target number of points in a grid batch is not set. Defaulting to  100
  Method for grid partitioning is not set. Defaulting to parallel hash+maxmin partitioning.
  Batch size limit is not set. Defaulting to    200
  By default, will store active basis functions for each batch.
  If in need of memory, prune_basis_once .false. can be used to disable this option.
  communication_type for Hartree potential was not specified.
  Defaulting to calc_hartree .
  Defaulting to Pulay charge density mixer.
  Pulay mixer: Number of relevant iterations not set.
  Defaulting to    8 iterations.
  Pulay mixer: Number of initial linear mixing iterations not set.
  Defaulting to    0 iterations.
  Work space size for distributed Hartree potential not set.
  Defaulting to   0.200000E+03 MB.
  Mixing parameter for charge density mixing has not been set.
  Using default: charge_mix_param =     0.0500.
  The mixing parameter will be adjusted in iteration number     2 of the first full s.c.f. cycle only.
  Algorithm-dependent basis array size parameters:
  | n_max_pulay                         :        8
  Presetting        40 iterations before the initial mixing cycle
  is restarted anyway using the sc_init_iter criterion / keyword.
  Presetting a factor      1.000 between actual scf density residual
  and density convergence criterion sc_accuracy_rho below which sc_init_iter
  takes no effect.
  Geometry relaxation not requested: no relaxation will be performed.
  Force calculation: scf convergence accuracy of forces not set.
  Defaulting to 'sc_accuracy_forces not_checked'.
  Handling of forces: Unphysical translation and rotation will be removed from forces.
  No accuracy limit for integral partition fn. given. Defaulting to  0.1000E-14.
  No threshold value for u(r) in integrations given. Defaulting to  0.1000E-05.
  No occupation type (smearing scheme) given. Defaulting to Gaussian broadening, width =  0.1000E-01 eV.
  The width will be adjusted in iteration number     2 of the first full s.c.f. cycle only.
  S.C.F. convergence parameters will be adjusted in iteration number     2 of the first full s.c.f. cycle only.
  No accuracy for occupation numbers given. Defaulting to  0.1000E-12.
  No threshold value for occupation numbers given. Defaulting to  0.0000E+00.
  No accuracy for fermi level given. Defaulting to  0.1000E-19.
  Maximum # of iterations to find E_F not set. Defaulting to  200.
  Preferred method for the eigenvalue solver ('KS_method') not specified in 'control.in'.
  Calling BLACS routine to test compilation state
  The best choice would be 'elsi', but your version of FHI-aims is compiled without ScaLAPACK support.
  Defaulting to 'lapack_fast' instead (serial solution, time will not improve with more CPUs).
  Will not use alltoall communication since running on < 1024 CPUs.
  Threshold for basis singularities not set.
  Default threshold for basis singularities:  0.1000E-04
  partition_type (choice of integration weights) for integrals was not specified.
  | Using a version of the partition function of Stratmann and coworkers ('stratmann_smoother').
  | At each grid point, the set of atoms used to build the partition table is smoothly restricted to
  | only those atoms whose free-atom density would be non-zero at that grid point.
  Partitioning for Hartree potential was not defined. Using partition_type for integrals.
  | Adjusted default value of keyword multip_moments_threshold to:       0.10000000E-11
  | This value may affect high angular momentum components of the Hartree potential in periodic systems.
  Spin handling was not defined in control.in. Defaulting to unpolarized case.
  No q(lm)/r^(l+1) cutoff set for long-range Hartree potential.
  | Using default value of  0.100000E-09 .
  | Verify using the multipole_threshold keyword.
  Defaulting to new monopole extrapolation.
  Density update method: automatic selection selected.
------------------------------------------------------------


------------------------------------------------------------
          Reading geometry description geometry.in.
------------------------------------------------------------
  Input structure read successfully.
  The structure contains       12 atoms,  and a total of         32.000 electrons.

  Input geometry:
  | No unit cell requested.
  | Atomic structure:
  |       Atom                x [A]            y [A]            z [A]
  |    1: Species C            -1.14523324       -1.10282289       -0.40373063
  |    2: Species C            -0.48540502       -0.46425652        0.78301242
  |    3: Species C             0.48540501        0.46425653        0.78301242
  |    4: Species C             1.14523324        1.10282289       -0.40373064
  |    5: Species H            -0.68136253       -0.82029233       -1.35755498
  |    6: Species H            -2.21268785       -0.83218851       -0.45533818
  |    7: Species H            -1.10654753       -2.20079860       -0.32485400
  |    8: Species H            -0.84855642       -0.80558755        1.75846538
  |    9: Species H             0.84855640        0.80558758        1.75846538
  |   10: Species H             0.68136251        0.82029234       -1.35755498
  |   11: Species H             1.10654757        2.20079860       -0.32485400
  |   12: Species H             2.21268784        0.83218847       -0.45533819
  |

  | The smallest distance between any two atoms is         1.09539687 AA.
  |
  | The first atom of this pair is atom number                      3 .
  | The second atom of this pair is atom number                     9 .

  Number of empty states per atom not set in control.in - providing a guess from actual geometry.
  | Total number of empty states used during s.c.f. cycle:       24
  If you use a very high smearing, use empty_states (per atom!) in control.in to increase this value.

  Structure-dependent array size parameters: 
  | Maximum number of distinct radial functions  :        9
  | Maximum number of basis functions            :       96
  | Number of Kohn-Sham states (occupied + empty):       40
------------------------------------------------------------

------------------------------------------------------------
          Preparing all fixed parts of the calculation.
------------------------------------------------------------
  Determining machine precision:
    2.225073858507201E-308
  Setting up grids for atomic and cluster calculations.

  Creating wave function, potential, and density for free atoms.

  Species: H

  List of occupied orbitals and eigenvalues:
    n    l              occ      energy [Ha]    energy [eV]
    1    0           1.0000        -0.237589        -6.4651


  Species: C

  List of occupied orbitals and eigenvalues:
    n    l              occ      energy [Ha]    energy [eV]
    1    0           2.0000       -10.038835      -273.1706
    2    0           2.0000        -0.502696       -13.6791
    2    1           2.0000        -0.191971        -5.2238

  Creating fixed part of basis set: Ionic, confined, hydrogenic.
 
  H                    hydrogenic:
 
  List of hydrogenic basis orbitals: 
    n    l      effective z      eigenvalue [eV]  inner max. [A]     outer max. [A]     outer radius [A]   
    2    0         2.100000       -14.9728           0.193243           1.317208           4.583499
    2    1         3.500000       -41.6669           0.602369           0.602369           3.723403
 
 
  C                    hydrogenic:
 
  List of hydrogenic basis orbitals: 
    n    l      effective z      eigenvalue [eV]  inner max. [A]     outer max. [A]     outer radius [A]   
    2    1         1.700000        -9.7616           1.230570           1.230570           4.607917
    3    2         6.000000       -54.4224           0.792453           0.792453           3.883070
    2    0         4.900000       -81.6679           0.082559           0.562749           3.078220
 

  Adding cutoff potential to free-atom effective potential.
  Creating atomic-like basis functions for current effective potential.

  Species H                   :

  List of atomic basis orbitals and eigenvalues:
    n    l      energy [Ha]    energy [eV]    outer radius [A]
    1    0        -0.237589        -6.4651       4.527807


  Species C                   :

  List of atomic basis orbitals and eigenvalues:
    n    l      energy [Ha]    energy [eV]    outer radius [A]
    1    0       -10.038835      -273.1706       1.934409
    2    0        -0.502696       -13.6791       4.496620
    2    1        -0.191971        -5.2238       4.551928

  Assembling full basis from fixed parts.
  | Species H :   atomic orbital   1 s accepted.
  | Species H :    hydro orbital   2 s accepted.
  | Species H :    hydro orbital   2 p accepted.
  | Species C :   atomic orbital   1 s accepted.
  | Species C :    hydro orbital   2 s accepted.
  | Species C :   atomic orbital   2 s accepted.
  | Species C :   atomic orbital   2 p accepted.
  | Species C :    hydro orbital   2 p accepted.
  | Species C :    hydro orbital   3 d accepted.
 
  Basis size parameters after reduction:
  | Total number of radial functions:        9
  | Total number of basis functions :       96
 
  Per-task memory consumption for arrays in subroutine allocate_ext:
  |           2.209696MB.
  Testing on-site integration grid accuracy.
  |  Species  Function  <phi|h_atom|phi> (log., in eV)  <phi|h_atom|phi> (rad., in eV)
           1        1                 -6.4663192853                 -6.4651273558
           1        2                 13.7111246313                 13.7170609718
           1        3                 25.2673269279                 25.2674696378
           2        4               -273.1705927641               -273.1705631568
           2        5                -10.7109323383                -10.7107120029
           2        6                 17.4381822266                 17.4352413244
           2        7                 -5.2255326521                 -5.2270484734
           2        8                  8.6835629259                  8.6603288385
           2        9                 27.4952418996                 27.4953360207

  Preparing densities etc. for the partition functions (integrals / Hartree potential).

  Preparations completed.
  max(cpu_time)          :      0.128 s.
  Wall clock time (cpu1) :      0.132 s.
------------------------------------------------------------

------------------------------------------------------------
          Begin self-consistency loop: Initialization.

          Date     :  20180215, Time     :  214454.675
------------------------------------------------------------

  Initializing index lists of integration centers etc. from given atomic structure:
  | Number of centers in hartree potential         :        12
  | Number of centers in hartree multipole         :        12
  | Number of centers in electron density summation:        12
  | Number of centers in basis integrals           :        12
  | Number of centers in integrals                 :        12
  | Number of centers in hamiltonian               :        12
  Partitioning the integration grid into batches with parallel hashing+maxmin method.
  | Number of batches:      863
  | Maximal batch size:     144
  | Minimal batch size:      51
  | Average batch size:      70.619
  | Standard deviation of batch sizes:      22.398

  Integration load balanced across     8 MPI tasks.
  Work distribution over tasks is as follows:
  Task     0 has       7571 integration points.
  Task     1 has       7682 integration points.
  Task     2 has       7595 integration points.
  Task     3 has       7612 integration points.
  Task     4 has       7593 integration points.
  Task     5 has       7590 integration points.
  Task     6 has       7593 integration points.
  Task     7 has       7708 integration points.
  Initializing partition tables, free-atom densities, potentials, etc. across the integration grid (initialize_grid_storage).
  | initialize_grid_storage: Actual outermost partition radius vs. multipole_radius_free
  | (-- VB: in principle, multipole_radius_free should be larger, hence this output)
  | Species        1: Confinement radius =              4.999999999999999 AA, multipole_radius_free =              5.054417573612229 AA.
  | Species        1: outer_partition_radius set to              5.054417573612229 AA .
  | Species        2: Confinement radius =              4.999999999999999 AA, multipole_radius_free =              5.019602836301480 AA.
  | Species        2: outer_partition_radius set to              5.019602836301480 AA .
  | Original list of interatomic distances with          12 x         12 entries is created.
  | Net number of integration points:    60944
  | of which are non-zero points    :    52350
  Renormalizing the initial density to the exact electron count on the 3D integration grid.
  | Initial density: Formal number of electrons (from input files) :      32.0000000000
  | Integrated number of electrons on 3D grid     :      31.9998940272
  | Charge integration error                      :      -0.0001059728
  | Normalization factor for density and gradient :       1.0000033117
  Obtaining max. number of non-zero basis functions in each batch (get_n_compute_maxes).
  | Maximal number of non-zero basis functions:       96 in task     0
  | Maximal number of non-zero basis functions:       96 in task     1
  | Maximal number of non-zero basis functions:       96 in task     2
  | Maximal number of non-zero basis functions:       96 in task     3
  | Maximal number of non-zero basis functions:       96 in task     4
  | Maximal number of non-zero basis functions:       96 in task     5
  | Maximal number of non-zero basis functions:       96 in task     6
  | Maximal number of non-zero basis functions:       96 in task     7
  Selecting the method for density update.
  Loop over occupied states selected for charge density update.
  Allocating        0.031 MB for KS_eigenvector
  Integrating Hamiltonian matrix: batch-based integration.
  Time summed over all CPUs for integration: real work        1.448 s, elapsed        1.568 s
  Integrating overlap matrix.
  Time summed over all CPUs for integration: real work        0.527 s, elapsed        0.557 s

  Updating Kohn-Sham eigenvalues, eigenvectors, occupation numbers, and Fermi level.
  Solving generalized eigenproblem
  Updating Kohn-Sham eigenvalues and eigenfunctions.
  Transforming overlap matrix and checking for singularities.
  Overlap matrix is nonsingular:
  | Lowest eigenvalue:  0.307532E-02
  Solving real generalised eigenvalue problem by standard LAPACK (fast)

  Obtaining occupation numbers and chemical potential using ELSI.
  | Chemical potential (Fermi level):    -8.59880800eV
  Writing Kohn-Sham eigenvalues.

  State    Occupation    Eigenvalue [Ha]    Eigenvalue [eV]
      1       2.00000         -10.166725         -276.65067
      2       2.00000         -10.166725         -276.65067
      3       2.00000         -10.151211         -276.22851
      4       2.00000         -10.150574         -276.21116
      5       2.00000          -0.927318          -25.23361
      6       2.00000          -0.850774          -23.15074
      7       2.00000          -0.795354          -21.64269
      8       2.00000          -0.656396          -17.86145
      9       2.00000          -0.611597          -16.64241
     10       2.00000          -0.574022          -15.61995
     11       2.00000          -0.546996          -14.88453
     12       2.00000          -0.533571          -14.51921
     13       2.00000          -0.526156          -14.31744
     14       2.00000          -0.503145          -13.69128
     15       2.00000          -0.478806          -13.02896
     16       2.00000          -0.385644          -10.49390
     17       0.00000          -0.177230           -4.82268
     18       0.00000          -0.047730           -1.29880
     19       0.00000          -0.031849           -0.86667
     20       0.00000          -0.002675           -0.07280
     21       0.00000           0.003813            0.10376
     22       0.00000           0.015288            0.41602
     23       0.00000           0.026995            0.73458
     24       0.00000           0.027988            0.76159
     25       0.00000           0.036656            0.99746
     26       0.00000           0.056050            1.52519
     27       0.00000           0.132620            3.60879
     28       0.00000           0.166029            4.51788
     29       0.00000           0.189099            5.14563
     30       0.00000           0.204889            5.57532
     31       0.00000           0.238313            6.48483
     32       0.00000           0.275565            7.49851
     33       0.00000           0.277441            7.54955
     34       0.00000           0.300136            8.16712
     35       0.00000           0.305977            8.32606
     36       0.00000           0.314742            8.56456
     37       0.00000           0.404575           11.00904
     38       0.00000           0.447583           12.17935
     39       0.00000           0.510325           13.88665
     40       0.00000           0.518807           14.11745

  Highest occupied state (VBM) at    -10.49389652 eV
  | Occupation number:      2.00000000

  Lowest unoccupied state (CBM) at    -4.82267792 eV
  | Occupation number:      0.00000000

  Overall HOMO-LUMO gap:      5.67121859 eV.
  Calculating total energy contributions from superposition of free atom densities.

  Total energy components:
  | Sum of eigenvalues            :         -96.05003132 Ha       -2613.65433339 eV
  | XC energy correction          :         -23.66175039 Ha        -643.86898771 eV
  | XC potential correction       :          30.39586284 Ha         827.11351096 eV
  | Free-atom electrostatic energy:         -68.01024982 Ha       -1850.65305769 eV
  | Hartree energy correction     :           0.00000000 Ha           0.00000000 eV
  | vdW energy correction         :           0.00000000 Ha           0.00000000 eV
  | Entropy correction            :           0.00000000 Ha           0.00000000 eV
  | ---------------------------
  | Total energy                  :        -157.32616868 Ha       -4281.06286784 eV
  | Total energy, T -> 0          :        -157.32616868 Ha       -4281.06286784 eV  <-- do not rely on this value for anything but (periodic) metals
  | Electronic free energy        :        -157.32616868 Ha       -4281.06286784 eV

  Derived energy quantities:
  | Kinetic energy                :         154.19680493 Ha        4195.90854751 eV
  | Electrostatic energy          :        -287.86122322 Ha       -7833.10242764 eV
  | Energy correction for multipole
  | error in Hartree potential    :           0.00000000 Ha           0.00000000 eV
  | Sum of eigenvalues per atom                           :        -217.80452778 eV
  | Total energy (T->0) per atom                          :        -356.75523899 eV  <-- do not rely on this value for anything but (periodic) metals
  | Electronic free energy per atom                       :        -356.75523899 eV
  Initialize hartree_potential_storage
  Max. number of atoms included in rho_multipole:           12

  End scf initialization - timings             :  max(cpu_time)    wall_clock(cpu1)
  | Time for scf. initialization               :        0.532 s           0.532 s
  | Boundary condition initialization          :        0.000 s           0.003 s
  | Integration                                :        0.276 s           0.276 s
  | Solution of K.-S. eqns.                    :        0.012 s           0.011 s
  | Grid partitioning                          :        0.084 s           0.083 s
  | Preloading free-atom quantities on grid    :        0.004 s           0.006 s
  | Free-atom superposition energy             :        0.044 s           0.042 s
  | Total energy evaluation                    :        0.000 s           0.000 s

  Partial memory accounting:
  | Current value for overall tracked memory usage on task 0  :           0.179 MB
  | Peak value for overall tracked memory usage on task 0     :           0.513 MB after allocating wave
  | Largest tracked array allocation on task 0 so far         :           0.111 MB  when allocating H_times_psi
  Note:  These values currently only include a subset of arrays which are explicitly tracked.
  The "true" memory usage will be greater.
------------------------------------------------------------

------------------------------------------------------------
          Begin self-consistency iteration #    1

  Date     :  20180215, Time     :  214455.207
------------------------------------------------------------
  Evaluating new KS density.
  Integration grid: deviation in total charge (<rho> - N_e) =   3.552714E-14
  Pulay mixing of updated and previous charge densities.

  Evaluating partitioned Hartree potential by multipole expansion.
  | Analytical far-field extrapolation by fixed multipoles:
  | Hartree multipole sum: apparent total charge =  -0.136721E-03
  Summing up the Hartree potential.
  Time summed over all CPUs for potential: real work        1.339 s, elapsed        1.716 s
  | RMS charge density error from multipole expansion :   0.134824E-02

  Integrating Hamiltonian matrix: batch-based integration.
  Time summed over all CPUs for integration: real work        1.554 s, elapsed        1.918 s

  Updating Kohn-Sham eigenvalues, eigenvectors, occupation numbers, and Fermi level.
  Solving generalized eigenproblem
  Updating Kohn-Sham eigenvalues and eigenfunctions.
  Solving real generalised eigenvalue problem by standard LAPACK (fast)

  Obtaining occupation numbers and chemical potential using ELSI.
  | Chemical potential (Fermi level):    -8.19291011eV
  Writing Kohn-Sham eigenvalues.

  State    Occupation    Eigenvalue [Ha]    Eigenvalue [eV]
      1       2.00000         -10.131904         -275.70313
      2       2.00000         -10.131904         -275.70313
      3       2.00000         -10.121764         -275.42721
      4       2.00000         -10.121126         -275.40984
      5       2.00000          -0.907020          -24.68127
      6       2.00000          -0.831822          -22.63504
      7       2.00000          -0.776084          -21.11831
      8       2.00000          -0.639407          -17.39916
      9       2.00000          -0.594629          -16.18068
     10       2.00000          -0.553964          -15.07414
     11       2.00000          -0.530485          -14.43523
     12       2.00000          -0.517182          -14.07325
     13       2.00000          -0.508692          -13.84222
     14       2.00000          -0.486526          -13.23905
     15       2.00000          -0.461669          -12.56265
     16       2.00000          -0.368529          -10.02819
     17       0.00000          -0.160729           -4.37367
     18       0.00000          -0.038784           -1.05537
     19       0.00000          -0.022565           -0.61403
     20       0.00000           0.005954            0.16201
     21       0.00000           0.020307            0.55258
     22       0.00000           0.025164            0.68475
     23       0.00000           0.038171            1.03870
     24       0.00000           0.038373            1.04419
     25       0.00000           0.046855            1.27499
     26       0.00000           0.067140            1.82698
     27       0.00000           0.145633            3.96289
     28       0.00000           0.175893            4.78630
     29       0.00000           0.201210            5.47521
     30       0.00000           0.215274            5.85789
     31       0.00000           0.251850            6.85319
     32       0.00000           0.286796            7.80412
     33       0.00000           0.288150            7.84097
     34       0.00000           0.310492            8.44891
     35       0.00000           0.322194            8.76733
     36       0.00000           0.324598            8.83275
     37       0.00000           0.416170           11.32456
     38       0.00000           0.460164           12.52170
     39       0.00000           0.521130           14.18067
     40       0.00000           0.532036           14.47745

  Highest occupied state (VBM) at    -10.02819231 eV
  | Occupation number:      2.00000000

  Lowest unoccupied state (CBM) at    -4.37366605 eV
  | Occupation number:      0.00000000

  Overall HOMO-LUMO gap:      5.65452625 eV.

  Total energy components:
  | Sum of eigenvalues            :         -95.36541496 Ha       -2595.02497441 eV
  | XC energy correction          :         -23.72204836 Ha        -645.50977913 eV
  | XC potential correction       :          30.47400452 Ha         829.23985425 eV
  | Free-atom electrostatic energy:         -68.01024982 Ha       -1850.65305769 eV
  | Hartree energy correction     :          -0.65334304 Ha         -17.77836856 eV
  | vdW energy correction         :           0.00000000 Ha           0.00000000 eV
  | Entropy correction            :           0.00000000 Ha           0.00000000 eV
  | ---------------------------
  | Total energy                  :        -157.27705165 Ha       -4279.72632555 eV
  | Total energy, T -> 0          :        -157.27705165 Ha       -4279.72632555 eV  <-- do not rely on this value for anything but (periodic) metals
  | Electronic free energy        :        -157.27705165 Ha       -4279.72632555 eV

  Derived energy quantities:
  | Kinetic energy                :         154.52409279 Ha        4204.81450337 eV
  | Electrostatic energy          :        -288.07909608 Ha       -7839.03104979 eV
  | Energy correction for multipole
  | error in Hartree potential    :           0.00232951 Ha           0.06338912 eV
  | Sum of eigenvalues per atom                           :        -216.25208120 eV
  | Total energy (T->0) per atom                          :        -356.64386046 eV  <-- do not rely on this value for anything but (periodic) metals
  | Electronic free energy per atom                       :        -356.64386046 eV

  Self-consistency convergence accuracy:
  | Change of charge density      :  0.4878E+00
  | Change of sum of eigenvalues  :  0.1863E+02 eV
  | Change of total energy        :  0.1337E+01 eV

  End self-consistency iteration #     1       :  max(cpu_time)    wall_clock(cpu1)
  | Time for this iteration                    :        0.672 s           0.674 s
  | Charge density update                      :        0.184 s           0.186 s
  | Density mixing                             :        0.004 s           0.001 s
  | Hartree multipole update                   :        0.012 s           0.011 s
  | Hartree multipole summation                :        0.224 s           0.223 s
  | Integration                                :        0.252 s           0.248 s
  | Solution of K.-S. eqns.                    :        0.004 s           0.003 s
  | Total energy evaluation                    :        0.000 s           0.001 s

  Partial memory accounting:
  | Current value for overall tracked memory usage on task 0  :           0.179 MB
  | Peak value for overall tracked memory usage on task 0     :           0.622 MB after allocating gradient_basis_wave
  | Largest tracked array allocation on task 0 so far         :           0.332 MB  when allocating gradient_basis_wave
  Note:  These values currently only include a subset of arrays which are explicitly tracked.
  The "true" memory usage will be greater.
------------------------------------------------------------

------------------------------------------------------------
          Begin self-consistency iteration #    2

  Date     :  20180215, Time     :  214455.882
------------------------------------------------------------
  Evaluating new KS density.
  Integration grid: deviation in total charge (<rho> - N_e) =  -7.105427E-15
  Pulay mixing of updated and previous charge densities.

  Evaluating partitioned Hartree potential by multipole expansion.
  | Analytical far-field extrapolation by fixed multipoles:
  | Hartree multipole sum: apparent total charge =  -0.404687E-03
  Summing up the Hartree potential.
  Time summed over all CPUs for potential: real work        1.370 s, elapsed        1.550 s
  | RMS charge density error from multipole expansion :   0.132130E-01

  Integrating Hamiltonian matrix: batch-based integration.
  Time summed over all CPUs for integration: real work        1.400 s, elapsed        1.436 s

  Updating Kohn-Sham eigenvalues, eigenvectors, occupation numbers, and Fermi level.
  Solving generalized eigenproblem
  Updating Kohn-Sham eigenvalues and eigenfunctions.
  Solving real generalised eigenvalue problem by standard LAPACK (fast)

  Obtaining occupation numbers and chemical potential using ELSI.
  | Chemical potential (Fermi level):    -4.63963834eV
  Highest occupied state (VBM) at     -6.20683845 eV
  | Occupation number:      2.00000000

  Lowest unoccupied state (CBM) at    -0.71672233 eV
  | Occupation number:      0.00000000

  Overall HOMO-LUMO gap:      5.49011612 eV.

  Checking to see if s.c.f. parameters should be adjusted.
  The system likely has a gap. Increased the default Pulay mixing parameter (charge_mix_param). Value:   0.200000 .
  Kept the default occupation width. Value:   0.010000 eV.

  Total energy components:
  | Sum of eigenvalues            :         -89.67241715 Ha       -2440.11062207 eV
  | XC energy correction          :         -24.27515781 Ha        -660.56065290 eV
  | XC potential correction       :          31.19042403 Ha         848.73462101 eV
  | Free-atom electrostatic energy:         -68.01024982 Ha       -1850.65305769 eV
  | Hartree energy correction     :          -6.30878336 Ha        -171.67072975 eV
  | vdW energy correction         :           0.00000000 Ha           0.00000000 eV
  | Entropy correction            :           0.00000000 Ha           0.00000000 eV
  | ---------------------------
  | Total energy                  :        -157.07618410 Ha       -4274.26044140 eV
  | Total energy, T -> 0          :        -157.07618410 Ha       -4274.26044140 eV  <-- do not rely on this value for anything but (periodic) metals
  | Electronic free energy        :        -157.07618410 Ha       -4274.26044140 eV

  Derived energy quantities:
  | Kinetic energy                :         156.92937570 Ha        4270.26558156 eV
  | Electrostatic energy          :        -289.73040200 Ha       -7883.96537006 eV
  | Energy correction for multipole
  | error in Hartree potential    :           0.02200633 Ha           0.59882275 eV
  | Sum of eigenvalues per atom                           :        -203.34255184 eV
  | Total energy (T->0) per atom                          :        -356.18837012 eV  <-- do not rely on this value for anything but (periodic) metals
  | Electronic free energy per atom                       :        -356.18837012 eV

  Self-consistency convergence accuracy:
  | Change of charge density      :  0.4487E+00
  | Change of sum of eigenvalues  :  0.1549E+03 eV
  | Change of total energy        :  0.5466E+01 eV

  End self-consistency iteration #     2       :  max(cpu_time)    wall_clock(cpu1)
  | Time for this iteration                    :        0.644 s           0.645 s
  | Charge density update                      :        0.236 s           0.235 s
  | Density mixing                             :        0.004 s           0.003 s
  | Hartree multipole update                   :        0.016 s           0.015 s
  | Hartree multipole summation                :        0.204 s           0.202 s
  | Integration                                :        0.188 s           0.186 s
  | Solution of K.-S. eqns.                    :        0.004 s           0.002 s
  | Total energy evaluation                    :        0.000 s           0.001 s

  Partial memory accounting:
  | Current value for overall tracked memory usage on task 0  :           0.180 MB
  | Peak value for overall tracked memory usage on task 0     :           0.622 MB after allocating gradient_basis_wave
  | Largest tracked array allocation on task 0 so far         :           0.332 MB  when allocating gradient_basis_wave
  Note:  These values currently only include a subset of arrays which are explicitly tracked.
  The "true" memory usage will be greater.
------------------------------------------------------------

------------------------------------------------------------
          Begin self-consistency iteration #    3

  Date     :  20180215, Time     :  214456.528
------------------------------------------------------------
  Evaluating new KS density.
  Integration grid: deviation in total charge (<rho> - N_e) =  -7.105427E-15
  Pulay mixing of updated and previous charge densities.

  Evaluating partitioned Hartree potential by multipole expansion.
  | Analytical far-field extrapolation by fixed multipoles:
  | Hartree multipole sum: apparent total charge =  -0.392502E-03
  Summing up the Hartree potential.
  Time summed over all CPUs for potential: real work        1.299 s, elapsed        1.361 s
  | RMS charge density error from multipole expansion :   0.164284E-01

  Integrating Hamiltonian matrix: batch-based integration.
  Time summed over all CPUs for integration: real work        1.399 s, elapsed        1.536 s

  Updating Kohn-Sham eigenvalues, eigenvectors, occupation numbers, and Fermi level.
  Solving generalized eigenproblem
  Updating Kohn-Sham eigenvalues and eigenfunctions.
  Solving real generalised eigenvalue problem by standard LAPACK (fast)

  Obtaining occupation numbers and chemical potential using ELSI.
  | Chemical potential (Fermi level):    -5.10950789eV
  Highest occupied state (VBM) at     -6.85755467 eV
  | Occupation number:      2.00000000

  Lowest unoccupied state (CBM) at    -1.34544384 eV
  | Occupation number:      0.00000000

  Overall HOMO-LUMO gap:      5.51211084 eV.

  Total energy components:
  | Sum of eigenvalues            :         -90.62634813 Ha       -2466.06840480 eV
  | XC energy correction          :         -24.23300406 Ha        -659.41359099 eV
  | XC potential correction       :          31.13217169 Ha         847.14949420 eV
  | Free-atom electrostatic energy:         -68.01024982 Ha       -1850.65305769 eV
  | Hartree energy correction     :          -5.33298709 Ha        -145.11796233 eV
  | vdW energy correction         :           0.00000000 Ha           0.00000000 eV
  | Entropy correction            :           0.00000000 Ha           0.00000000 eV
  | ---------------------------
  | Total energy                  :        -157.07041741 Ha       -4274.10352161 eV
  | Total energy, T -> 0          :        -157.07041741 Ha       -4274.10352161 eV  <-- do not rely on this value for anything but (periodic) metals
  | Electronic free energy        :        -157.07041741 Ha       -4274.10352161 eV

  Derived energy quantities:
  | Kinetic energy                :         156.27931340 Ha        4252.57648641 eV
  | Electrostatic energy          :        -289.11672675 Ha       -7867.26641703 eV
  | Energy correction for multipole
  | error in Hartree potential    :           0.02656684 Ha           0.72292056 eV
  | Sum of eigenvalues per atom                           :        -205.50570040 eV
  | Total energy (T->0) per atom                          :        -356.17529347 eV  <-- do not rely on this value for anything but (periodic) metals
  | Electronic free energy per atom                       :        -356.17529347 eV

  Self-consistency convergence accuracy:
  | Change of charge density      :  0.2106E+00
  | Change of sum of eigenvalues  : -0.2596E+02 eV
  | Change of total energy        :  0.1569E+00 eV

  End self-consistency iteration #     3       :  max(cpu_time)    wall_clock(cpu1)
  | Time for this iteration                    :        0.604 s           0.604 s
  | Charge density update                      :        0.212 s           0.208 s
  | Density mixing                             :        0.004 s           0.005 s
  | Hartree multipole update                   :        0.012 s           0.011 s
  | Hartree multipole summation                :        0.180 s           0.177 s
  | Integration                                :        0.200 s           0.199 s
  | Solution of K.-S. eqns.                    :        0.004 s           0.002 s
  | Total energy evaluation                    :        0.004 s           0.000 s

  Partial memory accounting:
  | Current value for overall tracked memory usage on task 0  :           0.180 MB
  | Peak value for overall tracked memory usage on task 0     :           0.622 MB after allocating gradient_basis_wave
  | Largest tracked array allocation on task 0 so far         :           0.332 MB  when allocating gradient_basis_wave
  Note:  These values currently only include a subset of arrays which are explicitly tracked.
  The "true" memory usage will be greater.
------------------------------------------------------------

------------------------------------------------------------
          Begin self-consistency iteration #    4

  Date     :  20180215, Time     :  214457.132
------------------------------------------------------------
  Evaluating new KS density.
  Integration grid: deviation in total charge (<rho> - N_e) =  -1.065814E-14
  Pulay mixing of updated and previous charge densities.

  Evaluating partitioned Hartree potential by multipole expansion.
  | Analytical far-field extrapolation by fixed multipoles:
  | Hartree multipole sum: apparent total charge =  -0.467165E-03
  Summing up the Hartree potential.
  Time summed over all CPUs for potential: real work        1.283 s, elapsed        1.318 s
  | RMS charge density error from multipole expansion :   0.221590E-01

  Integrating Hamiltonian matrix: batch-based integration.
  Time summed over all CPUs for integration: real work        1.351 s, elapsed        1.387 s

  Updating Kohn-Sham eigenvalues, eigenvectors, occupation numbers, and Fermi level.
  Solving generalized eigenproblem
  Updating Kohn-Sham eigenvalues and eigenfunctions.
  Solving real generalised eigenvalue problem by standard LAPACK (fast)

  Obtaining occupation numbers and chemical potential using ELSI.
  | Chemical potential (Fermi level):    -4.39450068eV
  Highest occupied state (VBM) at     -6.20697360 eV
  | Occupation number:      2.00000000

  Lowest unoccupied state (CBM) at    -0.72742331 eV
  | Occupation number:      0.00000000

  Overall HOMO-LUMO gap:      5.47955029 eV.

  Total energy components:
  | Sum of eigenvalues            :         -89.71363811 Ha       -2441.23230160 eV
  | XC energy correction          :         -24.37132861 Ha        -663.17759362 eV
  | XC potential correction       :          31.30902420 Ha         851.96189579 eV
  | Free-atom electrostatic energy:         -68.01024982 Ha       -1850.65305769 eV
  | Hartree energy correction     :          -6.27370394 Ha        -170.71617018 eV
  | vdW energy correction         :           0.00000000 Ha           0.00000000 eV
  | Entropy correction            :           0.00000000 Ha           0.00000000 eV
  | ---------------------------
  | Total energy                  :        -157.05989628 Ha       -4273.81722730 eV
  | Total energy, T -> 0          :        -157.05989628 Ha       -4273.81722730 eV  <-- do not rely on this value for anything but (periodic) metals
  | Electronic free energy        :        -157.05989628 Ha       -4273.81722730 eV

  Derived energy quantities:
  | Kinetic energy                :         156.35575832 Ha        4254.65665834 eV
  | Electrostatic energy          :        -289.04432599 Ha       -7865.29629202 eV
  | Energy correction for multipole
  | error in Hartree potential    :           0.03427366 Ha           0.93263363 eV
  | Sum of eigenvalues per atom                           :        -203.43602513 eV
  | Total energy (T->0) per atom                          :        -356.15143561 eV  <-- do not rely on this value for anything but (periodic) metals
  | Electronic free energy per atom                       :        -356.15143561 eV

  Self-consistency convergence accuracy:
  | Change of charge density      :  0.1270E+00
  | Change of sum of eigenvalues  :  0.2484E+02 eV
  | Change of total energy        :  0.2863E+00 eV

  End self-consistency iteration #     4       :  max(cpu_time)    wall_clock(cpu1)
  | Time for this iteration                    :        0.548 s           0.547 s
  | Charge density update                      :        0.176 s           0.175 s
  | Density mixing                             :        0.008 s           0.006 s
  | Hartree multipole update                   :        0.012 s           0.011 s
  | Hartree multipole summation                :        0.172 s           0.171 s
  | Integration                                :        0.180 s           0.180 s
  | Solution of K.-S. eqns.                    :        0.004 s           0.003 s
  | Total energy evaluation                    :        0.000 s           0.001 s

  Partial memory accounting:
  | Current value for overall tracked memory usage on task 0  :           0.180 MB
  | Peak value for overall tracked memory usage on task 0     :           0.622 MB after allocating gradient_basis_wave
  | Largest tracked array allocation on task 0 so far         :           0.332 MB  when allocating gradient_basis_wave
  Note:  These values currently only include a subset of arrays which are explicitly tracked.
  The "true" memory usage will be greater.
------------------------------------------------------------

------------------------------------------------------------
          Begin self-consistency iteration #    5

  Date     :  20180215, Time     :  214457.680
------------------------------------------------------------
  Evaluating new KS density.
  Integration grid: deviation in total charge (<rho> - N_e) =   1.421085E-14
  Pulay mixing of updated and previous charge densities.

  Evaluating partitioned Hartree potential by multipole expansion.
  | Analytical far-field extrapolation by fixed multipoles:
  | Hartree multipole sum: apparent total charge =  -0.497698E-03
  Summing up the Hartree potential.
  Time summed over all CPUs for potential: real work        1.293 s, elapsed        1.363 s
  | RMS charge density error from multipole expansion :   0.228916E-01

  Integrating Hamiltonian matrix: batch-based integration.
  Time summed over all CPUs for integration: real work        1.379 s, elapsed        1.412 s

  Updating Kohn-Sham eigenvalues, eigenvectors, occupation numbers, and Fermi level.
  Solving generalized eigenproblem
  Updating Kohn-Sham eigenvalues and eigenfunctions.
  Solving real generalised eigenvalue problem by standard LAPACK (fast)

  Obtaining occupation numbers and chemical potential using ELSI.
  | Chemical potential (Fermi level):    -4.16949910eV
  Highest occupied state (VBM) at     -5.93839474 eV
  | Occupation number:      2.00000000

  Lowest unoccupied state (CBM) at    -0.46088172 eV
  | Occupation number:      0.00000000

  Overall HOMO-LUMO gap:      5.47751302 eV.

  Total energy components:
  | Sum of eigenvalues            :         -89.43377749 Ha       -2433.61690646 eV
  | XC energy correction          :         -24.39518208 Ha        -663.82667959 eV
  | XC potential correction       :          31.33997842 Ha         852.80420297 eV
  | Free-atom electrostatic energy:         -68.01024982 Ha       -1850.65305769 eV
  | Hartree energy correction     :          -6.55929278 Ha        -178.48743783 eV
  | vdW energy correction         :           0.00000000 Ha           0.00000000 eV
  | Entropy correction            :           0.00000000 Ha           0.00000000 eV
  | ---------------------------
  | Total energy                  :        -157.05852374 Ha       -4273.77987860 eV
  | Total energy, T -> 0          :        -157.05852374 Ha       -4273.77987860 eV  <-- do not rely on this value for anything but (periodic) metals
  | Electronic free energy        :        -157.05852374 Ha       -4273.77987860 eV

  Derived energy quantities:
  | Kinetic energy                :         156.32788752 Ha        4253.89825529 eV
  | Electrostatic energy          :        -288.99122918 Ha       -7863.85145431 eV
  | Energy correction for multipole
  | error in Hartree potential    :           0.03386915 Ha           0.92162650 eV
  | Sum of eigenvalues per atom                           :        -202.80140887 eV
  | Total energy (T->0) per atom                          :        -356.14832322 eV  <-- do not rely on this value for anything but (periodic) metals
  | Electronic free energy per atom                       :        -356.14832322 eV

  Self-consistency convergence accuracy:
  | Change of charge density      :  0.3402E-01
  | Change of sum of eigenvalues  :  0.7615E+01 eV
  | Change of total energy        :  0.3735E-01 eV

  End self-consistency iteration #     5       :  max(cpu_time)    wall_clock(cpu1)
  | Time for this iteration                    :        0.552 s           0.552 s
  | Charge density update                      :        0.172 s           0.170 s
  | Density mixing                             :        0.008 s           0.008 s
  | Hartree multipole update                   :        0.012 s           0.010 s
  | Hartree multipole summation                :        0.180 s           0.177 s
  | Integration                                :        0.184 s           0.183 s
  | Solution of K.-S. eqns.                    :        0.004 s           0.002 s
  | Total energy evaluation                    :        0.004 s           0.000 s

  Partial memory accounting:
  | Current value for overall tracked memory usage on task 0  :           0.180 MB
  | Peak value for overall tracked memory usage on task 0     :           0.622 MB after allocating gradient_basis_wave
  | Largest tracked array allocation on task 0 so far         :           0.332 MB  when allocating gradient_basis_wave
  Note:  These values currently only include a subset of arrays which are explicitly tracked.
  The "true" memory usage will be greater.
------------------------------------------------------------

------------------------------------------------------------
          Begin self-consistency iteration #    6

  Date     :  20180215, Time     :  214458.233
------------------------------------------------------------
  Evaluating new KS density.
  Integration grid: deviation in total charge (<rho> - N_e) =   7.105427E-15
  Pulay mixing of updated and previous charge densities.

  Evaluating partitioned Hartree potential by multipole expansion.
  | Analytical far-field extrapolation by fixed multipoles:
  | Hartree multipole sum: apparent total charge =  -0.515957E-03
  Summing up the Hartree potential.
  Time summed over all CPUs for potential: real work        1.277 s, elapsed        1.294 s
  | RMS charge density error from multipole expansion :   0.231688E-01

  Integrating Hamiltonian matrix: batch-based integration.
  Time summed over all CPUs for integration: real work        1.366 s, elapsed        1.407 s

  Updating Kohn-Sham eigenvalues, eigenvectors, occupation numbers, and Fermi level.
  Solving generalized eigenproblem
  Updating Kohn-Sham eigenvalues and eigenfunctions.
  Solving real generalised eigenvalue problem by standard LAPACK (fast)

  Obtaining occupation numbers and chemical potential using ELSI.
  | Chemical potential (Fermi level):    -4.10010108eV
  Highest occupied state (VBM) at     -5.86546190 eV
  | Occupation number:      2.00000000

  Lowest unoccupied state (CBM) at    -0.38829628 eV
  | Occupation number:      0.00000000

  Overall HOMO-LUMO gap:      5.47716562 eV.

  Total energy components:
  | Sum of eigenvalues            :         -89.34877395 Ha       -2431.30384247 eV
  | XC energy correction          :         -24.40430042 Ha        -664.07480206 eV
  | XC potential correction       :          31.35179962 Ha         853.12587409 eV
  | Free-atom electrostatic energy:         -68.01024982 Ha       -1850.65305769 eV
  | Hartree energy correction     :          -6.64678758 Ha        -180.86829263 eV
  | vdW energy correction         :           0.00000000 Ha           0.00000000 eV
  | Entropy correction            :           0.00000000 Ha           0.00000000 eV
  | ---------------------------
  | Total energy                  :        -157.05831215 Ha       -4273.77412077 eV
  | Total energy, T -> 0          :        -157.05831215 Ha       -4273.77412077 eV  <-- do not rely on this value for anything but (periodic) metals
  | Electronic free energy        :        -157.05831215 Ha       -4273.77412077 eV

  Derived energy quantities:
  | Kinetic energy                :         156.28258467 Ha        4252.66550215 eV
  | Electrostatic energy          :        -288.93659640 Ha       -7862.36482086 eV
  | Energy correction for multipole
  | error in Hartree potential    :           0.03312838 Ha           0.90146912 eV
  | Sum of eigenvalues per atom                           :        -202.60865354 eV
  | Total energy (T->0) per atom                          :        -356.14784340 eV  <-- do not rely on this value for anything but (periodic) metals
  | Electronic free energy per atom                       :        -356.14784340 eV

  Self-consistency convergence accuracy:
  | Change of charge density      :  0.1523E-01
  | Change of sum of eigenvalues  :  0.2313E+01 eV
  | Change of total energy        :  0.5758E-02 eV

  End self-consistency iteration #     6       :  max(cpu_time)    wall_clock(cpu1)
  | Time for this iteration                    :        0.552 s           0.553 s
  | Charge density update                      :        0.176 s           0.173 s
  | Density mixing                             :        0.012 s           0.015 s
  | Hartree multipole update                   :        0.012 s           0.011 s
  | Hartree multipole summation                :        0.168 s           0.168 s
  | Integration                                :        0.184 s           0.183 s
  | Solution of K.-S. eqns.                    :        0.004 s           0.002 s
  | Total energy evaluation                    :        0.000 s           0.001 s

  Partial memory accounting:
  | Current value for overall tracked memory usage on task 0  :           0.180 MB
  | Peak value for overall tracked memory usage on task 0     :           0.622 MB after allocating gradient_basis_wave
  | Largest tracked array allocation on task 0 so far         :           0.332 MB  when allocating gradient_basis_wave
  Note:  These values currently only include a subset of arrays which are explicitly tracked.
  The "true" memory usage will be greater.
------------------------------------------------------------

------------------------------------------------------------
          Begin self-consistency iteration #    7

  Date     :  20180215, Time     :  214458.787
------------------------------------------------------------
  Evaluating new KS density.
  Integration grid: deviation in total charge (<rho> - N_e) =   7.105427E-15
  Pulay mixing of updated and previous charge densities.

  Evaluating partitioned Hartree potential by multipole expansion.
  | Analytical far-field extrapolation by fixed multipoles:
  | Hartree multipole sum: apparent total charge =  -0.519686E-03
  Summing up the Hartree potential.
  Time summed over all CPUs for potential: real work        1.318 s, elapsed        1.428 s
  | RMS charge density error from multipole expansion :   0.231518E-01

  Integrating Hamiltonian matrix: batch-based integration.
  Time summed over all CPUs for integration: real work        1.384 s, elapsed        1.517 s

  Updating Kohn-Sham eigenvalues, eigenvectors, occupation numbers, and Fermi level.
  Solving generalized eigenproblem
  Updating Kohn-Sham eigenvalues and eigenfunctions.
  Solving real generalised eigenvalue problem by standard LAPACK (fast)

  Obtaining occupation numbers and chemical potential using ELSI.
  | Chemical potential (Fermi level):    -4.07966243eV
  Highest occupied state (VBM) at     -5.83970845 eV
  | Occupation number:      2.00000000

  Lowest unoccupied state (CBM) at    -0.36288282 eV
  | Occupation number:      0.00000000

  Overall HOMO-LUMO gap:      5.47682563 eV.

  Total energy components:
  | Sum of eigenvalues            :         -89.32144373 Ha       -2430.56014932 eV
  | XC energy correction          :         -24.40600717 Ha        -664.12124520 eV
  | XC potential correction       :          31.35407236 Ha         853.18771852 eV
  | Free-atom electrostatic energy:         -68.01024982 Ha       -1850.65305769 eV
  | Hartree energy correction     :          -6.67464017 Ha        -181.62620003 eV
  | vdW energy correction         :           0.00000000 Ha           0.00000000 eV
  | Entropy correction            :           0.00000000 Ha           0.00000000 eV
  | ---------------------------
  | Total energy                  :        -157.05826852 Ha       -4273.77293373 eV
  | Total energy, T -> 0          :        -157.05826852 Ha       -4273.77293373 eV  <-- do not rely on this value for anything but (periodic) metals
  | Electronic free energy        :        -157.05826852 Ha       -4273.77293373 eV

  Derived energy quantities:
  | Kinetic energy                :         156.28202824 Ha        4252.65036089 eV
  | Electrostatic energy          :        -288.93428960 Ha       -7862.30204942 eV
  | Energy correction for multipole
  | error in Hartree potential    :           0.03288128 Ha           0.89474527 eV
  | Sum of eigenvalues per atom                           :        -202.54667911 eV
  | Total energy (T->0) per atom                          :        -356.14774448 eV  <-- do not rely on this value for anything but (periodic) metals
  | Electronic free energy per atom                       :        -356.14774448 eV

  Self-consistency convergence accuracy:
  | Change of charge density      :  0.6940E-02
  | Change of sum of eigenvalues  :  0.7437E+00 eV
  | Change of total energy        :  0.1187E-02 eV

  End self-consistency iteration #     7       :  max(cpu_time)    wall_clock(cpu1)
  | Time for this iteration                    :        0.584 s           0.584 s
  | Charge density update                      :        0.176 s           0.175 s
  | Density mixing                             :        0.012 s           0.012 s
  | Hartree multipole update                   :        0.012 s           0.011 s
  | Hartree multipole summation                :        0.188 s           0.185 s
  | Integration                                :        0.196 s           0.197 s
  | Solution of K.-S. eqns.                    :        0.004 s           0.002 s
  | Total energy evaluation                    :        0.000 s           0.001 s

  Partial memory accounting:
  | Current value for overall tracked memory usage on task 0  :           0.180 MB
  | Peak value for overall tracked memory usage on task 0     :           0.622 MB after allocating gradient_basis_wave
  | Largest tracked array allocation on task 0 so far         :           0.332 MB  when allocating gradient_basis_wave
  Note:  These values currently only include a subset of arrays which are explicitly tracked.
  The "true" memory usage will be greater.
------------------------------------------------------------

------------------------------------------------------------
          Begin self-consistency iteration #    8

  Date     :  20180215, Time     :  214459.372
------------------------------------------------------------
  Evaluating new KS density.
  Integration grid: deviation in total charge (<rho> - N_e) =   7.105427E-15
  Pulay mixing of updated and previous charge densities.

  Evaluating partitioned Hartree potential by multipole expansion.
  | Analytical far-field extrapolation by fixed multipoles:
  | Hartree multipole sum: apparent total charge =  -0.529742E-03
  Summing up the Hartree potential.
  Time summed over all CPUs for potential: real work        1.281 s, elapsed        1.309 s
  | RMS charge density error from multipole expansion :   0.232045E-01

  Integrating Hamiltonian matrix: batch-based integration.
  Time summed over all CPUs for integration: real work        1.363 s, elapsed        1.419 s

  Updating Kohn-Sham eigenvalues, eigenvectors, occupation numbers, and Fermi level.
  Solving generalized eigenproblem
  Updating Kohn-Sham eigenvalues and eigenfunctions.
  Solving real generalised eigenvalue problem by standard LAPACK (fast)

  Obtaining occupation numbers and chemical potential using ELSI.
  | Chemical potential (Fermi level):    -4.02283280eV
  Highest occupied state (VBM) at     -5.77182187 eV
  | Occupation number:      2.00000000

  Lowest unoccupied state (CBM) at    -0.29715000 eV
  | Occupation number:      0.00000000

  Overall HOMO-LUMO gap:      5.47467186 eV.

  Total energy components:
  | Sum of eigenvalues            :         -89.25031643 Ha       -2428.62467719 eV
  | XC energy correction          :         -24.41252233 Ha        -664.29853161 eV
  | XC potential correction       :          31.36260221 Ha         853.41982775 eV
  | Free-atom electrostatic energy:         -68.01024982 Ha       -1850.65305769 eV
  | Hartree energy correction     :          -6.74772928 Ha        -183.61505595 eV
  | vdW energy correction         :           0.00000000 Ha           0.00000000 eV
  | Entropy correction            :           0.00000000 Ha           0.00000000 eV
  | ---------------------------
  | Total energy                  :        -157.05821564 Ha       -4273.77149469 eV
  | Total energy, T -> 0          :        -157.05821564 Ha       -4273.77149469 eV  <-- do not rely on this value for anything but (periodic) metals
  | Electronic free energy        :        -157.05821564 Ha       -4273.77149469 eV

  Derived energy quantities:
  | Kinetic energy                :         156.28268782 Ha        4252.66830901 eV
  | Electrostatic energy          :        -288.92838114 Ha       -7862.14127210 eV
  | Energy correction for multipole
  | error in Hartree potential    :           0.03244491 Ha           0.88287083 eV
  | Sum of eigenvalues per atom                           :        -202.38538977 eV
  | Total energy (T->0) per atom                          :        -356.14762456 eV  <-- do not rely on this value for anything but (periodic) metals
  | Electronic free energy per atom                       :        -356.14762456 eV

  Self-consistency convergence accuracy:
  | Change of charge density      :  0.5420E-02
  | Change of sum of eigenvalues  :  0.1935E+01 eV
  | Change of total energy        :  0.1439E-02 eV

  End self-consistency iteration #     8       :  max(cpu_time)    wall_clock(cpu1)
  | Time for this iteration                    :        0.560 s           0.558 s
  | Charge density update                      :        0.180 s           0.177 s
  | Density mixing                             :        0.012 s           0.012 s
  | Hartree multipole update                   :        0.012 s           0.010 s
  | Hartree multipole summation                :        0.172 s           0.170 s
  | Integration                                :        0.188 s           0.184 s
  | Solution of K.-S. eqns.                    :        0.004 s           0.002 s
  | Total energy evaluation                    :        0.004 s           0.000 s

  Partial memory accounting:
  | Current value for overall tracked memory usage on task 0  :           0.180 MB
  | Peak value for overall tracked memory usage on task 0     :           0.622 MB after allocating gradient_basis_wave
  | Largest tracked array allocation on task 0 so far         :           0.332 MB  when allocating gradient_basis_wave
  Note:  These values currently only include a subset of arrays which are explicitly tracked.
  The "true" memory usage will be greater.
------------------------------------------------------------

------------------------------------------------------------
          Begin self-consistency iteration #    9

  Date     :  20180215, Time     :  214459.930
------------------------------------------------------------
  Evaluating new KS density.
  Integration grid: deviation in total charge (<rho> - N_e) =   0.000000E+00
  Pulay mixing of updated and previous charge densities.

  Evaluating partitioned Hartree potential by multipole expansion.
  | Analytical far-field extrapolation by fixed multipoles:
  | Hartree multipole sum: apparent total charge =  -0.531990E-03
  Summing up the Hartree potential.
  Time summed over all CPUs for potential: real work        1.272 s, elapsed        1.289 s
  | RMS charge density error from multipole expansion :   0.232168E-01

  Integrating Hamiltonian matrix: batch-based integration.
  Time summed over all CPUs for integration: real work        1.386 s, elapsed        1.474 s

  Updating Kohn-Sham eigenvalues, eigenvectors, occupation numbers, and Fermi level.
  Solving generalized eigenproblem
  Updating Kohn-Sham eigenvalues and eigenfunctions.
  Solving real generalised eigenvalue problem by standard LAPACK (fast)

  Obtaining occupation numbers and chemical potential using ELSI.
  | Chemical potential (Fermi level):    -4.00980159eV
  Highest occupied state (VBM) at     -5.75737031 eV
  | Occupation number:      2.00000000

  Lowest unoccupied state (CBM) at    -0.28339990 eV
  | Occupation number:      0.00000000

  Overall HOMO-LUMO gap:      5.47397041 eV.

  Total energy components:
  | Sum of eigenvalues            :         -89.23327348 Ha       -2428.16091473 eV
  | XC energy correction          :         -24.41429656 Ha        -664.34681094 eV
  | XC potential correction       :          31.36491499 Ha         853.48276167 eV
  | Free-atom electrostatic energy:         -68.01024982 Ha       -1850.65305769 eV
  | Hartree energy correction     :          -6.76530927 Ha        -184.09343184 eV
  | vdW energy correction         :           0.00000000 Ha           0.00000000 eV
  | Entropy correction            :           0.00000000 Ha           0.00000000 eV
  | ---------------------------
  | Total energy                  :        -157.05821413 Ha       -4273.77145354 eV
  | Total energy, T -> 0          :        -157.05821413 Ha       -4273.77145354 eV  <-- do not rely on this value for anything but (periodic) metals
  | Electronic free energy        :        -157.05821413 Ha       -4273.77145354 eV

  Derived energy quantities:
  | Kinetic energy                :         156.28573023 Ha        4252.75109708 eV
  | Electrostatic energy          :        -288.92964780 Ha       -7862.17573968 eV
  | Energy correction for multipole
  | error in Hartree potential    :           0.03237578 Ha           0.88098975 eV
  | Sum of eigenvalues per atom                           :        -202.34674289 eV
  | Total energy (T->0) per atom                          :        -356.14762113 eV  <-- do not rely on this value for anything but (periodic) metals
  | Electronic free energy per atom                       :        -356.14762113 eV

  Self-consistency convergence accuracy:
  | Change of charge density      :  0.1075E-02
  | Change of sum of eigenvalues  :  0.4638E+00 eV
  | Change of total energy        :  0.4115E-04 eV

  End self-consistency iteration #     9       :  max(cpu_time)    wall_clock(cpu1)
  | Time for this iteration                    :        0.560 s           0.556 s
  | Charge density update                      :        0.172 s           0.171 s
  | Density mixing                             :        0.016 s           0.013 s
  | Hartree multipole update                   :        0.012 s           0.010 s
  | Hartree multipole summation                :        0.168 s           0.167 s
  | Integration                                :        0.192 s           0.192 s
  | Solution of K.-S. eqns.                    :        0.004 s           0.002 s
  | Total energy evaluation                    :        0.004 s           0.001 s

  Partial memory accounting:
  | Current value for overall tracked memory usage on task 0  :           0.180 MB
  | Peak value for overall tracked memory usage on task 0     :           0.622 MB after allocating gradient_basis_wave
  | Largest tracked array allocation on task 0 so far         :           0.332 MB  when allocating gradient_basis_wave
  Note:  These values currently only include a subset of arrays which are explicitly tracked.
  The "true" memory usage will be greater.
------------------------------------------------------------

------------------------------------------------------------
          Begin self-consistency iteration #   10

  Date     :  20180215, Time     :  214500.488
------------------------------------------------------------
  Evaluating new KS density.
  Integration grid: deviation in total charge (<rho> - N_e) =  -1.065814E-14
  Pulay mixing of updated and previous charge densities.

  Evaluating partitioned Hartree potential by multipole expansion.
  | Analytical far-field extrapolation by fixed multipoles:
  | Hartree multipole sum: apparent total charge =  -0.531942E-03
  Summing up the Hartree potential.
  Time summed over all CPUs for potential: real work        1.272 s, elapsed        1.285 s
  | RMS charge density error from multipole expansion :   0.232184E-01

  Integrating Hamiltonian matrix: batch-based integration.
  Time summed over all CPUs for integration: real work        1.333 s, elapsed        1.374 s

[...]
  |   Hirshfeld dipole moment :      0.08878023
  |   Hirshfeld second moments:      0.10834341      -0.00041503      -0.00272441
  |                                 -0.00041503       0.08698590      -0.00065349
  |                                 -0.00272441      -0.00065349       0.11001155
  ----------------------------------------------------------------------
  | Atom     8: H
  |   Hirshfeld charge        :      0.03727277
  |   Free atom volume        :      9.95071624
  |   Hirshfeld volume        :      6.40825778
  |   Hirshfeld dipole vector :     -0.03272357      -0.03082093       0.07932248
  |   Hirshfeld dipole moment :      0.09117465
  |   Hirshfeld second moments:      0.09773929       0.00139399       0.00650793
  |                                  0.00139399       0.09746301       0.00591597
  |                                  0.00650793       0.00591597       0.09329553
  ----------------------------------------------------------------------
  | Atom     9: H
  |   Hirshfeld charge        :      0.03727277
  |   Free atom volume        :      9.95071624
  |   Hirshfeld volume        :      6.40825778
  |   Hirshfeld dipole vector :      0.03272357       0.03082093       0.07932248
  |   Hirshfeld dipole moment :      0.09117465
  |   Hirshfeld second moments:      0.09773929       0.00139399      -0.00650793
  |                                  0.00139399       0.09746301      -0.00591597
  |                                 -0.00650793      -0.00591597       0.09329553
  ----------------------------------------------------------------------
  | Atom    10: H
  |   Hirshfeld charge        :      0.04051277
  |   Free atom volume        :      9.95071624
  |   Hirshfeld volume        :      6.38999032
  |   Hirshfeld dipole vector :     -0.03158519      -0.01651385      -0.07758376
  |   Hirshfeld dipole moment :      0.08537899
  |   Hirshfeld second moments:      0.09826036      -0.01056003      -0.00657744
  |                                 -0.01056003       0.09984425      -0.00380556
  |                                 -0.00657744      -0.00380556       0.09013624
  ----------------------------------------------------------------------
  | Atom    11: H
  |   Hirshfeld charge        :      0.04327567
  |   Free atom volume        :      9.95071624
  |   Hirshfeld volume        :      6.11993987
  |   Hirshfeld dipole vector :     -0.00143114       0.08859149       0.00560610
  |   Hirshfeld dipole moment :      0.08878023
  |   Hirshfeld second moments:      0.10834341      -0.00041503       0.00272441
  |                                 -0.00041503       0.08698590       0.00065349
  |                                  0.00272441       0.00065349       0.11001155
  ----------------------------------------------------------------------
  | Atom    12: H
  |   Hirshfeld charge        :      0.04321248
  |   Free atom volume        :      9.95071624
  |   Hirshfeld volume        :      6.14156729
  |   Hirshfeld dipole vector :      0.08587922      -0.01991870      -0.00525302
  |   Hirshfeld dipole moment :      0.08831528
  |   Hirshfeld second moments:      0.08774587       0.00397515       0.00357063
  |                                  0.00397515       0.10679567       0.00233176
  |                                  0.00357063       0.00233176       0.10929245
  ----------------------------------------------------------------------


  Total energy components:
  | Sum of eigenvalues            :         -89.23328368 Ha       -2428.16119231 eV
  | XC energy correction          :         -24.41441527 Ha        -664.35004116 eV
  | XC potential correction       :          31.36506469 Ha         853.48683518 eV
  | Free-atom electrostatic energy:         -68.01024982 Ha       -1850.65305769 eV
  | Hartree energy correction     :          -6.76533080 Ha        -184.09401758 eV
  | vdW energy correction         :          -0.00230087 Ha          -0.06260980 eV
  | Entropy correction            :           0.00000000 Ha           0.00000000 eV
  | ---------------------------
  | Total energy                  :        -157.06051573 Ha       -4273.83408337 eV
  | Total energy, T -> 0          :        -157.06051573 Ha       -4273.83408337 eV  <-- do not rely on this value for anything but (periodic) metals
  | Electronic free energy        :        -157.06051573 Ha       -4273.83408337 eV

  Derived energy quantities:
  | Kinetic energy                :         156.28628156 Ha        4252.76609966 eV
  | Electrostatic energy          :        -288.93008116 Ha       -7862.18753207 eV
  | Energy correction for multipole
  | error in Hartree potential    :           0.03238498 Ha           0.88124023 eV
  | Sum of eigenvalues per atom                           :        -202.34676603 eV
  | Total energy (T->0) per atom                          :        -356.15284028 eV  <-- do not rely on this value for anything but (periodic) metals
  | Electronic free energy per atom                       :        -356.15284028 eV

  atomic forces [eV/Ang]:
  -----------------------
  atom #    1
   Hellmann-Feynman              :  0.255184E+00  0.271218E+00  0.374022E+00
   Ionic forces                  :  0.000000E+00  0.000000E+00  0.000000E+00
   Multipole                     : -0.414482E+00 -0.424690E+00 -0.625624E+00
   Pulay + GGA                   :  0.167957E+00  0.165130E+00  0.248522E+00
   Van der Waals                 : -0.977910E-02 -0.101221E-01  0.314434E-02
   ----------------------------------------------------------------
   Total forces(   1)            : -0.111969E-02  0.153554E-02  0.642774E-04
  atom #    2
   Hellmann-Feynman              :  0.131240E+01  0.120938E+01  0.124394E+00
   Ionic forces                  :  0.000000E+00  0.000000E+00  0.000000E+00
   Multipole                     : -0.118791E-01  0.198434E-01  0.375884E+00
   Pulay + GGA                   : -0.130179E+01 -0.122936E+01 -0.505264E+00
   Van der Waals                 :  0.628413E-03  0.333433E-03  0.525877E-02
   ----------------------------------------------------------------
   Total forces(   2)            : -0.642269E-03  0.191572E-03  0.273320E-03
  atom #    3
   Hellmann-Feynman              : -0.131240E+01 -0.120938E+01  0.124394E+00
   Ionic forces                  :  0.000000E+00  0.000000E+00  0.000000E+00
   Multipole                     :  0.118791E-01 -0.198434E-01  0.375884E+00
   Pulay + GGA                   :  0.130179E+01  0.122936E+01 -0.505264E+00
   Van der Waals                 : -0.628413E-03 -0.333433E-03  0.525877E-02
   ----------------------------------------------------------------
   Total forces(   3)            :  0.642269E-03 -0.191572E-03  0.273320E-03
  atom #    4
   Hellmann-Feynman              : -0.255184E+00 -0.271218E+00  0.374022E+00
   Ionic forces                  :  0.000000E+00  0.000000E+00  0.000000E+00
   Multipole                     :  0.414482E+00  0.424690E+00 -0.625624E+00
   Pulay + GGA                   : -0.167957E+00 -0.165130E+00  0.248522E+00
   Van der Waals                 :  0.977910E-02  0.101221E-01  0.314434E-02
   ----------------------------------------------------------------
   Total forces(   4)            :  0.111969E-02 -0.153554E-02  0.642773E-04
  atom #    5
   Hellmann-Feynman              :  0.521202E-01  0.849829E-01  0.404936E-01
   Ionic forces                  :  0.000000E+00  0.000000E+00  0.000000E+00
   Multipole                     :  0.624960E-02 -0.215626E-01 -0.133059E+00
   Pulay + GGA                   : -0.579208E-01 -0.477785E-01  0.971617E-01
   Van der Waals                 : -0.652573E-02 -0.744231E-02 -0.478116E-02
   ----------------------------------------------------------------
   Total forces(   5)            : -0.607667E-02  0.819945E-02 -0.185000E-03
  atom #    6
   Hellmann-Feynman              : -0.141155E-01  0.142550E-02  0.399543E-01
   Ionic forces                  :  0.000000E+00  0.000000E+00  0.000000E+00
   Multipole                     : -0.989651E-01  0.238402E-02 -0.401253E-01
   Pulay + GGA                   :  0.106815E+00 -0.113158E-01  0.811909E-02
   Van der Waals                 :  0.310048E-02  0.354073E-02 -0.301374E-02
   ----------------------------------------------------------------
   Total forces(   6)            : -0.316478E-02 -0.396554E-02  0.493432E-02
  atom #    7
   Hellmann-Feynman              :  0.130655E-01 -0.868542E-02  0.457717E-01
   Ionic forces                  :  0.000000E+00  0.000000E+00  0.000000E+00
   Multipole                     : -0.192756E-01 -0.996508E-01 -0.394529E-01
   Pulay + GGA                   :  0.807001E-02  0.107251E+00 -0.782366E-02
   Van der Waals                 :  0.321140E-02  0.214729E-02 -0.329516E-02
   ----------------------------------------------------------------
   Total forces(   7)            :  0.507133E-02  0.106222E-02 -0.480005E-02
  atom #    8
   Hellmann-Feynman              : -0.362026E-01 -0.288466E-01 -0.586849E-01
   Ionic forces                  :  0.000000E+00  0.000000E+00  0.000000E+00
   Multipole                     : -0.107145E-01 -0.135994E-01  0.150293E+00
   Pulay + GGA                   :  0.430296E-01  0.395784E-01 -0.942311E-01
   Van der Waals                 :  0.350395E-02  0.343565E-02  0.268694E-02
   ----------------------------------------------------------------
   Total forces(   8)            : -0.383587E-03  0.568063E-03  0.637784E-04
  atom #    9
   Hellmann-Feynman              :  0.362026E-01  0.288466E-01 -0.586849E-01
   Ionic forces                  :  0.000000E+00  0.000000E+00  0.000000E+00
   Multipole                     :  0.107145E-01  0.135994E-01  0.150293E+00
   Pulay + GGA                   : -0.430296E-01 -0.395784E-01 -0.942311E-01
   Van der Waals                 : -0.350395E-02 -0.343565E-02  0.268694E-02
   ----------------------------------------------------------------
   Total forces(   9)            :  0.383587E-03 -0.568064E-03  0.637784E-04
  atom #   10
   Hellmann-Feynman              : -0.521202E-01 -0.849829E-01  0.404936E-01
   Ionic forces                  :  0.000000E+00  0.000000E+00  0.000000E+00
   Multipole                     : -0.624960E-02  0.215626E-01 -0.133059E+00
   Pulay + GGA                   :  0.579208E-01  0.477785E-01  0.971617E-01
   Van der Waals                 :  0.652573E-02  0.744231E-02 -0.478116E-02
   ----------------------------------------------------------------
   Total forces(  10)            :  0.607667E-02 -0.819945E-02 -0.185000E-03
  atom #   11
   Hellmann-Feynman              : -0.130655E-01  0.868542E-02  0.457717E-01
   Ionic forces                  :  0.000000E+00  0.000000E+00  0.000000E+00
   Multipole                     :  0.192756E-01  0.996508E-01 -0.394529E-01
   Pulay + GGA                   : -0.807001E-02 -0.107251E+00 -0.782366E-02
   Van der Waals                 : -0.321140E-02 -0.214729E-02 -0.329516E-02
   ----------------------------------------------------------------
   Total forces(  11)            : -0.507134E-02 -0.106222E-02 -0.480005E-02
  atom #   12
   Hellmann-Feynman              :  0.141155E-01 -0.142550E-02  0.399543E-01
   Ionic forces                  :  0.000000E+00  0.000000E+00  0.000000E+00
   Multipole                     :  0.989651E-01 -0.238403E-02 -0.401253E-01
   Pulay + GGA                   : -0.106815E+00  0.113158E-01  0.811909E-02
   Van der Waals                 : -0.310048E-02 -0.354073E-02 -0.301373E-02
   ----------------------------------------------------------------
   Total forces(  12)            :  0.316478E-02  0.396555E-02  0.493433E-02

  Timings for VdW correction (Tkatchenko-Scheffler 2009 or later):
  | CPU time:        0.040 s, Wall clock time:        0.044 s.
  Removing unitary transformations (pure translations, rotations) from forces on atoms.
  Atomic forces before filtering:
  | Net force on center of mass :  -0.613225E-09  0.511599E-10  0.701292E-03 eV/A
  | Net torque on center of mass:  -0.772928E-09  0.155858E-09  0.275875E-02 eV
  Atomic forces after filtering:
  | Net force on center of mass :  -0.696899E-18 -0.696899E-18  0.696899E-18 eV/A
  | Net torque on center of mass:  -0.405661E-17  0.147513E-17  0.368783E-18 eV

  Energy and forces in a compact form:
  | Total energy uncorrected      :         -0.427383408337191E+04 eV
  | Total energy corrected        :         -0.427383408337191E+04 eV  <-- do not rely on this value for anything but (periodic) metals
  | Electronic free energy        :         -0.427383408337191E+04 eV
  Total atomic forces (unitary forces cleaned) [eV/Ang]:
  |   1         -0.120843663920494E-02          0.162769741455931E-02          0.583634662847397E-05
  |   2         -0.679627759055897E-03          0.230632288920944E-03          0.214878639842589E-03
  |   3          0.679628018896361E-03         -0.230632717433203E-03          0.214878655954534E-03
  |   4          0.120843649004487E-02         -0.162769725459266E-02          0.583636311509704E-05
  |   5         -0.614267570693743E-02          0.825428069445383E-02         -0.243440747688588E-03
  |   6         -0.323174534007321E-02         -0.378749095385549E-02          0.487588357148447E-02
  |   7          0.489423607078713E-02          0.115126579934780E-02         -0.485849526590119E-02
  |   8         -0.448412133148038E-03          0.636346220306812E-03          0.533736568363139E-05
  |   9          0.448412753403322E-03         -0.636347063302258E-03          0.533739768958898E-05
  |  10          0.614267606640646E-02         -0.825428236554748E-02         -0.243440966333656E-03
  |  11         -0.489423830801372E-02         -0.115126484081209E-02         -0.485849581109323E-02
  |  12          0.323174648689509E-02          0.378749277795448E-02          0.487588445061828E-02

  ------------------------------------ 
  Start decomposition of the XC Energy 
  ------------------------------------ 
  X and C from original XC functional choice 
  Hartree-Fock Energy :          0.000000000 Ha              0.000000000 eV
  X Energy            :        -23.397760584 Ha           -636.685459703 eV
  C Energy            :         -1.016654682 Ha            -27.664581462 eV
  Total XC Energy     :        -24.414415267 Ha           -664.350041165 eV
  ------------------------------------ 
  LDA X and C from self-consistent density 
  X Energy LDA        :        -21.151577011 Ha           -575.563694815 eV
  C Energy LDA        :         -1.974699565 Ha            -53.734309129 eV
  ------------------------------------ 
  End decomposition of the XC Energy 
  ------------------------------------ 

------------------------------------------------------------

------------------------------------------------------------------------------
  Final output of selected total energy values:

  The following output summarizes some interesting total energy values
  at the end of a run (AFTER all relaxation, molecular dynamics, etc.).

  | Total energy of the DFT / Hartree-Fock s.c.f. calculation      :          -4273.834083372 eV
  | Final zero-broadening corrected energy (caution - metals only) :          -4273.834083372 eV
  | For reference only, the value of 1 Hartree used in FHI-aims is :             27.211384500 eV

  Before relying on these values, please be sure to understand exactly which
  total energy value is referred to by a given number. Different objects may
  all carry the same name 'total energy'. Definitions:

  Total energy of the DFT / Hartree-Fock s.c.f. calculation:
  | Note that this energy does not include ANY quantities calculated after the
  | s.c.f. cycle, in particular not ANY RPA, MP2, etc. many-body perturbation terms.

  Final zero-broadening corrected energy:
  | For metallic systems only, a broadening of the occupation numbers at the Fermi
  | level can be extrapolated back to zero broadening by an electron-gas inspired
  | formula. For all systems that are not real metals, this value can be
  | meaningless and should be avoided.

------------------------------------------------------------------------------
  Methods described in the following list of references were used in this FHI-aims run.
  If you publish the results, please make sure to cite these reference if they apply.
  FHI-aims is an academic code, and for our developers (often, Ph.D. students
  and postdocs), scientific credit in the community is essential.
  Thank you for helping us!

  For any use of FHI-aims, please cite:

    Volker Blum, Ralf Gehrke, Felix Hanke, Paula Havu, Ville Havu,
    Xinguo Ren, Karsten Reuter, and Matthias Scheffler
    'Ab initio molecular simulations with numeric atom-centered orbitals'
    Computer Physics Communications 180, 2175-2196 (2009)
    http://dx.doi.org/10.1016/j.cpc.2009.06.022


  For the real-space grid partitioning and parallelization used in this calculation, please cite:

    Ville Havu, Volker Blum, Paula Havu, and Matthias Scheffler,
    'Efficient O(N) integration for all-electron electronic structure calculation'
    'using numerically tabulated basis functions'
    Journal of Computational Physics 228, 8367-8379 (2009).
    http://dx.doi.org/10.1016/j.jcp.2009.08.008

  Of course, there are many other important community references, e.g., those cited in the
  above references. Our list is limited to references that describe implementations in the
  FHI-aims code. The reason is purely practical (length of this list) - please credit others as well.

------------------------------------------------------------
          Leaving FHI-aims.
          Date     :  20180215, Time     :  214504.644

          Computational steps:
          | Number of self-consistency cycles          :           15
          | Number of SCF (re)initializations          :            1

          Detailed time accounting                     :  max(cpu_time)    wall_clock(cpu1)
          | Total time                                 :       10.080 s          10.124 s
          | Preparation time                           :        0.128 s           0.132 s
          | Boundary condition initalization           :        0.000 s           0.003 s
          | Grid partitioning                          :        0.084 s           0.083 s
          | Preloading free-atom quantities on grid    :        0.004 s           0.006 s
          | Free-atom superposition energy             :        0.044 s           0.042 s
          | Total time for integrations                :        3.152 s           3.133 s
          | Total time for solution of K.-S. equations :        0.068 s           0.044 s
          | Total time for density & force components  :        3.116 s           3.088 s
          | Total time for mixing                      :        0.172 s           0.156 s
          | Total time for Hartree multipole update    :        0.184 s           0.162 s
          | Total time for Hartree multipole sum       :        3.068 s           3.044 s
          | Total time for total energy evaluation     :        0.016 s           0.014 s
          | Total time for vdW correction              :        0.040 s           0.044 s

          Partial memory accounting:
          | Residual value for overall tracked memory usage across tasks :           0.000 MB (should be 0.000 MB)
          | Peak values for overall tracked memory usage (after allocating hessian_basis_wave):
          |   Minimum:        1.397 MB (on task 1)
          |   Maximum:        1.397 MB (on task 1)
          |   Average:        1.397 MB
          | Largest tracked array allocation (hessian_basis_wave):
          |   Minimum:        0.664 MB (on task 1)
          |   Maximum:        0.664 MB (on task 1)
          |   Average:        0.664 MB
          Note:  These values currently only include a subset of arrays which are explicitly tracked.
          The "true" memory usage will be greater.

          Have a nice day.
------------------------------------------------------------
