nqpoint: 500    
npath: 5      
natom: 2      
phonon:
- q-position: [    0.0000000,    0.0000000,    0.0000000 ]
  distance:    0.0000000
  band:
  - # 1
    frequency:    0.0000054382
  - # 2
    frequency:    0.0000061431
  - # 3
    frequency:    0.0000078101
  - # 4
    frequency:  516.3876469329
  - # 5
    frequency:  516.3876469329
  - # 6
    frequency:  516.3876469329

- q-position: [    0.0000000,    0.0050505,    0.0050505 ]
  distance:    0.0018637
  band:
  - # 1
    frequency:    2.0016687706
  - # 2
    frequency:    2.0016687707
  - # 3
    frequency:    4.9570233618
  - # 4
    frequency:  516.3770653712
  - # 5
    frequency:  516.3770653712
  - # 6
    frequency:  516.3820294635

- q-position: [    0.0000000,    0.0101010,    0.0101010 ]
  distance:    0.0037273
  band:
  - # 1
    frequency:    4.0029814584
  - # 2
    frequency:    4.0029814584
  - # 3
    frequency:    9.9134294707
  - # 4
    frequency:  516.3453238987
  - # 5
    frequency:  516.3453238987
  - # 6
    frequency:  516.3651652426

- q-position: [    0.0000000,    0.0151515,    0.0151515 ]
  distance:    0.0055910
  band:
  - # 1
    frequency:    6.0035822347
  - # 2
    frequency:    6.0035822347
  - # 3
    frequency:   14.8686014286
  - # 4
    frequency:  516.2924321696
  - # 5
    frequency:  516.2924321696
  - # 6
    frequency:  516.3370188574

- q-position: [    0.0000000,    0.0202020,    0.0202020 ]
  distance:    0.0074546
  band:
  - # 1
    frequency:    8.0031157778
  - # 2
    frequency:    8.0031157778
  - # 3
    frequency:   19.8219230467
  - # 4
    frequency:  516.2184063277
  - # 5
    frequency:  516.2184063277
  - # 6
    frequency:  516.2975313726

- q-position: [    0.0000000,    0.0252525,    0.0252525 ]
  distance:    0.0093183
  band:
  - # 1
    frequency:   10.0012275201
  - # 2
    frequency:   10.0012275201
  - # 3
    frequency:   24.7727791976
  - # 4
    frequency:  516.1232690873
  - # 5
    frequency:  516.1232690873
  - # 6
    frequency:  516.2466204589

- q-position: [    0.0000000,    0.0303030,    0.0303030 ]
  distance:    0.0111819
  band:
  - # 1
    frequency:   11.9975638904
  - # 2
    frequency:   11.9975638904
  - # 3
    frequency:   29.7205561657
  - # 4
    frequency:  516.0070498454
  - # 5
    frequency:  516.0070498454
  - # 6
    frequency:  516.1841805726

- q-position: [    0.0000000,    0.0353535,    0.0353535 ]
  distance:    0.0130456
  band:
  - # 1
    frequency:   13.9917725461
  - # 2
    frequency:   13.9917725461
  - # 3
    frequency:   34.6646419943
  - # 4
    frequency:  515.8697848254
  - # 5
    frequency:  515.8697848254
  - # 6
    frequency:  516.1100831849

- q-position: [    0.0000000,    0.0404040,    0.0404040 ]
  distance:    0.0149092
  band:
  - # 1
    frequency:   15.9835025959
  - # 2
    frequency:   15.9835025959
  - # 3
    frequency:   39.6044268283
  - # 4
    frequency:  515.7115172529
  - # 5
    frequency:  515.7115172529
  - # 6
    frequency:  516.0241770618

- q-position: [    0.0000000,    0.0454545,    0.0454545 ]
  distance:    0.0167729
  band:
  - # 1
    frequency:   17.9724048090
  - # 2
    frequency:   17.9724048090
  - # 3
    frequency:   44.5393032529
  - # 4
    frequency:  515.5322975607
  - # 5
    frequency:  515.5322975607
  - # 6
    frequency:  515.9262885911

- q-position: [    0.0000000,    0.0505051,    0.0505051 ]
  distance:    0.0186366
  band:
  - # 1
    frequency:   19.9581318097
  - # 2
    frequency:   19.9581318097
  - # 3
    frequency:   49.4686666262
  - # 4
    frequency:  515.3321836256
  - # 5
    frequency:  515.3321836256
  - # 6
    frequency:  515.8162221582

- q-position: [    0.0000000,    0.0555556,    0.0555556 ]
  distance:    0.0205002
  band:
  - # 1
    frequency:   21.9403382558
  - # 2
    frequency:   21.9403382558
  - # 3
    frequency:   54.3919154062
  - # 4
    frequency:  515.1112410334
  - # 5
    frequency:  515.1112410334
  - # 6
    frequency:  515.6937605674

- q-position: [    0.0000000,    0.0606061,    0.0606061 ]
  distance:    0.0223639
  band:
  - # 1
    frequency:   23.9186809974
  - # 2
    frequency:   23.9186809974
  - # 3
    frequency:   59.3084514703
  - # 4
    frequency:  514.8695433734
  - # 5
    frequency:  514.8695433734
  - # 6
    frequency:  515.5586655085

- q-position: [    0.0000000,    0.0656566,    0.0656566 ]
  distance:    0.0242275
  band:
  - # 1
    frequency:   25.8928192161
  - # 2
    frequency:   25.8928192161
  - # 3
    frequency:   64.2176804273
  - # 4
    frequency:  514.6071725603
  - # 5
    frequency:  514.6071725603
  - # 6
    frequency:  515.4106780667

- q-position: [    0.0000000,    0.0707071,    0.0707071 ]
  distance:    0.0260912
  band:
  - # 1
    frequency:   27.8624145409
  - # 2
    frequency:   27.8624145409
  - # 3
    frequency:   69.1190119221
  - # 4
    frequency:  514.3242191839
  - # 5
    frequency:  514.3242191839
  - # 6
    frequency:  515.2495192743

- q-position: [    0.0000000,    0.0757576,    0.0757576 ]
  distance:    0.0279548
  band:
  - # 1
    frequency:   29.8271311408
  - # 2
    frequency:   29.8271311408
  - # 3
    frequency:   74.0118599295
  - # 4
    frequency:  514.0207828842
  - # 5
    frequency:  514.0207828842
  - # 6
    frequency:  515.0748907020

- q-position: [    0.0000000,    0.0808081,    0.0808081 ]
  distance:    0.0298185
  band:
  - # 1
    frequency:   31.7866357909
  - # 2
    frequency:   31.7866357909
  - # 3
    frequency:   78.8956430406
  - # 4
    frequency:  513.6969727517
  - # 5
    frequency:  513.6969727517
  - # 6
    frequency:  514.8864750891

- q-position: [    0.0000000,    0.0858586,    0.0858586 ]
  distance:    0.0316821
  band:
  - # 1
    frequency:   33.7405979123
  - # 2
    frequency:   33.7405979123
  - # 3
    frequency:   83.7697847375
  - # 4
    frequency:  513.3529077519
  - # 5
    frequency:  513.3529077519
  - # 6
    frequency:  514.6839370097

- q-position: [    0.0000000,    0.0909091,    0.0909091 ]
  distance:    0.0335458
  band:
  - # 1
    frequency:   35.6886895816
  - # 2
    frequency:   35.6886895816
  - # 3
    frequency:   88.6337136576
  - # 4
    frequency:  512.9887171724
  - # 5
    frequency:  512.9887171724
  - # 6
    frequency:  514.4669235721

- q-position: [    0.0000000,    0.0959596,    0.0959596 ]
  distance:    0.0354094
  band:
  - # 1
    frequency:   37.6305855119
  - # 2
    frequency:   37.6305855119
  - # 3
    frequency:   93.4868638474
  - # 4
    frequency:  512.6045410907
  - # 5
    frequency:  512.6045410907
  - # 6
    frequency:  514.2350651514

- q-position: [    0.0000000,    0.1010101,    0.1010101 ]
  distance:    0.0372731
  band:
  - # 1
    frequency:   39.5659630009
  - # 2
    frequency:   39.5659630009
  - # 3
    frequency:   98.3286750034
  - # 4
    frequency:  512.2005308637
  - # 5
    frequency:  512.2005308637
  - # 6
    frequency:  513.9879761508

- q-position: [    0.0000000,    0.1060606,    0.1060606 ]
  distance:    0.0391368
  band:
  - # 1
    frequency:   41.4945018476
  - # 2
    frequency:   41.4945018476
  - # 3
    frequency:  103.1585927017
  - # 4
    frequency:  511.7768496340
  - # 5
    frequency:  511.7768496340
  - # 6
    frequency:  513.7252557912

- q-position: [    0.0000000,    0.1111111,    0.1111111 ]
  distance:    0.0410004
  band:
  - # 1
    frequency:   43.4158842348
  - # 2
    frequency:   43.4158842348
  - # 3
    frequency:  107.9760686140
  - # 4
    frequency:  511.3336728546
  - # 5
    frequency:  511.3336728546
  - # 6
    frequency:  513.4464889249

- q-position: [    0.0000000,    0.1161616,    0.1161616 ]
  distance:    0.0428641
  band:
  - # 1
    frequency:   45.3297945771
  - # 2
    frequency:   45.3297945771
  - # 3
    frequency:  112.7805607112
  - # 4
    frequency:  510.8711888290
  - # 5
    frequency:  510.8711888290
  - # 6
    frequency:  513.1512468725

- q-position: [    0.0000000,    0.1212121,    0.1212121 ]
  distance:    0.0447277
  band:
  - # 1
    frequency:   47.2359193340
  - # 2
    frequency:   47.2359193340
  - # 3
    frequency:  117.5715334538
  - # 4
    frequency:  510.3895992649
  - # 5
    frequency:  510.3895992649
  - # 6
    frequency:  512.8390882800

- q-position: [    0.0000000,    0.1262626,    0.1262626 ]
  distance:    0.0465914
  band:
  - # 1
    frequency:   49.1339467870
  - # 2
    frequency:   49.1339467870
  - # 3
    frequency:  122.3484579671
  - # 4
    frequency:  509.8891198403
  - # 5
    frequency:  509.8891198403
  - # 6
    frequency:  512.5095599931

- q-position: [    0.0000000,    0.1313131,    0.1313131 ]
  distance:    0.0484550
  band:
  - # 1
    frequency:   51.0235667808
  - # 2
    frequency:   51.0235667808
  - # 3
    frequency:  127.1108122043
  - # 4
    frequency:  509.3699807807
  - # 5
    frequency:  509.3699807807
  - # 6
    frequency:  512.1621979476

- q-position: [    0.0000000,    0.1363636,    0.1363636 ]
  distance:    0.0503187
  band:
  - # 1
    frequency:   52.9044704276
  - # 2
    frequency:   52.9044704276
  - # 3
    frequency:  131.8580810937
  - # 4
    frequency:  508.8324274439
  - # 5
    frequency:  508.8324274439
  - # 6
    frequency:  511.7965280717

- q-position: [    0.0000000,    0.1414141,    0.1414141 ]
  distance:    0.0521823
  band:
  - # 1
    frequency:   54.7763497754
  - # 2
    frequency:   54.7763497754
  - # 3
    frequency:  136.5897566725
  - # 4
    frequency:  508.2767209127
  - # 5
    frequency:  508.2767209127
  - # 6
    frequency:  511.4120671988

- q-position: [    0.0000000,    0.1464646,    0.1464646 ]
  distance:    0.0540460
  band:
  - # 1
    frequency:   56.6388974397
  - # 2
    frequency:   56.6388974397
  - # 3
    frequency:  141.3053382048
  - # 4
    frequency:  507.7031385913
  - # 5
    frequency:  507.7031385913
  - # 6
    frequency:  511.0083239883

- q-position: [    0.0000000,    0.1515152,    0.1515152 ]
  distance:    0.0559097
  band:
  - # 1
    frequency:   58.4918061991
  - # 2
    frequency:   58.4918061991
  - # 3
    frequency:  146.0043322866
  - # 4
    frequency:  507.1119748054
  - # 5
    frequency:  507.1119748054
  - # 6
    frequency:  510.5847998516

- q-position: [    0.0000000,    0.1565657,    0.1565657 ]
  distance:    0.0577733
  band:
  - # 1
    frequency:   60.3347685553
  - # 2
    frequency:   60.3347685553
  - # 3
    frequency:  150.6862529342
  - # 4
    frequency:  506.5035414023
  - # 5
    frequency:  506.5035414023
  - # 6
    frequency:  510.1409898805

- q-position: [    0.0000000,    0.1616162,    0.1616162 ]
  distance:    0.0596370
  band:
  - # 1
    frequency:   62.1674762592
  - # 2
    frequency:   62.1674762592
  - # 3
    frequency:  155.3506216586
  - # 4
    frequency:  505.8781683497
  - # 5
    frequency:  505.8781683497
  - # 6
    frequency:  509.6763837770

- q-position: [    0.0000000,    0.1666667,    0.1666667 ]
  distance:    0.0615006
  band:
  - # 1
    frequency:   63.9896198016
  - # 2
    frequency:   63.9896198016
  - # 3
    frequency:  159.9969675256
  - # 4
    frequency:  505.2362043301
  - # 5
    frequency:  505.2362043301
  - # 6
    frequency:  509.1904667801

- q-position: [    0.0000000,    0.1717172,    0.1717172 ]
  distance:    0.0633643
  band:
  - # 1
    frequency:   65.8008878735
  - # 2
    frequency:   65.8008878735
  - # 3
    frequency:  164.6248272002
  - # 4
    frequency:  504.5780173299
  - # 5
    frequency:  504.5780173299
  - # 6
    frequency:  508.6827205897

- q-position: [    0.0000000,    0.1767677,    0.1767677 ]
  distance:    0.0652279
  band:
  - # 1
    frequency:   67.6009667929
  - # 2
    frequency:   67.6009667929
  - # 3
    frequency:  169.2337449768
  - # 4
    frequency:  503.9039952190
  - # 5
    frequency:  503.9039952190
  - # 6
    frequency:  508.1526242827

- q-position: [    0.0000000,    0.1818182,    0.1818182 ]
  distance:    0.0670916
  band:
  - # 1
    frequency:   69.3895399047
  - # 2
    frequency:   69.3895399047
  - # 3
    frequency:  173.8232727955
  - # 4
    frequency:  503.2145463193
  - # 5
    frequency:  503.2145463193
  - # 6
    frequency:  507.5996552218

- q-position: [    0.0000000,    0.1868687,    0.1868687 ]
  distance:    0.0689552
  band:
  - # 1
    frequency:   71.1662869510
  - # 2
    frequency:   71.1662869510
  - # 3
    frequency:  178.3929702434
  - # 4
    frequency:  502.5100999596
  - # 5
    frequency:  502.5100999596
  - # 6
    frequency:  507.0232899528

- q-position: [    0.0000000,    0.1919192,    0.1919192 ]
  distance:    0.0708189
  band:
  - # 1
    frequency:   72.9308834179
  - # 2
    frequency:   72.9308834179
  - # 3
    frequency:  182.9424045422
  - # 4
    frequency:  501.7911070140
  - # 5
    frequency:  501.7911070140
  - # 6
    frequency:  506.4230050895

- q-position: [    0.0000000,    0.1969697,    0.1969697 ]
  distance:    0.0726825
  band:
  - # 1
    frequency:   74.6829998585
  - # 2
    frequency:   74.6829998585
  - # 3
    frequency:  187.4711505227
  - # 4
    frequency:  501.0580404204
  - # 5
    frequency:  501.0580404204
  - # 6
    frequency:  505.7982781839

- q-position: [    0.0000000,    0.2020202,    0.2020202 ]
  distance:    0.0745462
  band:
  - # 1
    frequency:   76.4223011968
  - # 2
    frequency:   76.4223011968
  - # 3
    frequency:  191.9787905850
  - # 4
    frequency:  500.3113956768
  - # 5
    frequency:  500.3113956768
  - # 6
    frequency:  505.1485885801

- q-position: [    0.0000000,    0.2070707,    0.2070707 ]
  distance:    0.0764099
  band:
  - # 1
    frequency:   78.1484460148
  - # 2
    frequency:   78.1484460148
  - # 3
    frequency:  196.4649146468
  - # 4
    frequency:  499.5516913127
  - # 5
    frequency:  499.5516913127
  - # 6
    frequency:  504.4734182492

- q-position: [    0.0000000,    0.2121212,    0.2121212 ]
  distance:    0.0782735
  band:
  - # 1
    frequency:   79.8610858256
  - # 2
    frequency:   79.8610858256
  - # 3
    frequency:  200.9291200784
  - # 4
    frequency:  498.7794693311
  - # 5
    frequency:  498.7794693311
  - # 6
    frequency:  503.7722526055

- q-position: [    0.0000000,    0.2171717,    0.2171717 ]
  distance:    0.0801372
  band:
  - # 1
    frequency:   81.5598643372
  - # 2
    frequency:   81.5598643372
  - # 3
    frequency:  205.3710116264
  - # 4
    frequency:  497.9952956191
  - # 5
    frequency:  497.9952956191
  - # 6
    frequency:  503.0445813000

- q-position: [    0.0000000,    0.2222222,    0.2222222 ]
  distance:    0.0820008
  band:
  - # 1
    frequency:   83.2444167109
  - # 2
    frequency:   83.2444167109
  - # 3
    frequency:  209.7902013254
  - # 4
    frequency:  497.1997603235
  - # 5
    frequency:  497.1997603235
  - # 6
    frequency:  502.2898989917

- q-position: [    0.0000000,    0.2272727,    0.2272727 ]
  distance:    0.0838645
  band:
  - # 1
    frequency:   84.9143688175
  - # 2
    frequency:   84.9143688175
  - # 3
    frequency:  214.1863083991
  - # 4
    frequency:  496.3934781867
  - # 5
    frequency:  496.3934781867
  - # 6
    frequency:  501.5077060939

- q-position: [    0.0000000,    0.2323232,    0.2323232 ]
  distance:    0.0857281
  band:
  - # 1
    frequency:   86.5693364974
  - # 2
    frequency:   86.5693364974
  - # 3
    frequency:  218.5589591507
  - # 4
    frequency:  495.5770888404
  - # 5
    frequency:  495.5770888404
  - # 6
    frequency:  500.6975094953

- q-position: [    0.0000000,    0.2373737,    0.2373737 ]
  distance:    0.0875918
  band:
  - # 1
    frequency:   88.2089248274
  - # 2
    frequency:   88.2089248274
  - # 3
    frequency:  222.9077868441
  - # 4
    frequency:  494.7512570536
  - # 5
    frequency:  494.7512570536
  - # 6
    frequency:  499.8588232543

- q-position: [    0.0000000,    0.2424242,    0.2424242 ]
  distance:    0.0894554
  band:
  - # 1
    frequency:   89.8327274025
  - # 2
    frequency:   89.8327274025
  - # 3
    frequency:  227.2324315757
  - # 4
    frequency:  493.9166729290
  - # 5
    frequency:  493.9166729290
  - # 6
    frequency:  498.9911692650

- q-position: [    0.0000000,    0.2474747,    0.2474747 ]
  distance:    0.0913191
  band:
  - # 1
    frequency:   91.4403256343
  - # 2
    frequency:   91.4403256343
  - # 3
    frequency:  231.5325401380
  - # 4
    frequency:  493.0740520461
  - # 5
    frequency:  493.0740520461
  - # 6
    frequency:  498.0940778947

- q-position: [    0.0000000,    0.2525253,    0.2525253 ]
  distance:    0.0931828
  band:
  - # 1
    frequency:   93.0312880752
  - # 2
    frequency:   93.0312880752
  - # 3
    frequency:  235.8077658754
  - # 4
    frequency:  492.2241355444
  - # 5
    frequency:  492.2241355444
  - # 6
    frequency:  497.1670885915

- q-position: [    0.0000000,    0.2575758,    0.2575758 ]
  distance:    0.0950464
  band:
  - # 1
    frequency:   94.6051697717
  - # 2
    frequency:   94.6051697717
  - # 3
    frequency:  240.0577685332
  - # 4
    frequency:  491.3676901443
  - # 5
    frequency:  491.3676901443
  - # 6
    frequency:  496.2097504617

- q-position: [    0.0000000,    0.2626263,    0.2626263 ]
  distance:    0.0969101
  band:
  - # 1
    frequency:   96.1615116556
  - # 2
    frequency:   96.1615116556
  - # 3
    frequency:  244.2822141008
  - # 4
    frequency:  490.5055080999
  - # 5
    frequency:  490.5055080999
  - # 6
    frequency:  495.2216228157

- q-position: [    0.0000000,    0.2676768,    0.2676768 ]
  distance:    0.0987737
  band:
  - # 1
    frequency:   97.6998399768
  - # 2
    frequency:   97.6998399768
  - # 3
    frequency:  248.4807746490
  - # 4
    frequency:  489.6384070793
  - # 5
    frequency:  489.6384070793
  - # 6
    frequency:  494.2022756821

- q-position: [    0.0000000,    0.2727273,    0.2727273 ]
  distance:    0.1006374
  band:
  - # 1
    frequency:   99.2196657873
  - # 2
    frequency:   99.2196657873
  - # 3
    frequency:  252.6531281633
  - # 4
    frequency:  488.7672299682
  - # 5
    frequency:  488.7672299682
  - # 6
    frequency:  493.1512902907

- q-position: [    0.0000000,    0.2777778,    0.2777778 ]
  distance:    0.1025010
  band:
  - # 1
    frequency:  100.7204844805
  - # 2
    frequency:  100.7204844805
  - # 3
    frequency:  256.7989583736
  - # 4
    frequency:  487.8928445907
  - # 5
    frequency:  487.8928445907
  - # 6
    frequency:  492.0682595217

- q-position: [    0.0000000,    0.2828283,    0.2828283 ]
  distance:    0.1043647
  band:
  - # 1
    frequency:  102.2017753953
  - # 2
    frequency:  102.2017753953
  - # 3
    frequency:  260.9179545807
  - # 4
    frequency:  487.0161433435
  - # 5
    frequency:  487.0161433435
  - # 6
    frequency:  490.9527883228

- q-position: [    0.0000000,    0.2878788,    0.2878788 ]
  distance:    0.1062283
  band:
  - # 1
    frequency:  103.6630014912
  - # 2
    frequency:  103.6630014912
  - # 3
    frequency:  265.0098114810
  - # 4
    frequency:  486.1380427377
  - # 5
    frequency:  486.1380427377
  - # 6
    frequency:  489.8044940935

- q-position: [    0.0000000,    0.2929293,    0.2929293 ]
  distance:    0.1080920
  band:
  - # 1
    frequency:  105.1036091005
  - # 2
    frequency:  105.1036091005
  - # 3
    frequency:  269.0742289906
  - # 4
    frequency:  485.2594828436
  - # 5
    frequency:  485.2594828436
  - # 6
    frequency:  488.6230070362

- q-position: [    0.0000000,    0.2979798,    0.2979798 ]
  distance:    0.1099556
  band:
  - # 1
    frequency:  106.5230277676
  - # 2
    frequency:  106.5230277676
  - # 3
    frequency:  273.1109120687
  - # 4
    frequency:  484.3814266333
  - # 5
    frequency:  484.3814266333
  - # 6
    frequency:  487.4079704746

- q-position: [    0.0000000,    0.3030303,    0.3030303 ]
  distance:    0.1118193
  band:
  - # 1
    frequency:  107.9206701804
  - # 2
    frequency:  107.9206701804
  - # 3
    frequency:  277.1195705419
  - # 4
    frequency:  483.5048592153
  - # 5
    frequency:  483.5048592153
  - # 6
    frequency:  486.1590411388

- q-position: [    0.0000000,    0.3080808,    0.3080808 ]
  distance:    0.1136830
  band:
  - # 1
    frequency:  109.2959322021
  - # 2
    frequency:  109.2959322021
  - # 3
    frequency:  281.0999189300
  - # 4
    frequency:  482.6307869577
  - # 5
    frequency:  482.6307869577
  - # 6
    frequency:  484.8758894185

- q-position: [    0.0000000,    0.3131313,    0.3131313 ]
  distance:    0.1155466
  band:
  - # 1
    frequency:  110.6481930103
  - # 2
    frequency:  110.6481930103
  - # 3
    frequency:  285.0516762748
  - # 4
    frequency:  481.7602364935
  - # 5
    frequency:  481.7602364935
  - # 6
    frequency:  483.5581995833

- q-position: [    0.0000000,    0.3181818,    0.3181818 ]
  distance:    0.1174103
  band:
  - # 1
    frequency:  111.9768153510
  - # 2
    frequency:  111.9768153510
  - # 3
    frequency:  288.9745659717
  - # 4
    frequency:  480.8942536047
  - # 5
    frequency:  480.8942536047
  - # 6
    frequency:  482.2056699710

- q-position: [    0.0000000,    0.3232323,    0.3232323 ]
  distance:    0.1192739
  band:
  - # 1
    frequency:  113.2811459126
  - # 2
    frequency:  113.2811459126
  - # 3
    frequency:  292.8683156055
  - # 4
    frequency:  480.0339019804
  - # 5
    frequency:  480.0339019804
  - # 6
    frequency:  480.8180131449

- q-position: [    0.0000000,    0.3282828,    0.3282828 ]
  distance:    0.1211376
  band:
  - # 1
    frequency:  114.5605158279
  - # 2
    frequency:  114.5605158279
  - # 3
    frequency:  296.7326567919
  - # 4
    frequency:  479.1802618440
  - # 5
    frequency:  479.1802618440
  - # 6
    frequency:  479.3949560194

- q-position: [    0.0000000,    0.3333333,    0.3333333 ]
  distance:    0.1230012
  band:
  - # 1
    frequency:  115.8142413088
  - # 2
    frequency:  115.8142413088
  - # 3
    frequency:  300.5673250247
  - # 4
    frequency:  477.9362399558
  - # 5
    frequency:  478.3344284482
  - # 6
    frequency:  478.3344284482

- q-position: [    0.0000000,    0.3383838,    0.3383838 ]
  distance:    0.1248649
  band:
  - # 1
    frequency:  117.0416244199
  - # 2
    frequency:  117.0416244199
  - # 3
    frequency:  304.3720595293
  - # 4
    frequency:  476.4416208275
  - # 5
    frequency:  477.4975104320
  - # 6
    frequency:  477.4975104320

- q-position: [    0.0000000,    0.3434343,    0.3434343 ]
  distance:    0.1267285
  band:
  - # 1
    frequency:  118.2419539943
  - # 2
    frequency:  118.2419539943
  - # 3
    frequency:  308.1466031245
  - # 4
    frequency:  474.9108690572
  - # 5
    frequency:  476.6706280397
  - # 6
    frequency:  476.6706280397

- q-position: [    0.0000000,    0.3484848,    0.3484848 ]
  distance:    0.1285922
  band:
  - # 1
    frequency:  119.4145066965
  - # 2
    frequency:  119.4145066965
  - # 3
    frequency:  311.8907020926
  - # 4
    frequency:  473.3437696246
  - # 5
    frequency:  475.8549111983
  - # 6
    frequency:  475.8549111983

- q-position: [    0.0000000,    0.3535354,    0.3535354 ]
  distance:    0.1304559
  band:
  - # 1
    frequency:  120.5585482351
  - # 2
    frequency:  120.5585482351
  - # 3
    frequency:  315.6041060577
  - # 4
    frequency:  471.7401220475
  - # 5
    frequency:  475.0514974543
  - # 6
    frequency:  475.0514974543

- q-position: [    0.0000000,    0.3585859,    0.3585859 ]
  distance:    0.1323195
  band:
  - # 1
    frequency:  121.6733347267
  - # 2
    frequency:  121.6733347267
  - # 3
    frequency:  319.2865678757
  - # 4
    frequency:  470.0997403358
  - # 5
    frequency:  474.2615297685
  - # 6
    frequency:  474.2615297685

- q-position: [    0.0000000,    0.3636364,    0.3636364 ]
  distance:    0.1341832
  band:
  - # 1
    frequency:  122.7581142122
  - # 2
    frequency:  122.7581142122
  - # 3
    frequency:  322.9378435327
  - # 4
    frequency:  468.4224529203
  - # 5
    frequency:  473.4861541705
  - # 6
    frequency:  473.4861541705

- q-position: [    0.0000000,    0.3686869,    0.3686869 ]
  distance:    0.1360468
  band:
  - # 1
    frequency:  123.8121283248
  - # 2
    frequency:  123.8121283248
  - # 3
    frequency:  326.5576920567
  - # 4
    frequency:  466.7081025562
  - # 5
    frequency:  472.7265172754
  - # 6
    frequency:  472.7265172754

- q-position: [    0.0000000,    0.3737374,    0.3737374 ]
  distance:    0.1379105
  band:
  - # 1
    frequency:  124.8346141079
  - # 2
    frequency:  124.8346141079
  - # 3
    frequency:  330.1458754396
  - # 4
    frequency:  464.9565462034
  - # 5
    frequency:  471.9837636667
  - # 6
    frequency:  471.9837636667

- q-position: [    0.0000000,    0.3787879,    0.3787879 ]
  distance:    0.1397741
  band:
  - # 1
    frequency:  125.8248059795
  - # 2
    frequency:  125.8248059795
  - # 3
    frequency:  333.7021585727
  - # 4
    frequency:  463.1676548842
  - # 5
    frequency:  471.2590331494
  - # 6
    frequency:  471.2590331494

- q-position: [    0.0000000,    0.3838384,    0.3838384 ]
  distance:    0.1416378
  band:
  - # 1
    frequency:  126.7819378374
  - # 2
    frequency:  126.7819378374
  - # 3
    frequency:  337.2263091943
  - # 4
    frequency:  461.3413135189
  - # 5
    frequency:  470.5534578812
  - # 6
    frequency:  470.5534578812

- q-position: [    0.0000000,    0.3888889,    0.3888889 ]
  distance:    0.1435014
  band:
  - # 1
    frequency:  127.7052453002
  - # 2
    frequency:  127.7052453002
  - # 3
    frequency:  340.7180978522
  - # 4
    frequency:  459.4774207421
  - # 5
    frequency:  469.8681593881
  - # 6
    frequency:  469.8681593881

- q-position: [    0.0000000,    0.3939394,    0.3939394 ]
  distance:    0.1453651
  band:
  - # 1
    frequency:  128.5939680742
  - # 2
    frequency:  128.5939680742
  - # 3
    frequency:  344.1772978784
  - # 4
    frequency:  457.5758886985
  - # 5
    frequency:  469.2042454769
  - # 6
    frequency:  469.2042454769

- q-position: [    0.0000000,    0.3989899,    0.3989899 ]
  distance:    0.1472287
  band:
  - # 1
    frequency:  129.4473524358
  - # 2
    frequency:  129.4473524358
  - # 3
    frequency:  347.6036853799
  - # 4
    frequency:  455.6366428219
  - # 5
    frequency:  468.5628070534
  - # 6
    frequency:  468.5628070534

- q-position: [    0.0000000,    0.4040404,    0.4040404 ]
  distance:    0.1490924
  band:
  - # 1
    frequency:  130.2646538193
  - # 2
    frequency:  130.2646538193
  - # 3
    frequency:  350.9970392430
  - # 4
    frequency:  453.6596215964
  - # 5
    frequency:  467.9449148612
  - # 6
    frequency:  467.9449148612

- q-position: [    0.0000000,    0.4090909,    0.4090909 ]
  distance:    0.1509561
  band:
  - # 1
    frequency:  131.0451394937
  - # 2
    frequency:  131.0451394937
  - # 3
    frequency:  354.3571411532
  - # 4
    frequency:  451.6447763025
  - # 5
    frequency:  467.3516161557
  - # 6
    frequency:  467.3516161557

- q-position: [    0.0000000,    0.4141414,    0.4141414 ]
  distance:    0.1528197
  band:
  - # 1
    frequency:  131.7880913149
  - # 2
    frequency:  131.7880913149
  - # 3
    frequency:  357.6837756309
  - # 4
    frequency:  449.5920707487
  - # 5
    frequency:  466.7839313297
  - # 6
    frequency:  466.7839313297

- q-position: [    0.0000000,    0.4191919,    0.4191919 ]
  distance:    0.1546834
  band:
  - # 1
    frequency:  132.4928085343
  - # 2
    frequency:  132.4928085343
  - # 3
    frequency:  360.9767300813
  - # 4
    frequency:  447.5014809902
  - # 5
    frequency:  466.2428505093
  - # 6
    frequency:  466.2428505093

- q-position: [    0.0000000,    0.4242424,    0.4242424 ]
  distance:    0.1565470
  band:
  - # 1
    frequency:  133.1586106461
  - # 2
    frequency:  133.1586106461
  - # 3
    frequency:  364.2357948617
  - # 4
    frequency:  445.3729950352
  - # 5
    frequency:  465.7293301406
  - # 6
    frequency:  465.7293301406

- q-position: [    0.0000000,    0.4292929,    0.4292929 ]
  distance:    0.1584107
  band:
  - # 1
    frequency:  133.7848402515
  - # 2
    frequency:  133.7848402515
  - # 3
    frequency:  367.4607633630
  - # 4
    frequency:  443.2066125414
  - # 5
    frequency:  465.2442895870
  - # 6
    frequency:  465.2442895870

- q-position: [    0.0000000,    0.4343434,    0.4343434 ]
  distance:    0.1602743
  band:
  - # 1
    frequency:  134.3708659183
  - # 2
    frequency:  134.3708659183
  - # 3
    frequency:  370.6514321083
  - # 4
    frequency:  441.0023445024
  - # 5
    frequency:  464.7886077611
  - # 6
    frequency:  464.7886077611

- q-position: [    0.0000000,    0.4393939,    0.4393939 ]
  distance:    0.1621380
  band:
  - # 1
    frequency:  134.9160850140
  - # 2
    frequency:  134.9160850140
  - # 3
    frequency:  373.8076008662
  - # 4
    frequency:  438.7602129266
  - # 5
    frequency:  464.3631198149
  - # 6
    frequency:  464.3631198149

- q-position: [    0.0000000,    0.4444444,    0.4444444 ]
  distance:    0.1640016
  band:
  - # 1
    frequency:  135.4199264858
  - # 2
    frequency:  135.4199264858
  - # 3
    frequency:  376.9290727808
  - # 4
    frequency:  436.4802505092
  - # 5
    frequency:  463.9686139114
  - # 6
    frequency:  463.9686139114

- q-position: [    0.0000000,    0.4494949,    0.4494949 ]
  distance:    0.1658653
  band:
  - # 1
    frequency:  135.8818535668
  - # 2
    frequency:  135.8818535668
  - # 3
    frequency:  380.0156545166
  - # 4
    frequency:  434.1625002984
  - # 5
    frequency:  463.6058281043
  - # 6
    frequency:  463.6058281043

- q-position: [    0.0000000,    0.4545455,    0.4545455 ]
  distance:    0.1677290
  band:
  - # 1
    frequency:  136.3013663793
  - # 2
    frequency:  136.3013663793
  - # 3
    frequency:  383.0671564190
  - # 4
    frequency:  431.8070153574
  - # 5
    frequency:  463.2754473497
  - # 6
    frequency:  463.2754473497

- q-position: [    0.0000000,    0.4595960,    0.4595960 ]
  distance:    0.1695926
  band:
  - # 1
    frequency:  136.6780044149
  - # 2
    frequency:  136.6780044149
  - # 3