mesh: [    20,    20,    20 ]
nqpoint: 770    
natom:   2      
phonon:
- q-position: [    0.0250000,    0.0250000,    0.0250000 ]
  weight: 2    
  band:
  - # 1
    frequency:     7.7779593031
  - # 2
    frequency:     7.7779593031
  - # 3
    frequency:    21.8527638522
  - # 4
    frequency:   516.1755208254
  - # 5
    frequency:   516.2476612416
  - # 6
    frequency:   516.2476612416

- q-position: [    0.0750000,    0.0250000,    0.0250000 ]
  weight: 6    
  band:
  - # 1
    frequency:    18.6043480825
  - # 2
    frequency:    21.4100171656
  - # 3
    frequency:    54.5370334929
  - # 4
    frequency:   515.0924926794
  - # 5
    frequency:   515.3057369203
  - # 6
    frequency:   515.6481773546

- q-position: [    0.1250000,    0.0250000,    0.0250000 ]
  weight: 6    
  band:
  - # 1
    frequency:    33.1031210332
  - # 2
    frequency:    36.2795597122
  - # 3
    frequency:    96.1064066866
  - # 4
    frequency:   512.1485349021
  - # 5
    frequency:   513.3725938724
  - # 6
    frequency:   513.9771794683

- q-position: [    0.1750000,    0.0250000,    0.0250000 ]
  weight: 6    
  band:
  - # 1
    frequency:    47.5870752607
  - # 2
    frequency:    50.9424410128
  - # 3
    frequency:   138.2977531125
  - # 4
    frequency:   507.1741724717
  - # 5
    frequency:   510.5440690393
  - # 6
    frequency:   511.3611475102

- q-position: [    0.2250000,    0.0250000,    0.0250000 ]
  weight: 6    
  band:
  - # 1
    frequency:    61.4381997608
  - # 2
    frequency:    64.8854048095
  - # 3
    frequency:   180.0342018940
  - # 4
    frequency:   499.8614227275
  - # 5
    frequency:   507.0522025418
  - # 6
    frequency:   508.0077363567

- q-position: [    0.2750000,    0.0250000,    0.0250000 ]
  weight: 6    
  band:
  - # 1
    frequency:    74.2376413311
  - # 2
    frequency:    77.6729331545
  - # 3
    frequency:   220.7559788232
  - # 4
    frequency:   489.8821348365
  - # 5
    frequency:   503.1997813551
  - # 6
    frequency:   504.2015481178

- q-position: [    0.3250000,    0.0250000,    0.0250000 ]
  weight: 6    
  band:
  - # 1
    frequency:    85.5611557944
  - # 2
    frequency:    88.8616917524
  - # 3
    frequency:   259.9372014343
  - # 4
    frequency:   476.9557949514
  - # 5
    frequency:   499.3480433798
  - # 6
    frequency:   500.2928406111

- q-position: [    0.3750000,    0.0250000,    0.0250000 ]
  weight: 6    
  band:
  - # 1
    frequency:    94.9624771485
  - # 2
    frequency:    97.9974280145
  - # 3
    frequency:   296.9807910762
  - # 4
    frequency:   460.9411211356
  - # 5
    frequency:   495.8911701628
  - # 6
    frequency:   496.6744149333

- q-position: [    0.4250000,    0.0250000,    0.0250000 ]
  weight: 6    
  band:
  - # 1
    frequency:   102.0025046228
  - # 2
    frequency:   104.6488376470
  - # 3
    frequency:   331.0464187761
  - # 4
    frequency:   442.0499940488
  - # 5
    frequency:   493.2143962013
  - # 6
    frequency:   493.7428849965

- q-position: [    0.4750000,    0.0250000,    0.0250000 ]
  weight: 6    
  band:
  - # 1
    frequency:   106.3021429365
  - # 2
    frequency:   108.4619953945
  - # 3
    frequency:   359.9904545232
  - # 4
    frequency:   421.9526482177
  - # 5
    frequency:   491.6384665305
  - # 6
    frequency:   491.8450668376

- q-position: [   -0.4750000,    0.0250000,    0.0250000 ]
  weight: 6    
  band:
  - # 1
    frequency:   107.6036850844
  - # 2
    frequency:   109.2189993220
  - # 3
    frequency:   371.4744464936
  - # 4
    frequency:   412.7042195419
  - # 5
    frequency:   491.2186077713
  - # 6
    frequency:   491.3620519719

- q-position: [   -0.4250000,    0.0250000,    0.0250000 ]
  weight: 6    
  band:
  - # 1
    frequency:   105.8206185130
  - # 2
    frequency:   106.8799743813
  - # 3
    frequency:   351.2264330784
  - # 4
    frequency:   428.5041666331
  - # 5
    frequency:   491.9443567861
  - # 6
    frequency:   492.4207923297

- q-position: [   -0.3750000,    0.0250000,    0.0250000 ]
  weight: 6    
  band:
  - # 1
    frequency:   101.0561771703
  - # 2
    frequency:   101.5908779301
  - # 3
    frequency:   320.1093901706
  - # 4
    frequency:   448.6330282779
  - # 5
    frequency:   493.9288506174
  - # 6
    frequency:   494.6795297115

- q-position: [   -0.3250000,    0.0250000,    0.0250000 ]
  weight: 6    
  band:
  - # 1
    frequency:    93.5826359919
  - # 2
    frequency:    93.6535872583
  - # 3
    frequency:   284.9306644738
  - # 4
    frequency:   466.6324577682
  - # 5
    frequency:   496.9244966580
  - # 6
    frequency:   497.8611574120

- q-position: [   -0.2750000,    0.0250000,    0.0250000 ]
  weight: 6    
  band:
  - # 1
    frequency:    83.4713132378
  - # 2
    frequency:    83.7904605424
  - # 3
    frequency:   247.1060979170
  - # 4
    frequency:   481.6152585474
  - # 5
    frequency:   500.5787292593
  - # 6
    frequency:   501.5998409715

- q-position: [   -0.2250000,    0.0250000,    0.0250000 ]
  weight: 6    
  band:
  - # 1
    frequency:    71.4905729897
  - # 2
    frequency:    72.1273296845
  - # 3
    frequency:   207.3549299897
  - # 4
    frequency:   493.5311547769
  - # 5
    frequency:   504.4934467867
  - # 6
    frequency:   505.4993240950

- q-position: [   -0.1750000,    0.0250000,    0.0250000 ]
  weight: 6    
  band:
  - # 1
    frequency:    58.1591960138
  - # 2
    frequency:    59.0469009959
  - # 3
    frequency:   166.2378951912
  - # 4
    frequency:   502.5816853756
  - # 5
    frequency:   508.2777230885
  - # 6
    frequency:   509.1811279526

- q-position: [   -0.1250000,    0.0250000,    0.0250000 ]
  weight: 6    
  band:
  - # 1
    frequency:    43.9190609185
  - # 2
    frequency:    44.9829849726
  - # 3
    frequency:   124.2691171372
  - # 4
    frequency:   509.0722527217
  - # 5
    frequency:   511.5853815350
  - # 6
    frequency:   512.3165401293

- q-position: [   -0.0750000,    0.0250000,    0.0250000 ]
  weight: 6    
  band:
  - # 1
    frequency:    29.2893594126
  - # 2
    frequency:    30.3786373228
  - # 3
    frequency:    82.0511792689
  - # 4
    frequency:   513.3320177897
  - # 5
    frequency:   514.1371500030
  - # 6
    frequency:   514.6441271265

- q-position: [   -0.0250000,    0.0250000,    0.0250000 ]
  weight: 6    
  band:
  - # 1
    frequency:    15.4437269143
  - # 2
    frequency:    15.9969105226
  - # 3
    frequency:    41.1801866082
  - # 4
    frequency:   515.6457129626
  - # 5
    frequency:   515.7313268953
  - # 6
    frequency:   515.9806008584

- q-position: [    0.0750000,    0.0750000,    0.0250000 ]
  weight: 6    
  band:
  - # 1
    frequency:    25.0672807093
  - # 2
    frequency:    25.3634555666
  - # 3
    frequency:    63.8787902059
  - # 4
    frequency:   514.6082562025
  - # 5
    frequency:   514.7026449229
  - # 6
    frequency:   515.4143996023

- q-position: [    0.1250000,    0.0750000,    0.0250000 ]
  weight: 12   
  band:
  - # 1
    frequency:    35.0113277229
  - # 2
    frequency:    38.5470669792
  - # 3
    frequency:    94.3536014877
  - # 4
    frequency:   512.4729191662
  - # 5
    frequency:   512.7936022158
  - # 6
    frequency:   514.1966873499

- q-position: [    0.1750000,    0.0750000,    0.0250000 ]
  weight: 12   
  band:
  - # 1
    frequency:    47.7007727664
  - # 2
    frequency:    52.9614323573
  - # 3
    frequency:   131.5802726286
  - # 4
    frequency:   508.2495845057
  - # 5
    frequency:   510.0527921812
  - # 6
    frequency:   512.0003059069

- q-position: [    0.2250000,    0.0750000,    0.0250000 ]
  weight: 12   
  band:
  - # 1
    frequency:    60.9544645752
  - # 2
    frequency:    67.3166619115
  - # 3
    frequency:   170.6238474129
  - # 4
    frequency:   501.7559541277
  - # 5
    frequency:   506.6156320673
  - # 6
    frequency:   508.9814511416

- q-position: [    0.2750000,    0.0750000,    0.0250000 ]
  weight: 12   
  band:
  - # 1
    frequency:    73.6579458245
  - # 2
    frequency:    80.8954237406
  - # 3
    frequency:   209.7970585231
  - # 4
    frequency:   492.6643927867
  - # 5
    frequency:   502.7776277756
  - # 6
    frequency:   505.3938217625

- q-position: [    0.3250000,    0.0750000,    0.0250000 ]
  weight: 12   
  band:
  - # 1
    frequency:    85.1367670339
  - # 2
    frequency:    93.1271704397
  - # 3
    frequency:   248.1756215134
  - # 4
    frequency:   480.6848917481
  - # 5
    frequency:   498.8934042162
  - # 6
    frequency:   501.5520627728

- q-position: [    0.3750000,    0.0750000,    0.0250000 ]
  weight: 12   
  band:
  - # 1
    frequency:    94.8334782367
  - # 2
    frequency:   103.5155882620
  - # 3
    frequency:   285.0053080947
  - # 4
    frequency:   465.6445295052
  - # 5
    frequency:   495.3540736616
  - # 6
    frequency:   497.8164491996

- q-position: [    0.4250000,    0.0750000,    0.0250000 ]
  weight: 12   
  band:
  - # 1
    frequency:   102.2398545280
  - # 2
    frequency:   111.6198975838
  - # 3
    frequency:   319.4484409869
  - # 4
    frequency:   447.6368336434
  - # 5
    frequency:   492.5472831780
  - # 6
    frequency:   494.5689830015

- q-position: [    0.4750000,    0.0750000,    0.0250000 ]
  weight: 12   
  band:
  - # 1
    frequency:   106.9263722444
  - # 2
    frequency:   117.0653232263
  - # 3
    frequency:   349.9739626525
  - # 4
    frequency:   427.6285013786
  - # 5
    frequency:   490.8000967830
  - # 6
    frequency:   492.1752227397

- q-position: [   -0.4750000,    0.0750000,    0.0250000 ]
  weight: 12   
  band:
  - # 1
    frequency:   108.6055909430
  - # 2
    frequency:   119.5708072756
  - # 3
    frequency:   369.6745306735
  - # 4
    frequency:   412.1619004873
  - # 5
    frequency:   490.2953889960
  - # 6
    frequency:   490.9556005496

- q-position: [   -0.4250000,    0.0750000,    0.0250000 ]
  weight: 12   
  band:
  - # 1
    frequency:   107.1862998979
  - # 2
    frequency:   118.9843283444
  - # 3
    frequency:   358.5211323633
  - # 4
    frequency:   421.1185603050
  - # 5
    frequency:   490.7658714197
  - # 6
    frequency:   491.3938630684

- q-position: [   -0.3750000,    0.0750000,    0.0250000 ]
  weight: 12   
  band:
  - # 1
    frequency:   102.7879974372
  - # 2
    frequency:   115.3114524545
  - # 3
    frequency:   330.1036753845
  - # 4
    frequency:   440.9870401711
  - # 5
    frequency:   492.1293295201
  - # 6
    frequency:   493.4556419408

- q-position: [   -0.3250000,    0.0750000,    0.0250000 ]
  weight: 12   
  band:
  - # 1
    frequency:    95.7103308805
  - # 2
    frequency:   108.7198740180
  - # 3
    frequency:   296.6496560119
  - # 4
    frequency:   459.8409042505
  - # 5
    frequency:   494.5691958409
  - # 6
    frequency:   496.5328190199

- q-position: [   -0.2750000,    0.0750000,    0.0250000 ]
  weight: 12   
  band:
  - # 1
    frequency:    86.3753715132
  - # 2
    frequency:    99.5135455152
  - # 3
    frequency:   260.4446875261
  - # 4
    frequency:   475.9042926216
  - # 5
    frequency:   497.8347595977
  - # 6
    frequency:   500.2286208471

- q-position: [   -0.2250000,    0.0750000,    0.0250000 ]
  weight: 12   
  band:
  - # 1
    frequency:    75.2694957813
  - # 2
    frequency:    88.0876445000
  - # 3
    frequency:   222.4521060155
  - # 4
    frequency:   488.9140564179
  - # 5
    frequency:   501.5693980882
  - # 6
    frequency:   504.1414660125

- q-position: [   -0.1750000,    0.0750000,    0.0250000 ]
  weight: 12   
  band:
  - # 1
    frequency:    62.9110274477
  - # 2
    frequency:    74.8842020829
  - # 3
    frequency:   183.4512801563
  - # 4
    frequency:   498.9774903855
  - # 5
    frequency:   505.3935555078
  - # 6
    frequency:   507.8858085030

- q-position: [   -0.1250000,    0.0750000,    0.0250000 ]
  weight: 12   
  band:
  - # 1
    frequency:    49.8779134566
  - # 2
    frequency:    60.3639493747
  - # 3
    frequency:   144.3263068615
  - # 4
    frequency:   506.3516091916
  - # 5
    frequency:   508.9490895600
  - # 6
    frequency:   511.1229944298

- q-position: [   -0.0750000,    0.0750000,    0.0250000 ]
  weight: 12   
  band:
  - # 1
    frequency:    36.9926720623
  - # 2
    frequency:    45.0051537973
  - # 3
    frequency:   106.4981552813
  - # 4
    frequency:   511.3518294590
  - # 5
    frequency:   511.9249961372
  - # 6
    frequency:   513.5806885299

- q-position: [   -0.0250000,    0.0750000,    0.0250000 ]
  weight: 12   
  band:
  - # 1
    frequency:    26.0173338202
  - # 2
    frequency:    29.5303314289
  - # 3
    frequency:    73.3852797760
  - # 4
    frequency:   514.0395849939
  - # 5
    frequency:   514.3072355681
  - # 6
    frequency:   515.0713841806

- q-position: [    0.1250000,    0.1250000,    0.0250000 ]
  weight: 6    
  band:
  - # 1
    frequency:    44.3200259698
  - # 2
    frequency:    44.4264789799
  - # 3
    frequency:   110.7281962914
  - # 4
    frequency:   511.0257305340
  - # 5
    frequency:   511.1473257771
  - # 6
    frequency:   513.2882384940

- q-position: [    0.1750000,    0.1250000,    0.0250000 ]
  weight: 12   
  band:
  - # 1
    frequency:    53.6465712347
  - # 2
    frequency:    57.1991376703
  - # 3
    frequency:   138.3126473930
  - # 4
    frequency:   507.8138713942
  - # 5
    frequency:   508.3455513460
  - # 6
    frequency:   511.3739844846

- q-position: [    0.2250000,    0.1250000,    0.0250000 ]
  weight: 12   
  band:
  - # 1
    frequency:    65.0702398981
  - # 2
    frequency:    72.0078126498
  - # 3
    frequency:   170.7896063631
  - # 4
    frequency:   502.2524342778
  - # 5
    frequency:   504.9077511978
  - # 6
    frequency:   508.6226653458

- q-position: [    0.2750000,    0.1250000,    0.0250000 ]
  weight: 12   
  band:
  - # 1
    frequency:    76.7674338074
  - # 2
    frequency:    87.4035909534
  - # 3
    frequency:   205.2760619132
  - # 4
    frequency:   494.0970265135
  - # 5
    frequency:   501.0401957070
  - # 6
    frequency:   505.2768181452

- q-position: [    0.3250000,    0.1250000,    0.0250000 ]
  weight: 12   
  band:
  - # 1
    frequency:    87.6560190127
  - # 2
    frequency:   102.1021890295
  - # 3
    frequency:   240.3124622284
  - # 4
    frequency:   483.0591299999
  - # 5
    frequency:   497.0942205268
  - # 6
    frequency:   501.6217377919

- q-position: [    0.3750000,    0.1250000,    0.0250000 ]
  weight: 12   
  band:
  - # 1
    frequency:    97.0285331078
  - # 2
    frequency:   115.1724573703
  - # 3
    frequency:   274.8844315209
  - # 4
    frequency:   468.9643881392
  - # 5
    frequency:   493.4641835977
  - # 6
    frequency:   497.9697866820

- q-position: [    0.4250000,    0.1250000,    0.0250000 ]
  weight: 12   
  band:
  - # 1
    frequency:   104.3163939017
  - # 2
    frequency:   125.9573149415
  - # 3
    frequency:   308.0343569379
  - # 4
    frequency:   451.8674729324
  - # 5
    frequency:   490.5460671972
  - # 6
    frequency:   494.6522688743

- q-position: [    0.4750000,    0.1250000,    0.0250000 ]
  weight: 12   
  band:
  - # 1
    frequency:   109.0652872427
  - # 2
    frequency:   133.9707778242
  - # 3
    frequency:   338.4189664285
  - # 4
    frequency:   432.4289946474
  - # 5
    frequency:   488.6819536230
  - # 6
    frequency:   491.9979752072

- q-position: [   -0.4750000,    0.1250000,    0.0250000 ]
  weight: 12   
  band:
  - # 1
    frequency:   110.9748782635
  - # 2
    frequency:   138.8530537481
  - # 3
    frequency:   361.9710654689
  - # 4
    frequency:   414.2538919817
  - # 5
    frequency:   488.0951541180
  - # 6
    frequency:   490.2995865035

- q-position: [   -0.4250000,    0.1250000,    0.0250000 ]
  weight: 12   
  band:
  - # 1
    frequency:   109.9417026891
  - # 2
    frequency:   140.3674402896
  - # 3
    frequency:   361.8484429428
  - # 4
    frequency:   413.9584463048
  - # 5
    frequency:   488.7965145076
  - # 6
    frequency:   489.8138920456

- q-position: [   -0.3750000,    0.1250000,    0.0250000 ]
  weight: 12   
  band:
  - # 1
    frequency:   106.0738536059
  - # 2
    frequency:   138.4109470647
  - # 3
    frequency:   337.8590681610
  - # 4
    frequency:   431.7596056793
  - # 5
    frequency:   490.1117028995
  - # 6
    frequency:   491.1799995030

- q-position: [   -0.3250000,    0.1250000,    0.0250000 ]
  weight: 12   
  band:
  - # 1
    frequency:    99.6675036658
  - # 2
    frequency:   133.0142108267
  - # 3
    frequency:   306.9407179378
  - # 4
    frequency:   451.0038403372
  - # 5
    frequency:   491.9453680699
  - # 6
    frequency:   494.1627017780

- q-position: [   -0.2750000,    0.1250000,    0.0250000 ]
  weight: 12   
  band:
  - # 1
    frequency:    91.1572889729
  - # 2
    frequency:   124.3188275534
  - # 3
    frequency:   273.2896153516
  - # 4
    frequency:   468.0422867068
  - # 5
    frequency:   494.6378869039
  - # 6
    frequency:   497.8625070712

- q-position: [   -0.2250000,    0.1250000,    0.0250000 ]
  weight: 12   
  band:
  - # 1
    frequency:    81.0663349905
  - # 2
    frequency:   112.5390829315
  - # 3
    frequency:   238.3949162990
  - # 4
    frequency:   482.2012072544
  - # 5
    frequency:   497.9569717920
  - # 6
    frequency:   501.8239356095

- q-position: [   -0.1750000,    0.1250000,    0.0250000 ]
  weight: 12   
  band:
  - # 1
    frequency:    69.9855608535
  - # 2
    frequency:    97.9359459550
  - # 3
    frequency:   203.4313338585
  - # 4
    frequency:   493.4051895796
  - # 5
    frequency:   501.5900456333
  - # 6
    frequency:   505.6455130431

- q-position: [   -0.1250000,    0.1250000,    0.0250000 ]
  weight: 12   
  band:
  - # 1
    frequency:    58.6177305013
  - # 2
    frequency:    80.8699883197
  - # 3
    frequency:   169.6944183652
  - # 4
    frequency:   501.7698239842
  - # 5
    frequency:   505.2450687691
  - # 6
    frequency:   508.9766516685

- q-position: [   -0.0750000,    0.1250000,    0.0250000 ]
  weight: 12   
  band:
  - # 1
    frequency:    47.9467248466
  - # 2
    frequency:    62.1310834382
  - # 3
    frequency:   138.8165449927
  - # 4
    frequency:   507.3491070856
  - # 5
    frequency:   508.8117759748
  - # 6
    frequency:   511.5363793226

- q-position: [   -0.0250000,    0.1250000,    0.0250000 ]
  weight: 12   
  band:
  - # 1
    frequency:    39.5869915042
  - # 2
    frequency:    44.1455382554
  - # 3
    frequency:   113.0515814408
  - # 4
    frequency:   510.4599289142
  - # 5
    frequency:   511.9653537383
  - # 6
    frequency:   513.1392267430

- q-position: [    0.1750000,    0.1750000,    0.0250000 ]
  weight: 6    
  band:
  - # 1
    frequency:    62.7248208711
  - # 2
    frequency:    63.1204547834
  - # 3
    frequency:   157.0275141848
  - # 4
    frequency:   505.5480836874
  - # 5
    frequency:   505.7211818544
  - # 6
    frequency:   509.5430258372

- q-position: [    0.2250000,    0.1750000,    0.0250000 ]
  weight: 12   
  band:
  - # 1
    frequency:    71.6901903921
  - # 2
    frequency:    75.4604971755
  - # 3
    frequency:   182.3145292509
  - # 4
    frequency:   501.2448644721
  - # 5
    frequency:   502.1880353108
  - # 6
    frequency:   506.8140958878

- q-position: [    0.2750000,    0.1750000,    0.0250000 ]
  weight: 12   
  band:
  - # 1
    frequency:    81.8921467832
  - # 2
    frequency:    91.2602195762
  - # 3
    frequency:   210.6004869057
  - # 4
    frequency:   494.2102382508
  - # 5
    frequency:   498.2574811831
  - # 6
    frequency:   503.5750794872

- q-position: [    0.3250000,    0.1750000,    0.0250000 ]
  weight: 12   
  band:
  - # 1
    frequency:    91.8464161517
  - # 2
    frequency:   108.6334491568
  - # 3
    frequency:   240.2044592195
  - # 4
    frequency:   484.2053038640
  - # 5
    frequency:   494.2277305617
  - # 6
    frequency:   500.1057016829

- q-position: [    0.3750000,    0.1750000,    0.0250000 ]
  weight: 12   
  band:
  - # 1
    frequency:   100.6606570199
  - # 2
    frequency:   125.5178034774
  - # 3
    frequency:   270.2053461240
  - # 4
    frequency:   471.0937729201
  - # 5
    frequency:   490.4952141109
  - # 6
    frequency:   496.6545612078

- q-position: [    0.4250000,    0.1750000,    0.0250000 ]
  weight: 12   
  band:
  - # 1
    frequency:   107.6832880194
  - # 2
    frequency:   140.4161061708
  - # 3
    frequency:   299.8094652033
  - # 4
    frequency:   454.9352105787
  - # 5
    frequency:   487.4659583021
  - # 6
    frequency:   493.4868834235

- q-position: [    0.4750000,    0.1750000,    0.0250000 ]
  weight: 12   
  band:
  - # 1
    frequency:   112.4080986362
  - # 2
    frequency:   152.3567694162
  - # 3
    frequency:   327.9067345818
  - # 4
    frequency:   436.2536377614
  - # 5
    frequency:   485.4966416763
  - # 6
    frequency:   490.8698830223

- q-position: [   -0.4750000,    0.1750000,    0.0250000 ]
  weight: 12   
  band:
  - # 1
    frequency:   114.5000264983
  - # 2
    frequency:   160.7295607770
  - # 3
    frequency:   351.7918722340
  - # 4
    frequency:   417.3079702814
  - # 5
    frequency:   484.8316251229
  - # 6
    frequency:   489.0442903020

- q-position: [   -0.4250000,    0.1750000,    0.0250000 ]
  weight: 12   
  band:
  - # 1
    frequency:   113.8333658445
  - # 2
    frequency:   165.1576659056
  - # 3
    frequency:   360.4080457986
  - # 4
    frequency:   408.9018548278
  - # 5
    frequency:   485.5474858322
  - # 6
    frequency:   488.1958507039

- q-position: [   -0.3750000,    0.1750000,    0.0250000 ]
  weight: 12   
  band:
  - # 1
    frequency:   110.5056114932
  - # 2
    frequency:   165.4091606803
  - # 3
    frequency:   343.1518389301
  - # 4
    frequency:   421.6434593570
  - # 5
    frequency:   487.4662973703
  - # 6
    frequency:   488.4933450696

- q-position: [   -0.3250000,    0.1750000,    0.0250000 ]
  weight: 12   
  band:
  - # 1
    frequency:   104.8148214351
  - # 2
    frequency:   161.3298618265
  - # 3
    frequency:   315.6691174700
  - # 4
    frequency:   440.2053298821
  - # 5
    frequency:   489.4009088920
  - # 6
    frequency:   490.8494893716

- q-position: [   -0.2750000,    0.1750000,    0.0250000 ]
  weight: 12   
  band:
  - # 1
    frequency:    97.2108685579
  - # 2
    frequency:   152.7919924891
  - # 3
    frequency:   285.4559094040
  - # 4
    frequency:   457.7580800364
  - # 5
    frequency:   491.5728097089
  - # 6
    frequency:   494.5623758264

- q-position: [   -0.2250000,    0.1750000,    0.0250000 ]
  weight: 12   
  band:
  - # 1
    frequency:    88.2454906220
  - # 2
    frequency:   139.7001401943
  - # 3
    frequency:   254.9421876198
  - # 4
    frequency:   472.8639576034
  - # 5
    frequency:   494.4205272435
  - # 6
    frequency:   498.5984616051

- q-position: [   -0.1750000,    0.1750000,    0.0250000 ]
  weight: 12   
  band:
  - # 1
    frequency:    78.5484551178
  - # 2
    frequency:   122.1721700949
  - # 3
    frequency:   225.6793026215
  - # 4
    frequency:   485.1216284904
  - # 5
    frequency:   497.7766303295
  - # 6
    frequency:   502.5161181556

- q-position: [   -0.1250000,    0.1750000,    0.0250000 ]
  weight: 12   
  band:
  - # 1
    frequency:    68.8534546445
  - # 2
    frequency:   101.0142718937
  - # 3
    frequency:   198.7357179233
  - # 4
    frequency:   494.4094289155
  - # 5
    frequency:   501.4829122503
  - # 6
    frequency:   505.9501423345

- q-position: [   -0.0750000,    0.1750000,    0.0250000 ]
  weight: 12   
  band:
  - # 1
    frequency:    60.0906297530
  - # 2
    frequency:    78.3926442603
  - # 3
    frequency:   174.6621276831
  - # 4
    frequency:   500.7555274117
  - # 5
    frequency:   505.3812514665
  - # 6
    frequency:   508.6106753260

- q-position: [   -0.0250000,    0.1750000,    0.0250000 ]
  weight: 12   
  band:
  - # 1
    frequency:    53.5117015988
  - # 2
    frequency:    58.5694633205
  - # 3
    frequency:   153.9760299161
  - # 4
    frequency:   504.7413007496
  - # 5
    frequency:   508.8188899291
  - # 6
    frequency:   510.3130115077

- q-position: [    0.2250000,    0.2250000,    0.0250000 ]
  weight: 6    
  band:
  - # 1
    frequency:    80.1402426323
  - # 2
    frequency:    80.7774392754
  - # 3
    frequency:   201.7855680246
  - # 4
    frequency:   498.4230055562
  - # 5
    frequency:   498.6954557587
  - # 6
    frequency:   503.7407932742

- q-position: [    0.2750000,    0.2250000,    0.0250000 ]
  weight: 12   
  band:
  - # 1
    frequency:    88.6160208350
  - # 2
    frequency:    92.6342615278
  - # 3
    frequency:   224.9915186446
  - # 4
    frequency:   492.9964380296
  - # 5
    frequency:   494.6614303772
  - # 6
    frequency:   500.1780629066

- q-position: [    0.3250000,    0.2250000,    0.0250000 ]
  weight: 12   
  band:
  - # 1
    frequency:    97.4787965518
  - # 2
    frequency:   109.4278506622
  - # 3
    frequency:   249.5171309243
  - # 4
    frequency:   484.2278656310
  - # 5
    frequency:   490.5327176639
  - # 6
    frequency:   496.7644731652

- q-position: [    0.3750000,    0.2250000,    0.0250000 ]
  weight: 12   
  band:
  - # 1
    frequency:   105.5758746805
  - # 2
    frequency:   128.8657101499
  - # 3
    frequency:   274.2653076994
  - # 4
    frequency:   472.1674112578
  - # 5
    frequency:   486.6923948264
  - # 6
    frequency:   493.5747039449

- q-position: [    0.4250000,    0.2250000,    0.0250000 ]
  weight: 12   
  band:
  - # 1
    frequency:   112.1831638940
  - # 2
    frequency:   148.2513634408
  - # 3
    frequency:   298.7101748379
  - # 4
    frequency:   456.9825246770
  - # 5
    frequency:   483.5569105379
  - # 6
    frequency:   490.7305629008

- q-position: [    0.4750000,    0.2250000,    0.0250000 ]
  weight: 12   
  band:
  - # 1
    frequency:   116.7511203493
  - # 2
    frequency:   165.4426339780
  - # 3
    frequency:   322.3001562440
  - # 4
    frequency:   439.1446403663
  - # 5
    frequency:   481.4966642341
  - # 6
    frequency:   488.4232990423

- q-position: [   -0.4750000,    0.2250000,    0.0250000 ]
  weight: 12   
  band:
  - # 1
    frequency:   118.9122096811
  - # 2
    frequency:   178.9282403664
  - # 3
    frequency:   343.4726521938
  - # 4
    frequency:   420.2524294287
  - # 5
    frequency:   480.7709959359
  - # 6
    frequency:   486.8299368525

- q-position: [   -0.4250000,    0.2250000,    0.0250000 ]
  weight: 12   
  band:
  - # 1
    frequency:   118.5196114827
  - # 2
    frequency:   187.7314465014
  - # 3
    frequency:   355.7806783972
  - # 4
    frequency:   406.8456271030
  - # 5
    frequency:   481.4749838407
  - # 6
    frequency:   486.0720251727

- q-position: [   -0.3750000,    0.2250000,    0.0250000 ]
  weight: 12   
  band:
  - # 1
    frequency:   115.6613017425
  - # 2
    frequency:   191.2324719633
  - # 3
    frequency:   346.3740695114
  - # 4
    frequency:   411.9976515365
  - # 5
    frequency:   483.5145760736
  - # 6
    frequency:   486.2015441158

- q-position: [   -0.3250000,    0.2250000,    0.0250000 ]
  weight: 12   
  band:
  - # 1
    frequency:   110.6362756726
  - # 2
    frequency:   188.9398492917
  - # 3
    frequency:   323.4108008477
  - # 4
    frequency:   428.0658945227
  - # 5
    frequency:   486.5565709107
  - # 6
    frequency:   487.2724359837

- q-position: [   -0.2750000,    0.2250000,    0.0250000 ]
  weight: 12   
  band:
  - # 1
    frequency:   103.9027253295
  - # 2
    frequency:   180.3381363625
  - # 3
    frequency:   297.6414615883
  - # 4
    frequency:   445.2126729243
  - # 5
    frequency:   488.8552979980
  - # 6
    frequency:   490.5846132846

- q-position: [   -0.2250000,    0.2250000,    0.0250000 ]
  weight: 12   
  band:
  - # 1
    frequency:    96.0222341401
  - # 2
    frequency:   165.0894196466
  - # 3
    frequency:   272.8192715137
  - # 4
    frequency:   460.7728816056
  - # 5
    frequency:   491.3118536903
  - # 6
    frequency:   494.7168130907

- q-position: [   -0.1750000,    0.2250000,    0.0250000 ]
  weight: 12   
  band:
  - # 1
    frequency:    87.6242986615
  - # 2
    frequency:   143.7785984303
  - # 3
    frequency:   250.3819563543
  - # 4
    frequency:   473.8654654452
  - # 5
    frequency:   494.3399481101
  - # 6
    frequency:   498.7447040260

- q-position: [   -0.1250000,    0.2250000,    0.0250000 ]
  weight: 12   
  band:
  - # 1
    frequency:    79.4062029763
  - # 2
    frequency:   118.5651968299
  - # 3
    frequency:   230.2611592685
  - # 4
    frequency:   484.1238833644
  - # 5
    frequency:   497.8618338481
  - # 6
    frequency:   502.2850051199

- q-position: [   -0.0750000,    0.2250000,    0.0250000 ]
  weight: 12   
  band:
  - # 1
    frequency:    72.1698578847
  - # 2
    frequency:    93.0541850866
  - # 3
    frequency:   211.7695991626
  - # 4
    frequency:   491.5335448248
  - # 5
    frequency:   501.6623083772
  - # 6
    frequency:   505.0397286305

- q-position: [   -0.0250000,    0.2250000,    0.0250000 ]
  weight: 12   
  band:
  - # 1
    frequency:    66.8746286131
  - # 2
    frequency:    72.2123515235
  - # 3
    frequency:   194.6940084164
  - # 4
    frequency:   496.5609157018
  - # 5
    frequency:   505.1323792157
  - # 6
    frequency:   506.8229891106

- q-position: [    0.2750000,    0.2750000,    0.0250000 ]
  weight: 6    
  band:
  - # 1
    frequency:    96.2081302745
  - # 2
    frequency:    97.0590436698
  - # 3
    frequency:   244.4591714737
  - # 4
    frequency:   490.0263255251
  - # 5
    frequency:   490.5258557154
  - # 6
    frequency:   495.4674423706

- q-position: [    0.3250000,    0.2750000,    0.0250000 ]
  weight: 12   
  band:
  - # 1
    frequency:   104.0361522202
  - # 2
    frequency:   108.2277711381
  - # 3
    frequency:   265.6399464725
  - # 4
    frequency:   483.2348046032
  - # 5
    frequency:   486.3139748722
  - # 6
    frequency:   491.4093943319

- q-position: [    0.3750000,    0.2750000,    0.0250000 ]
  weight: 12   
  band:
  - # 1