# Thermal properties / unit cell (natom)

unit:
  temperature:   K
  free_energy:   kJ/mol
  entropy:       J/K/mol
  heat_capacity: J/K/mol

natom:     2
zero_point_energy:      11.8951863
high_T_entropy:        167.4129972

thermal_properties:
- temperature:         0.0000000
  free_energy:        11.8951863
  entropy:             0.0000000
  heat_capacity:       0.0000000
  energy:             11.8951863

- temperature:         0.9987516
  free_energy:        11.8951863
  entropy:             0.0000007
  heat_capacity:       0.0000000
  energy:             11.8951863

- temperature:         1.9975031
  free_energy:        11.8951862
  entropy:             0.0001037
  heat_capacity:       0.0005067
  energy:             11.8951864

- temperature:         2.9962547
  free_energy:        11.8951859
  entropy:             0.0005507
  heat_capacity:       0.0019539
  energy:             11.8951876

- temperature:         3.9950062
  free_energy:        11.8951850
  entropy:             0.0014407
  heat_capacity:       0.0046057
  energy:             11.8951907

- temperature:         4.9937578
  free_energy:        11.8951829
  entropy:             0.0029026
  heat_capacity:       0.0089868
  energy:             11.8951974

- temperature:         5.9925094
  free_energy:        11.8951790
  entropy:             0.0050848
  heat_capacity:       0.0155493
  energy:             11.8952094

- temperature:         6.9912609
  free_energy:        11.8951724
  entropy:             0.0081344
  heat_capacity:       0.0247258
  energy:             11.8952293

- temperature:         7.9900125
  free_energy:        11.8951624
  entropy:             0.0121987
  heat_capacity:       0.0369707
  energy:             11.8952598

- temperature:         8.9887640
  free_energy:        11.8951477
  entropy:             0.0174282
  heat_capacity:       0.0527741
  energy:             11.8953043

- temperature:         9.9875156
  free_energy:        11.8951271
  entropy:             0.0239800
  heat_capacity:       0.0726750
  energy:             11.8953666

- temperature:        10.9862672
  free_energy:        11.8950993
  entropy:             0.0320205
  heat_capacity:       0.0972746
  energy:             11.8954511

- temperature:        11.9850187
  free_energy:        11.8950626
  entropy:             0.0417279
  heat_capacity:       0.1272428
  energy:             11.8955627

- temperature:        12.9837703
  free_energy:        11.8950153
  entropy:             0.0532938
  heat_capacity:       0.1633108
  energy:             11.8957073

- temperature:        13.9825218
  free_energy:        11.8949555
  entropy:             0.0669229
  heat_capacity:       0.2062469
  energy:             11.8958912

- temperature:        14.9812734
  free_energy:        11.8948809
  entropy:             0.0828310
  heat_capacity:       0.2568208
  energy:             11.8961218

- temperature:        15.9800250
  free_energy:        11.8947892
  entropy:             0.1012405
  heat_capacity:       0.3157610
  energy:             11.8964070

- temperature:        16.9787765
  free_energy:        11.8946777
  entropy:             0.1223754
  heat_capacity:       0.3837145
  energy:             11.8967555

- temperature:        17.9775281
  free_energy:        11.8945437
  entropy:             0.1464552
  heat_capacity:       0.4612137
  energy:             11.8971766

- temperature:        18.9762797
  free_energy:        11.8943841
  entropy:             0.1736887
  heat_capacity:       0.5486520
  energy:             11.8976801

- temperature:        19.9750312
  free_energy:        11.8941957
  entropy:             0.2042693
  heat_capacity:       0.6462721
  energy:             11.8982760

- temperature:        20.9737828
  free_energy:        11.8939749
  entropy:             0.2383699
  heat_capacity:       0.7541632
  energy:             11.8989745

- temperature:        21.9725343
  free_energy:        11.8937183
  entropy:             0.2761401
  heat_capacity:       0.8722673
  energy:             11.8997858

- temperature:        22.9712859
  free_energy:        11.8934221
  entropy:             0.3177038
  heat_capacity:       1.0003916
  energy:             11.9007202

- temperature:        23.9700375
  free_energy:        11.8930824
  entropy:             0.3631586
  heat_capacity:       1.1382247
  energy:             11.9017873

- temperature:        24.9687890
  free_energy:        11.8926954
  entropy:             0.4125750
  heat_capacity:       1.2853558
  energy:             11.9029969

- temperature:        25.9675406
  free_energy:        11.8922570
  entropy:             0.4659977
  heat_capacity:       1.4412932
  energy:             11.9043578

- temperature:        26.9662921
  free_energy:        11.8917632
  entropy:             0.5234464
  heat_capacity:       1.6054841
  energy:             11.9058786

- temperature:        27.9650437
  free_energy:        11.8912100
  entropy:             0.5849177
  heat_capacity:       1.7773313
  energy:             11.9075673

- temperature:        28.9637953
  free_energy:        11.8905935
  entropy:             0.6503871
  heat_capacity:       1.9562102
  energy:             11.9094312

- temperature:        29.9625468
  free_energy:        11.8899096
  entropy:             0.7198113
  heat_capacity:       2.1414818
  energy:             11.9114769

- temperature:        30.9612984
  free_energy:        11.8891544
  entropy:             0.7931299
  heat_capacity:       2.3325052
  energy:             11.9137107

- temperature:        31.9600499
  free_energy:        11.8883240
  entropy:             0.8702684
  heat_capacity:       2.5286473
  energy:             11.9161378

- temperature:        32.9588015
  free_energy:        11.8874148
  entropy:             0.9511395
  heat_capacity:       2.7292912
  energy:             11.9187632

- temperature:        33.9575531
  free_energy:        11.8864229
  entropy:             1.0356460
  heat_capacity:       2.9338423
  energy:             11.9215909

- temperature:        34.9563046
  free_energy:        11.8853449
  entropy:             1.1236820
  heat_capacity:       3.1417331
  energy:             11.9246246

- temperature:        35.9550562
  free_energy:        11.8841772
  entropy:             1.2151352
  heat_capacity:       3.3524271
  energy:             11.9278675

- temperature:        36.9538077
  free_energy:        11.8829165
  entropy:             1.3098881
  heat_capacity:       3.5654212
  energy:             11.9313219

- temperature:        37.9525593
  free_energy:        11.8815596
  entropy:             1.4078199
  heat_capacity:       3.7802471
  energy:             11.9349900

- temperature:        38.9513109
  free_energy:        11.8801034
  entropy:             1.5088072
  heat_capacity:       3.9964721
  energy:             11.9388734

- temperature:        39.9500624
  free_energy:        11.8785448
  entropy:             1.6127256
  heat_capacity:       4.2136991
  energy:             11.9429733

- temperature:        40.9488140
  free_energy:        11.8768810
  entropy:             1.7194507
  heat_capacity:       4.4315667
  energy:             11.9472905

- temperature:        41.9475655
  free_energy:        11.8751093
  entropy:             1.8288585
  heat_capacity:       4.6497477
  energy:             11.9518255

- temperature:        42.9463171
  free_energy:        11.8732270
  entropy:             1.9408267
  heat_capacity:       4.8679483
  energy:             11.9565784

- temperature:        43.9450687
  free_energy:        11.8712317
  entropy:             2.0552350
  heat_capacity:       5.0859071
  energy:             11.9615491

- temperature:        44.9438202
  free_energy:        11.8691209
  entropy:             2.1719656
  heat_capacity:       5.3033931
  energy:             11.9667374

- temperature:        45.9425718
  free_energy:        11.8668925
  entropy:             2.2909037
  heat_capacity:       5.5202040
  energy:             11.9721425

- temperature:        46.9413233
  free_energy:        11.8645441
  entropy:             2.4119379
  heat_capacity:       5.7361651
  energy:             11.9777637

- temperature:        47.9400749
  free_energy:        11.8620739
  entropy:             2.5349605
  heat_capacity:       5.9511269
  energy:             11.9836001

- temperature:        48.9388265
  free_energy:        11.8594799
  entropy:             2.6598675
  heat_capacity:       6.1649638
  energy:             11.9896507

- temperature:        49.9375780
  free_energy:        11.8567602
  entropy:             2.7865590
  heat_capacity:       6.3775719
  energy:             11.9959143

- temperature:        50.9363296
  free_energy:        11.8539132
  entropy:             2.9149391
  heat_capacity:       6.5888678
  energy:             12.0023895

- temperature:        51.9350811
  free_energy:        11.8509371
  entropy:             3.0449161
  heat_capacity:       6.7987865
  energy:             12.0090751

- temperature:        52.9338327
  free_energy:        11.8478305
  entropy:             3.1764024
  heat_capacity:       7.0072800
  energy:             12.0159696

- temperature:        53.9325843
  free_energy:        11.8445918
  entropy:             3.3093147
  heat_capacity:       7.2143157
  energy:             12.0230717

- temperature:        54.9313358
  free_energy:        11.8412196
  entropy:             3.4435736
  heat_capacity:       7.4198747
  energy:             12.0303797

- temperature:        55.9300874
  free_energy:        11.8377128
  entropy:             3.5791039
  heat_capacity:       7.6239507
  energy:             12.0378924

- temperature:        56.9288390
  free_energy:        11.8340700
  entropy:             3.7158344
  heat_capacity:       7.8265485
  energy:             12.0456081

- temperature:        57.9275905
  free_energy:        11.8302900
  entropy:             3.8536978
  heat_capacity:       8.0276826
  energy:             12.0535255

- temperature:        58.9263421
  free_energy:        11.8263718
  entropy:             3.9926305
  heat_capacity:       8.2273762
  energy:             12.0616430

- temperature:        59.9250936
  free_energy:        11.8223144
  entropy:             4.1325725
  heat_capacity:       8.4256600
  energy:             12.0699592

- temperature:        60.9238452
  free_energy:        11.8181167
  entropy:             4.2734676
  heat_capacity:       8.6225712
  energy:             12.0784728

- temperature:        61.9225968
  free_energy:        11.8137778
  entropy:             4.4152627
  heat_capacity:       8.8181522
  energy:             12.0871824

- temperature:        62.9213483
  free_energy:        11.8092969
  entropy:             4.5579081
  heat_capacity:       9.0124503
  energy:             12.0960866

- temperature:        63.9200999
  free_energy:        11.8046731
  entropy:             4.7013572
  heat_capacity:       9.2055163
  energy:             12.1051844

- temperature:        64.9188514
  free_energy:        11.7999057
  entropy:             4.8455664
  heat_capacity:       9.3974039
  energy:             12.1144743

- temperature:        65.9176030
  free_energy:        11.7949939
  entropy:             4.9904950
  heat_capacity:       9.5881693
  energy:             12.1239553

- temperature:        66.9163546
  free_energy:        11.7899369
  entropy:             5.1361047
  heat_capacity:       9.7778701
  energy:             12.1336263

- temperature:        67.9151061
  free_energy:        11.7847343
  entropy:             5.2823602
  heat_capacity:       9.9665649
  energy:             12.1434863

- temperature:        68.9138577
  free_energy:        11.7793852
  entropy:             5.4292284
  heat_capacity:      10.1543129
  energy:             12.1535343

- temperature:        69.9126092
  free_energy:        11.7738892
  entropy:             5.5766782
  heat_capacity:      10.3411731
  energy:             12.1637693

- temperature:        70.9113608
  free_energy:        11.7682456
  entropy:             5.7246812
  heat_capacity:      10.5272043
  energy:             12.1741905

- temperature:        71.9101124
  free_energy:        11.7624539
  entropy:             5.8732106
  heat_capacity:      10.7124644
  energy:             12.1847972

- temperature:        72.9088639
  free_energy:        11.7565137
  entropy:             6.0222417
  heat_capacity:      10.8970101
  energy:             12.1955885

- temperature:        73.9076155
  free_energy:        11.7504243
  entropy:             6.1717515
  heat_capacity:      11.0808968
  energy:             12.2065638

- temperature:        74.9063670
  free_energy:        11.7441854
  entropy:             6.3217186
  heat_capacity:      11.2641780
  energy:             12.2177224

- temperature:        75.9051186
  free_energy:        11.7377965
  entropy:             6.4721232
  heat_capacity:      11.4469057
  energy:             12.2290638

- temperature:        76.9038702
  free_energy:        11.7312572
  entropy:             6.6229470
  heat_capacity:      11.6291292
  energy:             12.2405875

- temperature:        77.9026217
  free_energy:        11.7245670
  entropy:             6.7741731
  heat_capacity:      11.8108962
  energy:             12.2522929

- temperature:        78.9013733
  free_energy:        11.7177256
  entropy:             6.9257855
  heat_capacity:      11.9922515
  energy:             12.2641796

- temperature:        79.9001248
  free_energy:        11.7107326
  entropy:             7.0777697
  heat_capacity:      12.1732378
  energy:             12.2762473

- temperature:        80.8988764
  free_energy:        11.7035876
  entropy:             7.2301121
  heat_capacity:      12.3538951
  energy:             12.2884956

- temperature:        81.8976280
  free_energy:        11.6962903
  entropy:             7.3828001
  heat_capacity:      12.5342607
  energy:             12.3009242

- temperature:        82.8963795
  free_energy:        11.6888404
  entropy:             7.5358220
  heat_capacity:      12.7143696
  energy:             12.3135327

- temperature:        83.8951311
  free_energy:        11.6812374
  entropy:             7.6891669
  heat_capacity:      12.8942538
  energy:             12.3263211

- temperature:        84.8938826
  free_energy:        11.6734811
  entropy:             7.8428248
  heat_capacity:      13.0739428
  energy:             12.3392890

- temperature:        85.8926342
  free_energy:        11.6655712
  entropy:             7.9967861
  heat_capacity:      13.2534637
  energy:             12.3524363

- temperature:        86.8913858
  free_energy:        11.6575074
  entropy:             8.1510420
  heat_capacity:      13.4328406
  energy:             12.3657628

- temperature:        87.8901373
  free_energy:        11.6492894
  entropy:             8.3055843
  heat_capacity:      13.6120953
  energy:             12.3792684

- temperature:        88.8888889
  free_energy:        11.6409169
  entropy:             8.4604053
  heat_capacity:      13.7912472
  energy:             12.3929529

- temperature:        89.8876404
  free_energy:        11.6323896
  entropy:             8.6154977
  heat_capacity:      13.9703129
  energy:             12.4068164

- temperature:        90.8863920
  free_energy:        11.6237073
  entropy:             8.7708545
  heat_capacity:      14.1493070
  energy:             12.4208586

- temperature:        91.8851436
  free_energy:        11.6148697
  entropy:             8.9264693
  heat_capacity:      14.3282415
  energy:             12.4350797

- temperature:        92.8838951
  free_energy:        11.6058766
  entropy:             9.0823360
  heat_capacity:      14.5071265
  energy:             12.4494793

- temperature:        93.8826467
  free_energy:        11.5967277
  entropy:             9.2384486
  heat_capacity:      14.6859696
  energy:             12.4640577

- temperature:        94.8813983
  free_energy:        11.5874227
  entropy:             9.3948016
  heat_capacity:      14.8647767
  energy:             12.4788146

- temperature:        95.8801498
  free_energy:        11.5779614
  entropy:             9.5513895
  heat_capacity:      15.0435515
  energy:             12.4937501

- temperature:        96.8789014
  free_energy:        11.5683437
  entropy:             9.7082072
  heat_capacity:      15.2222959
  energy:             12.5088641

- temperature:        97.8776529
  free_energy:        11.5585692
  entropy:             9.8652497
  heat_capacity:      15.4010101
  energy:             12.5241567

- temperature:        98.8764045
  free_energy:        11.5486377
  entropy:            10.0225120
  heat_capacity:      15.5796924
  energy:             12.5396277

- temperature:        99.8751561
  free_energy:        11.5385491
  entropy:            10.1799894
  heat_capacity:      15.7583397
  energy:             12.5552771

- temperature:       100.8739076
  free_energy:        11.5283031
  entropy:            10.3376772
  heat_capacity:      15.9369475
  energy:             12.5711050

- temperature:       101.8726592
  free_energy:        11.5178995
  entropy:            10.4955710
  heat_capacity:      16.1155096
  energy:             12.5871112

- temperature:       102.8714107
  free_energy:        11.5073381
  entropy:            10.6536661
  heat_capacity:      16.2940187
  energy:             12.6032958

- temperature:       103.8701623
  free_energy:        11.4966187
  entropy:            10.8119582
  heat_capacity:      16.4724662
  energy:             12.6196586

- temperature:       104.8689139
  free_energy:        11.4857411
  entropy:            10.9704428
  heat_capacity:      16.6508425
  energy:             12.6361995

- temperature:       105.8676654
  free_energy:        11.4747052
  entropy:            11.1291156
  heat_capacity:      16.8291367
  energy:             12.6529186

- temperature:       106.8664170
  free_energy:        11.4635106
  entropy:            11.2879723
  heat_capacity:      17.0073371
  energy:             12.6698158

- temperature:       107.8651685
  free_energy:        11.4521573
  entropy:            11.4470084
  heat_capacity:      17.1854312
  energy:             12.6868908

- temperature:       108.8639201
  free_energy:        11.4406451
  entropy:            11.6062195
  heat_capacity:      17.3634055
  energy:             12.7041437

- temperature:       109.8626717
  free_energy:        11.4289738
  entropy:            11.7656015
  heat_capacity:      17.5412459
  energy:             12.7215742

- temperature:       110.8614232
  free_energy:        11.4171432
  entropy:            11.9251498
  heat_capacity:      17.7189376
  energy:             12.7391823

- temperature:       111.8601748
  free_energy:        11.4051532
  entropy:            12.0848602
  heat_capacity:      17.8964653
  energy:             12.7569678

- temperature:       112.8589263
  free_energy:        11.3930036
  entropy:            12.2447281
  heat_capacity:      18.0738132
  energy:             12.7749305

- temperature:       113.8576779
  free_energy:        11.3806943
  entropy:            12.4047492
  heat_capacity:      18.2509648
  energy:             12.7930702

- temperature:       114.8564295
  free_energy:        11.3682251
  entropy:            12.5649190
  heat_capacity:      18.4279036
  energy:             12.8113868

- temperature:       115.8551810
  free_energy:        11.3555958
  entropy:            12.7252330
  heat_capacity:      18.6046124
  energy:             12.8298800

- temperature:       116.8539326
  free_energy:        11.3428063
  entropy:            12.8856866
  heat_capacity:      18.7810740
  energy:             12.8485495

- temperature:       117.8526841
  free_energy:        11.3298565
  entropy:            13.0462754
  heat_capacity:      18.9572710
  energy:             12.8673951

- temperature:       118.8514357
  free_energy:        11.3167463
  entropy:            13.2069948
  heat_capacity:      19.1331855
  energy:             12.8864166

- temperature:       119.8501873
  free_energy:        11.3034755
  entropy:            13.3678400
  heat_capacity:      19.3088000
  energy:             12.9056136

- temperature:       120.8489388
  free_energy:        11.2900440
  entropy:            13.5288066
  heat_capacity:      19.4840965
  energy:             12.9249859

- temperature:       121.8476904
  free_energy:        11.2764516
  entropy:            13.6898896
  heat_capacity:      19.6590571
  energy:             12.9445331

- temperature:       122.8464419
  free_energy:        11.2626983
  entropy:            13.8510846
  heat_capacity:      19.8336640
  energy:             12.9642548

- temperature:       123.8451935
  free_energy:        11.2487840
  entropy:            14.0123867
  heat_capacity:      20.0078995
  energy:             12.9841507

- temperature:       124.8439451
  free_energy:        11.2347085
  entropy:            14.1737911
  heat_capacity:      20.1817458
  energy:             13.0042205

- temperature:       125.8426966
  free_energy:        11.2204718
  entropy:            14.3352930
  heat_capacity:      20.3551852
  energy:             13.0244637

- temperature:       126.8414482
  free_energy:        11.2060737
  entropy:            14.4968876
  heat_capacity:      20.5282005
  energy:             13.0448799

- temperature:       127.8401998
  free_energy:        11.1915142
  entropy:            14.6585701
  heat_capacity:      20.7007742
  energy:             13.0654687

- temperature:       128.8389513
  free_energy:        11.1767931
  entropy:            14.8203356
  heat_capacity:      20.8728894
  energy:             13.0862296

- temperature:       129.8377029
  free_energy:        11.1619105
  entropy:            14.9821792
  heat_capacity:      21.0445293
  energy:             13.1071622

- temperature:       130.8364544
  free_energy:        11.1468661
  entropy:            15.1440959
  heat_capacity:      21.2156772
  energy:             13.1282660

- temperature:       131.8352060
  free_energy:        11.1316601
  entropy:            15.3060810
  heat_capacity:      21.3863169
  energy:             13.1495404

- temperature:       132.8339576
  free_energy:        11.1162922
  entropy:            15.4681294
  heat_capacity:      21.5564323
  energy:             13.1709850

- temperature:       133.8327091
  free_energy:        11.1007624
  entropy:            15.6302362
  heat_capacity:      21.7260078
  energy:             13.1925993

- temperature:       134.8314607
  free_energy:        11.0850707
  entropy:            15.7923965
  heat_capacity:      21.8950280
  energy:             13.2143826

- temperature:       135.8302122
  free_energy:        11.0692170
  entropy:            15.9546054
  heat_capacity:      22.0634778
  energy:             13.2363345

- temperature:       136.8289638
  free_energy:        11.0532013
  entropy:            16.1168578
  heat_capacity:      22.2313425
  energy:             13.2584543

- temperature:       137.8277154
  free_energy:        11.0370236
  entropy:            16.2791489
  heat_capacity:      22.3986078
  energy:             13.2807414

- temperature:       138.8264669
  free_energy:        11.0206837
  entropy:            16.4414737
  heat_capacity:      22.5652597
  energy:             13.3031954

- temperature:       139.8252185
  free_energy:        11.0041816
  entropy:            16.6038272
  heat_capacity:      22.7312846
  energy:             13.3258154

- temperature:       140.8239700
  free_energy:        10.9875175
  entropy:            16.7662047
  heat_capacity:      22.8966694
  energy:             13.3486010

- temperature:       141.8227216
  free_energy:        10.9706911
  entropy:            16.9286010
  heat_capacity:      23.0614011
  energy:             13.3715514

- temperature:       142.8214732
  free_energy:        10.9537025
  entropy:            17.0910115
  heat_capacity:      23.2254673
  energy:             13.3946660

- temperature:       143.8202247
  free_energy:        10.9365517
  entropy:            17.2534311
  heat_capacity:      23.3888560
  energy:             13.4179441

- temperature:       144.8189763
  free_energy:        10.9192387
  entropy:            17.4158551
  heat_capacity:      23.5515555
  energy:             13.4413850

- temperature:       145.8177278
  free_energy:        10.9017635
  entropy:            17.5782786
  heat_capacity:      23.7135547
  energy:             13.4649882

- temperature:       146.8164794
  free_energy:        10.8841261
  entropy:            17.7406967
  heat_capacity:      23.8748425
  energy:             13.4887527

- temperature:       147.8152310
  free_energy:        10.8663264
  entropy:            17.9031048
  heat_capacity:      24.0354087
  energy:             13.5126780

- temperature:       148.8139825
  free_energy:        10.8483646
  entropy:            18.0654980
  heat_capacity:      24.1952431
  energy:             13.5367633

- temperature:       149.8127341
  free_energy:        10.8302405
  entropy:            18.2278716
  heat_capacity:      24.3543361
  energy:             13.5610078

- temperature:       150.8114856
  free_energy:        10.8119544
  entropy:            18.3902209
  heat_capacity:      24.5126785
  energy:             13.5854109

- temperature:       151.8102372
  free_energy:        10.7935060
  entropy:            18.5525412
  heat_capacity:      24.6702613
  energy:             13.6099717

- temperature:       152.8089888
  free_energy:        10.7748956
  entropy:            18.7148280
  heat_capacity:      24.8270762
  energy:             13.6346896

- temperature:       153.8077403
  free_energy:        10.7561231
  entropy:            18.8770767
  heat_capacity:      24.9831149
  energy:             13.6595636

- temperature:       154.8064919
  free_energy:        10.7371886
  entropy:            19.0392826
  heat_capacity:      25.1383700
  energy:             13.6845931

- temperature:       155.8052434
  free_energy:        10.7180921
  entropy:            19.2014412
  heat_capacity:      25.2928339
  energy:             13.7097773

- temperature:       156.8039950
  free_energy:        10.6988337
  entropy:            19.3635482
  heat_capacity:      25.4464998
  energy:             13.7351154

- temperature:       157.8027466
  free_energy:        10.6794134
  entropy:            19.5255990
  heat_capacity:      25.5993611
  energy:             13.7606065

- temperature:       158.8014981
  free_energy:        10.6598313
  entropy:            19.6875893
  heat_capacity:      25.7514116
  energy:             13.7862499

- temperature:       159.8002497
  free_energy:        10.6400874
  entropy:            19.8495147
  heat_capacity:      25.9026455
  energy:             13.8120448

- temperature:       160.7990012
  free_energy:        10.6201818
  entropy:            20.0113709
  heat_capacity:      26.0530571
  energy:             13.8379903

- temperature:       161.7977528
  free_energy:        10.6001146
  entropy:            20.1731537
  heat_capacity:      26.2026415
  energy:             13.8640856

- temperature:       162.7965044
  free_energy:        10.5798859
  entropy:            20.3348589
  heat_capacity:      26.3513937
  energy:             13.8903298

- temperature:       163.7952559
  free_energy:        10.5594957
  entropy:            20.4964823
  heat_capacity:      26.4993094
  energy:             13.9167223

- temperature:       164.7940075
  free_energy:        10.5389441
  entropy:            20.6580199
  heat_capacity:      26.6463842
  energy:             13.9432620

- temperature:       165.7927591
  free_energy:        10.5182313
  entropy:            20.8194675
  heat_capacity:      26.7926145
  energy:             13.9699482

- temperature:       166.7915106
  free_energy:        10.4973572
  entropy:            20.9808211
  heat_capacity:      26.9379967
  energy:             13.9967801

- temperature:       167.7902622
  free_energy:        10.4763221
  entropy:            21.1420769
  heat_capacity:      27.0825276
  energy:             14.0237567

- temperature:       168.7890137
  free_energy:        10.4551259
  entropy:            21.3032309
  heat_capacity:      27.2262043
  energy:             14.0508772

- temperature:       169.7877653
  free_energy:        10.4337688
  entropy:            21.4642792
  heat_capacity:      27.3690241
  energy:             14.0781408

- temperature:       170.7865169
  free_energy:        10.4122510
  entropy:            21.6252181
  heat_capacity:      27.5109848
  energy:             14.1055466

- temperature:       171.7852684
  free_energy:        10.3905724
  entropy:            21.7860439
  heat_capacity:      27.6520843
  energy:             14.1330938

- temperature:       172.7840200
  free_energy:        10.3687333
  entropy:            21.9467528
  heat_capacity:      27.7923208
  energy:             14.1607815

- temperature:       173.7827715
  free_energy:        10.3467337
  entropy:            22.1073412
  heat_capacity:      27.9316928
  energy:             14.1886088

- temperature:       174.7815231
  free_energy:        10.3245739
  entropy:            22.2678055
  heat_capacity:      28.0701991
  energy:             14.2165748

- temperature:       175.7802747
  free_energy:        10.3022538
  entropy:            22.4281423
  heat_capacity:      28.2078386
  energy:             14.2446788

- temperature:       176.7790262
  free_energy:        10.2797736
  entropy:            22.5883480
  heat_capacity:      28.3446106
  energy:             14.2729198

- temperature:       177.7777778
  free_energy:        10.2571335
  entropy:            22.7484193
  heat_capacity:      28.4805147
  energy:             14.3012970

- temperature:       178.7765293