  MPI-parallelism will be employed.
------------------------------------------------------------
          Invoking FHI-aims ...
          Version 180101-
          Git rev. (modified): fa29f3a Merge branch master of fhiaims.rzberlin.mp[...]
          Compiled on 2018/01/19 at 14:47:46 on host theobook132.

          When using FHI-aims, please cite the following reference:

          Volker Blum, Ralf Gehrke, Felix Hanke, Paula Havu,
          Ville Havu, Xinguo Ren, Karsten Reuter, and Matthias Scheffler,
          'Ab Initio Molecular Simulations with Numeric Atom-Centered Orbitals',
          Computer Physics Communications 180, 2175-2196 (2009)

          For any questions about FHI-aims, please visit the aimsclub website
          with its forums and wiki. Contributions to both the forums and the
          wiki are warmly encouraged - they are for you, and everyone is welcome there.

------------------------------------------------------------



  Date     :  20180215, Time     :  214341.290
  Time zero on CPU 1             :   0.440000000000000E-01  s.
  Internal wall clock time zero  :           287963021.290  s.

  FHI-aims created a unique identifier for this run for later identification
  aims_uuid : F6531CFA-C240-44D8-A8D1-8ADDBD66D4C7

  Using        8 parallel tasks.
  Task        0 on host theobook132 reporting.
  Task        1 on host theobook132 reporting.
  Task        2 on host theobook132 reporting.
  Task        3 on host theobook132 reporting.
  Task        4 on host theobook132 reporting.
  Task        5 on host theobook132 reporting.
  Task        6 on host theobook132 reporting.
  Task        7 on host theobook132 reporting.

  Performing system and environment tests:
  *** Environment variable OMP_NUM_THREADS is not set
  *** For performance reasons you might want to set it to 1
  | Stacksize not measured: no C compiler
  | Checking for scalapack...
  | No scalapack compiled in.

  Obtaining array dimensions for all initial allocations:
  
  -----------------------------------------------------------------------
  Parsing control.in (first pass over file, find array dimensions only).
  The contents of control.in will be repeated verbatim below
  unless switched off by setting 'verbatim_writeout .false.' .
  in the first line of control.in .
  -----------------------------------------------------------------------
  
  ################################################################################
  #
  #		Control.in generated by mkcontrol
  #
  ################################################################################
  xc			pbe
  vdw_correction_hirshfeld
  relativistic		none
  sc_accuracy_rho		1E-5
  sc_accuracy_eev		1E-3
  sc_accuracy_etot	1E-6
  sc_iter_limit		1000	
  
  compute_forces .true.
  final_forces_cleaned .true.
  
  ################################################################################
  #
  #  FHI-aims code project
  #  VB, Fritz-Haber Institut, 2009
  #
  #  Suggested "light" defaults for H atom (to be pasted into control.in file)
  #  Be sure to double-check any results obtained with these settings for post-processing,
  #  e.g., with the "tight" defaults and larger basis sets.
  #
  ################################################################################
    species        H
  #     global species definitions
      nucleus             1
      mass                1.00794
  #
      l_hartree           4
  #
      cut_pot             3.5  1.5  1.0
      basis_dep_cutoff    1e-4
  #
      radial_base         24 5.0
      radial_multiplier   1
      angular_grids       specified
        division   0.2421   50
        division   0.3822  110
        division   0.4799  194
        division   0.5341  302
  #      division   0.5626  434
  #      division   0.5922  590
  #      division   0.6542  770
  #      division   0.6868 1202
  #      outer_grid  770
        outer_grid  302
  ################################################################################
  #
  #  Definition of "minimal" basis
  #
  ################################################################################
  #     valence basis states
      valence      1  s   1.
  #     ion occupancy
      ion_occ      1  s   0.5
  ################################################################################
  #
  #  Suggested additional basis functions. For production calculations,
  #  uncomment them one after another (the most important basis functions are
  #  listed first).
  #
  #  Basis constructed for dimers: 0.5 A, 0.7 A, 1.0 A, 1.5 A, 2.5 A
  #
  ################################################################################
  #  "First tier" - improvements: -1014.90 meV to -62.69 meV
       hydro 2 s 2.1
       hydro 2 p 3.5
  #  "Second tier" - improvements: -12.89 meV to -1.83 meV
  #     hydro 1 s 0.85
  #     hydro 2 p 3.7
  #     hydro 2 s 1.2
  #     hydro 3 d 7
  #  "Third tier" - improvements: -0.25 meV to -0.12 meV
  #     hydro 4 f 11.2
  #     hydro 3 p 4.8
  #     hydro 4 d 9
  #     hydro 3 s 3.2
  
  ################################################################################
  #
  #  FHI-aims code project
  #  VB, Fritz-Haber Institut, 2009
  #
  #  Suggested "light" defaults for C atom (to be pasted into control.in file)
  #  Be sure to double-check any results obtained with these settings forpost-processing,
  #  e.g., with the "tight" defaults and larger basis sets.
  #
  ################################################################################
    species        C
  #     global species definitions
      nucleus             6
      mass                12.0107
  #
      l_hartree           4
  #
      cut_pot             3.5  1.5  1.0
      basis_dep_cutoff    1e-4
  #
      radial_base         34 5.0
      radial_multiplier   1
      angular_grids specified
        division   0.3326   50
        division   0.5710  110
        division   0.7727  194
        division   0.8772  302
  #      division   0.9334  434
  #      division   0.9625  590
  #      division   0.9924  770
  #      division   1.0230  974
  #      division   1.4589 1202
  #     outer_grid  974
       outer_grid 302
  ################################################################################
  #
  #  Definition of "minimal" basis
  #
  ################################################################################
  #     valence basis states
      valence      2  s   2.
      valence      2  p   2.
  #     ion occupancy
      ion_occ      2  s   1.
      ion_occ      2  p   1.
  ################################################################################
  #
  #  Suggested additional basis functions. For production calculations,
  #  uncomment them one after another (the most important basis functions are
  #  listed first).
  #
  #  Constructed for dimers: 1.0 A, 1.25 A, 1.5 A, 2.0 A, 3.0 A
  #
  ################################################################################
  #  "First tier" - improvements: -1214.57 meV to -155.61 meV
       hydro 2 p 1.7
       hydro 3 d 6
       hydro 2 s 4.9
  #  "Second tier" - improvements: -67.75 meV to -5.23 meV
  #     hydro 4 f 9.8
  #     hydro 3 p 5.2
  #     hydro 3 s 4.3
  #     hydro 5 g 14.4
  #     hydro 3 d 6.2
  #  "Third tier" - improvements: -2.43 meV to -0.60 meV
  #     hydro 2 p 5.6
  #     hydro 2 s 1.4
  #     hydro 3 d 4.9
  #     hydro 4 f 11.2
  #  "Fourth tier" - improvements: -0.39 meV to -0.18 meV
  #     hydro 2 p 2.1
  #     hydro 5 g 16.4
  #     hydro 4 d 13.2
  #     hydro 3 s 13.6
  #     hydro 4 f 17.6
  #  Further basis functions - improvements: -0.08 meV and below
  #     hydro 3 s 2
  #     hydro 3 p 6
  #     hydro 4 d 20
  
  -----------------------------------------------------------------------
  Completed first pass over input file control.in .
  -----------------------------------------------------------------------
  
  
  -----------------------------------------------------------------------
  Parsing geometry.in (first pass over file, find array dimensions only).
  The contents of geometry.in will be repeated verbatim below
  unless switched off by setting 'verbatim_writeout .false.' .
  in the first line of geometry.in .
  -----------------------------------------------------------------------
  
  #=======================================#
  # iterations/iteration0037/aims-chain-node-0.46746/geometry.in
  #=======================================#
  atom -1.4601969081958952 -1.0664823883276700 -0.2370750622177662 C
  atom -0.6967397755206018 -0.0609292309802808 0.5855674009303820 C
  atom 0.6967396767840862 0.0609293489092708 0.5855674207578470 C
  atom 1.4601969190771946 1.0664823584792598 -0.2370751431613801 C
  atom -0.9226120304625760 -1.2460325586539429 -1.1868462978783985 H
  atom -2.4438993537937153 -0.6372274795862652 -0.5145857529421753 H
  atom -1.6463864382866020 -2.0381625070891776 0.2274767758904945 H
  atom -1.3170883630364705 0.6586955880620912 1.1254630346354941 H
  atom 1.3170882366835834 -0.6586954087206623 1.1254631807662447 H
  atom 0.9226119091885974 1.2460328092543240 -1.1868462387982510 H
  atom 1.6463869610980191 2.0381623408724265 0.2274767743664134 H
  atom 2.4438991664643694 0.6372271277806226 -0.5145860923489114 H
  
  -----------------------------------------------------------------------
  Completed first pass over input file geometry.in .
  -----------------------------------------------------------------------
  

  Basic array size parameters:
  | Number of species                 :        2
  | Number of atoms                   :       12
  | Max. basis fn. angular momentum   :        2
  | Max. atomic/ionic basis occupied n:        2
  | Max. number of basis fn. types    :        2
  | Max. radial fns per species/type  :        3
  | Max. logarithmic grid size        :     1277
  | Max. radial integration grid size :       34
  | Max. angular integration grid size:      302
  | Max. angular grid division number :        8
  | Radial grid for Hartree potential :     1277
  | Number of spin channels           :        1

------------------------------------------------------------
          Reading file control.in.
------------------------------------------------------------
  XC: Using PBE gradient-corrected functionals.
  Non-relativistic treatment of kinetic energy.
  Convergence accuracy of self-consistent charge density:  0.1000E-04
  Convergence accuracy of sum of eigenvalues:  0.1000E-02
  Convergence accuracy of total energy:  0.1000E-05
  Maximum number of s.-c. iterations  :  1000
  Forces will be computed.
  Cleaning forces before final output.
 
  Reading configuration options for species H                   .
  | Found nuclear charge :   1.0000
  | Found atomic mass :    1.00794000000000      amu
  | Found l_max for Hartree potential  :   4
  | Found cutoff potl. onset [A], width [A], scale factor :    3.50000    1.50000    1.00000
  | Threshold for basis-dependent cutoff potential is   0.100000E-03
  | Found data for basic radial integration grid :    24 points, outermost radius =    5.000 A
  | Found multiplier for basic radial grid :   1
  | Found angular grid specification: user-specified.
  | Specified grid contains     5 separate shells.
  | Check grid settings after all constraints further below.
  | Found free-atom valence shell :  1 s   1.000
  | No ionic wave fns used. Skipping ion_occ.
  | Found hydrogenic basis function :  2 s   2.100
  | Found hydrogenic basis function :  2 p   3.500
  Species H                   : Missing cutoff potential type.
  Defaulting to exp(1/x)/(1-x)^2 type cutoff potential.
  Species H : No 'logarithmic' tag. Using default grid for free atom:
  | Default logarithmic grid data [bohr] : 0.1000E-03 0.1000E+03 0.1012E+01
  Species H : On-site basis accuracy parameter (for Gram-Schmidt orthonormalisation) not specified.
  Using default value basis_acc =  0.1000000E-03.
  Species H                   : Using default innermost maximum threshold i_radial=  2 for radial functions.
  Species H                   : Default cutoff onset for free atom density etc. : 0.35000000E+01 AA.
  Species H                   : Basic radial grid will be enhanced according to radial_multiplier =   1, to contain    24 grid points.
 
  Reading configuration options for species C                   .
  | Found nuclear charge :   6.0000
  | Found atomic mass :    12.0107000000000      amu
  | Found l_max for Hartree potential  :   4
  | Found cutoff potl. onset [A], width [A], scale factor :    3.50000    1.50000    1.00000
  | Threshold for basis-dependent cutoff potential is   0.100000E-03
  | Found data for basic radial integration grid :    34 points, outermost radius =    5.000 A
  | Found multiplier for basic radial grid :   1
  | Found angular grid specification: user-specified.
  | Specified grid contains     5 separate shells.
  | Check grid settings after all constraints further below.
  | Found free-atom valence shell :  2 s   2.000
  | Found free-atom valence shell :  2 p   2.000
  | No ionic wave fns used. Skipping ion_occ.
  | No ionic wave fns used. Skipping ion_occ.
  | Found hydrogenic basis function :  2 p   1.700
  | Found hydrogenic basis function :  3 d   6.000
  | Found hydrogenic basis function :  2 s   4.900
  Species C                   : Missing cutoff potential type.
  Defaulting to exp(1/x)/(1-x)^2 type cutoff potential.
  Species C : No 'logarithmic' tag. Using default grid for free atom:
  | Default logarithmic grid data [bohr] : 0.1000E-03 0.1000E+03 0.1012E+01
  Species C : On-site basis accuracy parameter (for Gram-Schmidt orthonormalisation) not specified.
  Using default value basis_acc =  0.1000000E-03.
  Species C                   : Using default innermost maximum threshold i_radial=  2 for radial functions.
  Species C                   : Default cutoff onset for free atom density etc. : 0.35000000E+01 AA.
  Species C                   : Basic radial grid will be enhanced according to radial_multiplier =   1, to contain    34 grid points.
 
  Finished reading input file 'control.in'. Consistency checks are next.
 
  MPI_IN_PLACE appears to work with this MPI implementation.
  | Keeping use_mpi_in_place .true. (see manual).
  Target number of points in a grid batch is not set. Defaulting to  100
  Method for grid partitioning is not set. Defaulting to parallel hash+maxmin partitioning.
  Batch size limit is not set. Defaulting to    200
  By default, will store active basis functions for each batch.
  If in need of memory, prune_basis_once .false. can be used to disable this option.
  communication_type for Hartree potential was not specified.
  Defaulting to calc_hartree .
  Defaulting to Pulay charge density mixer.
  Pulay mixer: Number of relevant iterations not set.
  Defaulting to    8 iterations.
  Pulay mixer: Number of initial linear mixing iterations not set.
  Defaulting to    0 iterations.
  Work space size for distributed Hartree potential not set.
  Defaulting to   0.200000E+03 MB.
  Mixing parameter for charge density mixing has not been set.
  Using default: charge_mix_param =     0.0500.
  The mixing parameter will be adjusted in iteration number     2 of the first full s.c.f. cycle only.
  Algorithm-dependent basis array size parameters:
  | n_max_pulay                         :        8
  Presetting        40 iterations before the initial mixing cycle
  is restarted anyway using the sc_init_iter criterion / keyword.
  Presetting a factor      1.000 between actual scf density residual
  and density convergence criterion sc_accuracy_rho below which sc_init_iter
  takes no effect.
  Geometry relaxation not requested: no relaxation will be performed.
  Force calculation: scf convergence accuracy of forces not set.
  Defaulting to 'sc_accuracy_forces not_checked'.
  Handling of forces: Unphysical translation and rotation will be removed from forces.
  No accuracy limit for integral partition fn. given. Defaulting to  0.1000E-14.
  No threshold value for u(r) in integrations given. Defaulting to  0.1000E-05.
  No occupation type (smearing scheme) given. Defaulting to Gaussian broadening, width =  0.1000E-01 eV.
  The width will be adjusted in iteration number     2 of the first full s.c.f. cycle only.
  S.C.F. convergence parameters will be adjusted in iteration number     2 of the first full s.c.f. cycle only.
  No accuracy for occupation numbers given. Defaulting to  0.1000E-12.
  No threshold value for occupation numbers given. Defaulting to  0.0000E+00.
  No accuracy for fermi level given. Defaulting to  0.1000E-19.
  Maximum # of iterations to find E_F not set. Defaulting to  200.
  Preferred method for the eigenvalue solver ('KS_method') not specified in 'control.in'.
  Calling BLACS routine to test compilation state
  The best choice would be 'elsi', but your version of FHI-aims is compiled without ScaLAPACK support.
  Defaulting to 'lapack_fast' instead (serial solution, time will not improve with more CPUs).
  Will not use alltoall communication since running on < 1024 CPUs.
  Threshold for basis singularities not set.
  Default threshold for basis singularities:  0.1000E-04
  partition_type (choice of integration weights) for integrals was not specified.
  | Using a version of the partition function of Stratmann and coworkers ('stratmann_smoother').
  | At each grid point, the set of atoms used to build the partition table is smoothly restricted to
  | only those atoms whose free-atom density would be non-zero at that grid point.
  Partitioning for Hartree potential was not defined. Using partition_type for integrals.
  | Adjusted default value of keyword multip_moments_threshold to:       0.10000000E-11
  | This value may affect high angular momentum components of the Hartree potential in periodic systems.
  Spin handling was not defined in control.in. Defaulting to unpolarized case.
  No q(lm)/r^(l+1) cutoff set for long-range Hartree potential.
  | Using default value of  0.100000E-09 .
  | Verify using the multipole_threshold keyword.
  Defaulting to new monopole extrapolation.
  Density update method: automatic selection selected.
------------------------------------------------------------


------------------------------------------------------------
          Reading geometry description geometry.in.
------------------------------------------------------------
  Input structure read successfully.
  The structure contains       12 atoms,  and a total of         32.000 electrons.

  Input geometry:
  | No unit cell requested.
  | Atomic structure:
  |       Atom                x [A]            y [A]            z [A]
  |    1: Species C            -1.46019691       -1.06648239       -0.23707506
  |    2: Species C            -0.69673978       -0.06092923        0.58556740
  |    3: Species C             0.69673968        0.06092935        0.58556742
  |    4: Species C             1.46019692        1.06648236       -0.23707514
  |    5: Species H            -0.92261203       -1.24603256       -1.18684630
  |    6: Species H            -2.44389935       -0.63722748       -0.51458575
  |    7: Species H            -1.64638644       -2.03816251        0.22747678
  |    8: Species H            -1.31708836        0.65869559        1.12546303
  |    9: Species H             1.31708824       -0.65869541        1.12546318
  |   10: Species H             0.92261191        1.24603281       -1.18684624
  |   11: Species H             1.64638696        2.03816234        0.22747677
  |   12: Species H             2.44389917        0.63722713       -0.51458609
  |

  | The smallest distance between any two atoms is         1.09278522 AA.
  |
  | The first atom of this pair is atom number                      2 .
  | The second atom of this pair is atom number                     8 .

  Number of empty states per atom not set in control.in - providing a guess from actual geometry.
  | Total number of empty states used during s.c.f. cycle:       24
  If you use a very high smearing, use empty_states (per atom!) in control.in to increase this value.

  Structure-dependent array size parameters: 
  | Maximum number of distinct radial functions  :        9
  | Maximum number of basis functions            :       96
  | Number of Kohn-Sham states (occupied + empty):       40
------------------------------------------------------------

------------------------------------------------------------
          Preparing all fixed parts of the calculation.
------------------------------------------------------------
  Determining machine precision:
    2.225073858507201E-308
  Setting up grids for atomic and cluster calculations.

  Creating wave function, potential, and density for free atoms.

  Species: H

  List of occupied orbitals and eigenvalues:
    n    l              occ      energy [Ha]    energy [eV]
    1    0           1.0000        -0.237589        -6.4651


  Species: C

  List of occupied orbitals and eigenvalues:
    n    l              occ      energy [Ha]    energy [eV]
    1    0           2.0000       -10.038835      -273.1706
    2    0           2.0000        -0.502696       -13.6791
    2    1           2.0000        -0.191971        -5.2238

  Creating fixed part of basis set: Ionic, confined, hydrogenic.
 
  H                    hydrogenic:
 
  List of hydrogenic basis orbitals: 
    n    l      effective z      eigenvalue [eV]  inner max. [A]     outer max. [A]     outer radius [A]   
    2    0         2.100000       -14.9728           0.193243           1.317208           4.583499
    2    1         3.500000       -41.6669           0.602369           0.602369           3.723403
 
 
  C                    hydrogenic:
 
  List of hydrogenic basis orbitals: 
    n    l      effective z      eigenvalue [eV]  inner max. [A]     outer max. [A]     outer radius [A]   
    2    1         1.700000        -9.7616           1.230570           1.230570           4.607917
    3    2         6.000000       -54.4224           0.792453           0.792453           3.883070
    2    0         4.900000       -81.6679           0.082559           0.562749           3.078220
 

  Adding cutoff potential to free-atom effective potential.
  Creating atomic-like basis functions for current effective potential.

  Species H                   :

  List of atomic basis orbitals and eigenvalues:
    n    l      energy [Ha]    energy [eV]    outer radius [A]
    1    0        -0.237589        -6.4651       4.527807


  Species C                   :

  List of atomic basis orbitals and eigenvalues:
    n    l      energy [Ha]    energy [eV]    outer radius [A]
    1    0       -10.038835      -273.1706       1.934409
    2    0        -0.502696       -13.6791       4.496620
    2    1        -0.191971        -5.2238       4.551928

  Assembling full basis from fixed parts.
  | Species H :   atomic orbital   1 s accepted.
  | Species H :    hydro orbital   2 s accepted.
  | Species H :    hydro orbital   2 p accepted.
  | Species C :   atomic orbital   1 s accepted.
  | Species C :    hydro orbital   2 s accepted.
  | Species C :   atomic orbital   2 s accepted.
  | Species C :   atomic orbital   2 p accepted.
  | Species C :    hydro orbital   2 p accepted.
  | Species C :    hydro orbital   3 d accepted.
 
  Basis size parameters after reduction:
  | Total number of radial functions:        9
  | Total number of basis functions :       96
 
  Per-task memory consumption for arrays in subroutine allocate_ext:
  |           2.209696MB.
  Testing on-site integration grid accuracy.
  |  Species  Function  <phi|h_atom|phi> (log., in eV)  <phi|h_atom|phi> (rad., in eV)
           1        1                 -6.4663192853                 -6.4651273558
           1        2                 13.7111246313                 13.7170609718
           1        3                 25.2673269279                 25.2674696378
           2        4               -273.1705927641               -273.1705631568
           2        5                -10.7109323383                -10.7107120029
           2        6                 17.4381822266                 17.4352413244
           2        7                 -5.2255326521                 -5.2270484734
           2        8                  8.6835629259                  8.6603288385
           2        9                 27.4952418996                 27.4953360207

  Preparing densities etc. for the partition functions (integrals / Hartree potential).

  Preparations completed.
  max(cpu_time)          :      0.124 s.
  Wall clock time (cpu1) :      0.128 s.
------------------------------------------------------------

------------------------------------------------------------
          Begin self-consistency loop: Initialization.

          Date     :  20180215, Time     :  214341.427
------------------------------------------------------------

  Initializing index lists of integration centers etc. from given atomic structure:
  | Number of centers in hartree potential         :        12
  | Number of centers in hartree multipole         :        12
  | Number of centers in electron density summation:        12
  | Number of centers in basis integrals           :        12
  | Number of centers in integrals                 :        12
  | Number of centers in hamiltonian               :        12
  Partitioning the integration grid into batches with parallel hashing+maxmin method.
  | Number of batches:      706
  | Maximal batch size:     186
  | Minimal batch size:      49
  | Average batch size:      86.323
  | Standard deviation of batch sizes:      19.857

  Integration load balanced across     8 MPI tasks.
  Work distribution over tasks is as follows:
  Task     0 has       7616 integration points.
  Task     1 has       7602 integration points.
  Task     2 has       7652 integration points.
  Task     3 has       7640 integration points.
  Task     4 has       7639 integration points.
  Task     5 has       7601 integration points.
  Task     6 has       7616 integration points.
  Task     7 has       7578 integration points.
  Initializing partition tables, free-atom densities, potentials, etc. across the integration grid (initialize_grid_storage).
  | initialize_grid_storage: Actual outermost partition radius vs. multipole_radius_free
  | (-- VB: in principle, multipole_radius_free should be larger, hence this output)
  | Species        1: Confinement radius =              4.999999999999999 AA, multipole_radius_free =              5.054417573612229 AA.
  | Species        1: outer_partition_radius set to              5.054417573612229 AA .
  | Species        2: Confinement radius =              4.999999999999999 AA, multipole_radius_free =              5.019602836301480 AA.
  | Species        2: outer_partition_radius set to              5.019602836301480 AA .
  | Original list of interatomic distances with          12 x         12 entries is created.
  | Net number of integration points:    60944
  | of which are non-zero points    :    52540
  Renormalizing the initial density to the exact electron count on the 3D integration grid.
  | Initial density: Formal number of electrons (from input files) :      32.0000000000
  | Integrated number of electrons on 3D grid     :      31.9999191595
  | Charge integration error                      :      -0.0000808405
  | Normalization factor for density and gradient :       1.0000025263
  Obtaining max. number of non-zero basis functions in each batch (get_n_compute_maxes).
  | Maximal number of non-zero basis functions:       96 in task     0
  | Maximal number of non-zero basis functions:       96 in task     1
  | Maximal number of non-zero basis functions:       96 in task     2
  | Maximal number of non-zero basis functions:       96 in task     3
  | Maximal number of non-zero basis functions:       96 in task     4
  | Maximal number of non-zero basis functions:       96 in task     5
  | Maximal number of non-zero basis functions:       96 in task     6
  | Maximal number of non-zero basis functions:       96 in task     7
  Selecting the method for density update.
  Loop over occupied states selected for charge density update.
  Allocating        0.031 MB for KS_eigenvector
  Integrating Hamiltonian matrix: batch-based integration.
  Time summed over all CPUs for integration: real work        1.324 s, elapsed        1.602 s
  Integrating overlap matrix.
  Time summed over all CPUs for integration: real work        0.545 s, elapsed        0.757 s

  Updating Kohn-Sham eigenvalues, eigenvectors, occupation numbers, and Fermi level.
  Solving generalized eigenproblem
  Updating Kohn-Sham eigenvalues and eigenfunctions.
  Transforming overlap matrix and checking for singularities.
  Overlap matrix is nonsingular:
  | Lowest eigenvalue:  0.407955E-02
  Solving real generalised eigenvalue problem by standard LAPACK (fast)

  Obtaining occupation numbers and chemical potential using ELSI.
  | Chemical potential (Fermi level):    -7.33122622eV
  Writing Kohn-Sham eigenvalues.

  State    Occupation    Eigenvalue [Ha]    Eigenvalue [eV]
      1       2.00000         -10.165288         -276.61155
      2       2.00000         -10.165288         -276.61155
      3       2.00000         -10.141474         -275.96355
      4       2.00000         -10.141085         -275.95295
      5       2.00000          -0.910486          -24.77559
      6       2.00000          -0.850931          -23.15501
      7       2.00000          -0.774034          -21.06254
      8       2.00000          -0.664453          -18.08069
      9       2.00000          -0.586034          -15.94679
     10       2.00000          -0.565377          -15.38470
     11       2.00000          -0.557601          -15.17310
     12       2.00000          -0.535006          -14.55824
     13       2.00000          -0.523230          -14.23781
     14       2.00000          -0.506415          -13.78026
     15       2.00000          -0.481194          -13.09395
     16       2.00000          -0.303237           -8.25150
     17       0.00000          -0.264293           -7.19178
     18       0.00000          -0.033210           -0.90370
     19       0.00000          -0.012365           -0.33646
     20       0.00000          -0.008845           -0.24068
     21       0.00000          -0.005552           -0.15107
     22       0.00000           0.008458            0.23016
     23       0.00000           0.028887            0.78605
     24       0.00000           0.045827            1.24701
     25       0.00000           0.048349            1.31563
     26       0.00000           0.072616            1.97598
     27       0.00000           0.084547            2.30063
     28       0.00000           0.167600            4.56063
     29       0.00000           0.197992            5.38764
     30       0.00000           0.212858            5.79215
     31       0.00000           0.234379            6.37778
     32       0.00000           0.244365            6.64951
     33       0.00000           0.256343            6.97546
     34       0.00000           0.269622            7.33679
     35       0.00000           0.292917            7.97067
     36       0.00000           0.377961           10.28485
     37       0.00000           0.420370           11.43884
     38       0.00000           0.445009           12.10931
     39       0.00000           0.445825           12.13152
     40       0.00000           0.523922           14.25665

  Highest occupied state (VBM) at     -8.25149572 eV
  | Occupation number:      2.00000000

  Lowest unoccupied state (CBM) at    -7.19178061 eV
  | Occupation number:      0.00000000

  Overall HOMO-LUMO gap:      1.05971511 eV.
  Calculating total energy contributions from superposition of free atom densities.

  Total energy components:
  | Sum of eigenvalues            :         -95.74226529 Ha       -2605.27959381 eV
  | XC energy correction          :         -23.62954992 Ha        -642.99276831 eV
  | XC potential correction       :          30.35232743 Ha         825.92885220 eV
  | Free-atom electrostatic energy:         -68.18845362 Ha       -1855.50222983 eV
  | Hartree energy correction     :           0.00000000 Ha           0.00000000 eV
  | vdW energy correction         :           0.00000000 Ha           0.00000000 eV
  | Entropy correction            :          -0.00000000 Ha          -0.00000000 eV
  | ---------------------------
  | Total energy                  :        -157.20794139 Ha       -4277.84573974 eV
  | Total energy, T -> 0          :        -157.20794139 Ha       -4277.84573974 eV  <-- do not rely on this value for anything but (periodic) metals
  | Electronic free energy        :        -157.20794139 Ha       -4277.84573974 eV

  Derived energy quantities:
  | Kinetic energy                :         154.23525376 Ha        4196.95479359 eV
  | Electrostatic energy          :        -287.81364524 Ha       -7831.80776502 eV
  | Energy correction for multipole
  | error in Hartree potential    :           0.00000000 Ha           0.00000000 eV
  | Sum of eigenvalues per atom                           :        -217.10663282 eV
  | Total energy (T->0) per atom                          :        -356.48714498 eV  <-- do not rely on this value for anything but (periodic) metals
  | Electronic free energy per atom                       :        -356.48714498 eV
  Initialize hartree_potential_storage
  Max. number of atoms included in rho_multipole:           12

  End scf initialization - timings             :  max(cpu_time)    wall_clock(cpu1)
  | Time for scf. initialization               :        0.524 s           0.524 s
  | Boundary condition initialization          :        0.000 s           0.000 s
  | Integration                                :        0.316 s           0.318 s
  | Solution of K.-S. eqns.                    :        0.012 s           0.020 s
  | Grid partitioning                          :        0.068 s           0.065 s
  | Preloading free-atom quantities on grid    :        0.004 s           0.004 s
  | Free-atom superposition energy             :        0.036 s           0.035 s
  | Total energy evaluation                    :        0.000 s           0.001 s

  Partial memory accounting:
  | Current value for overall tracked memory usage on task 0  :           0.179 MB
  | Peak value for overall tracked memory usage on task 0     :           0.610 MB after allocating wave
  | Largest tracked array allocation on task 0 so far         :           0.143 MB  when allocating H_times_psi
  Note:  These values currently only include a subset of arrays which are explicitly tracked.
  The "true" memory usage will be greater.
------------------------------------------------------------

------------------------------------------------------------
          Begin self-consistency iteration #    1

  Date     :  20180215, Time     :  214341.952
------------------------------------------------------------
  Evaluating new KS density.
  Integration grid: deviation in total charge (<rho> - N_e) =   0.000000E+00
  Pulay mixing of updated and previous charge densities.

  Evaluating partitioned Hartree potential by multipole expansion.
  | Analytical far-field extrapolation by fixed multipoles:
  | Hartree multipole sum: apparent total charge =  -0.107640E-03
  Summing up the Hartree potential.
  Time summed over all CPUs for potential: real work        1.298 s, elapsed        1.330 s
  | RMS charge density error from multipole expansion :   0.125392E-02

  Integrating Hamiltonian matrix: batch-based integration.
  Time summed over all CPUs for integration: real work        1.288 s, elapsed        1.345 s

  Updating Kohn-Sham eigenvalues, eigenvectors, occupation numbers, and Fermi level.
  Solving generalized eigenproblem
  Updating Kohn-Sham eigenvalues and eigenfunctions.
  Solving real generalised eigenvalue problem by standard LAPACK (fast)

  Obtaining occupation numbers and chemical potential using ELSI.
  | Chemical potential (Fermi level):    -6.94389906eV
  Writing Kohn-Sham eigenvalues.

  State    Occupation    Eigenvalue [Ha]    Eigenvalue [eV]
      1       2.00000         -10.130833         -275.67400
      2       2.00000         -10.130833         -275.67400
      3       2.00000         -10.114091         -275.21842
      4       2.00000         -10.113701         -275.20780
      5       2.00000          -0.891567          -24.26076
      6       2.00000          -0.832293          -22.64785
      7       2.00000          -0.755763          -20.56535
      8       2.00000          -0.648315          -17.64154
      9       2.00000          -0.569274          -15.49074
     10       2.00000          -0.547761          -14.90535
     11       2.00000          -0.539936          -14.69240
     12       2.00000          -0.518540          -14.11020
     13       2.00000          -0.505546          -13.75660
     14       2.00000          -0.490236          -13.34001
     15       2.00000          -0.465221          -12.65931
     16       2.00000          -0.287381           -7.82004
     17       0.00000          -0.248638           -6.76577
     18       0.00000          -0.025059           -0.68188
     19       0.00000          -0.003597           -0.09787
     20       0.00000           0.000467            0.01270
     21       0.00000           0.004657            0.12674
     22       0.00000           0.020071            0.54616
     23       0.00000           0.039059            1.06284
     24       0.00000           0.056659            1.54177
     25       0.00000           0.058296            1.58632
     26       0.00000           0.086113            2.34324
     27       0.00000           0.097040            2.64058
     28       0.00000           0.180538            4.91270
     29       0.00000           0.208747            5.68029
     30       0.00000           0.223355            6.07780
     31       0.00000           0.244913            6.66441
     32       0.00000           0.257255            7.00027
     33       0.00000           0.268383            7.30307
     34       0.00000           0.281280            7.65403
     35       0.00000           0.303898            8.26949
     36       0.00000           0.389383           10.59565
     37       0.00000           0.430845           11.72389
     38       0.00000           0.455635           12.39846
     39       0.00000           0.455989           12.40810
     40       0.00000           0.536535           14.59986

  Highest occupied state (VBM) at     -7.82003907 eV
  | Occupation number:      2.00000000

  Lowest unoccupied state (CBM) at    -6.76577195 eV
  | Occupation number:      0.00000000

  Overall HOMO-LUMO gap:      1.05426712 eV.

  Total energy components:
  | Sum of eigenvalues            :         -95.08258216 Ha       -2587.32870248 eV
  | XC energy correction          :         -23.68884676 Ha        -644.60631750 eV
  | XC potential correction       :          30.42916324 Ha         828.01966094 eV
  | Free-atom electrostatic energy:         -68.18845362 Ha       -1855.50222983 eV
  | Hartree energy correction     :          -0.63051644 Ha         -17.15722522 eV
  | vdW energy correction         :           0.00000000 Ha           0.00000000 eV
  | Entropy correction            :          -0.00000000 Ha          -0.00000000 eV
  | ---------------------------
  | Total energy                  :        -157.16123574 Ha       -4276.57481409 eV
  | Total energy, T -> 0          :        -157.16123574 Ha       -4276.57481409 eV  <-- do not rely on this value for anything but (periodic) metals
  | Electronic free energy        :        -157.16123574 Ha       -4276.57481409 eV

  Derived energy quantities:
  | Kinetic energy                :         154.55130088 Ha        4205.55487327 eV
  | Electrostatic energy          :        -288.02368986 Ha       -7837.52336986 eV
  | Energy correction for multipole
  | error in Hartree potential    :           0.00225327 Ha           0.06131452 eV
  | Sum of eigenvalues per atom                           :        -215.61072521 eV
  | Total energy (T->0) per atom                          :        -356.38123451 eV  <-- do not rely on this value for anything but (periodic) metals
  | Electronic free energy per atom                       :        -356.38123451 eV

  Self-consistency convergence accuracy:
  | Change of charge density      :  0.4785E+00
  | Change of sum of eigenvalues  :  0.1795E+02 eV
  | Change of total energy        :  0.1271E+01 eV

  End self-consistency iteration #     1       :  max(cpu_time)    wall_clock(cpu1)
  | Time for this iteration                    :        0.532 s           0.530 s
  | Charge density update                      :        0.168 s           0.166 s
  | Density mixing                             :        0.004 s           0.002 s
  | Hartree multipole update                   :        0.012 s           0.010 s
  | Hartree multipole summation                :        0.172 s           0.173 s
  | Integration                                :        0.176 s           0.174 s
  | Solution of K.-S. eqns.                    :        0.004 s           0.002 s
  | Total energy evaluation                    :        0.000 s           0.001 s

  Partial memory accounting:
  | Current value for overall tracked memory usage on task 0  :           0.179 MB
  | Peak value for overall tracked memory usage on task 0     :           0.751 MB after allocating gradient_basis_wave
  | Largest tracked array allocation on task 0 so far         :           0.429 MB  when allocating gradient_basis_wave
  Note:  These values currently only include a subset of arrays which are explicitly tracked.
  The "true" memory usage will be greater.
------------------------------------------------------------

------------------------------------------------------------
          Begin self-consistency iteration #    2

  Date     :  20180215, Time     :  214342.483
------------------------------------------------------------
  Evaluating new KS density.
  Integration grid: deviation in total charge (<rho> - N_e) =   2.131628E-14
  Pulay mixing of updated and previous charge densities.

  Evaluating partitioned Hartree potential by multipole expansion.
  | Analytical far-field extrapolation by fixed multipoles:
  | Hartree multipole sum: apparent total charge =  -0.339771E-03
  Summing up the Hartree potential.
  Time summed over all CPUs for potential: real work        1.286 s, elapsed        1.296 s
  | RMS charge density error from multipole expansion :   0.122138E-01

  Integrating Hamiltonian matrix: batch-based integration.
  Time summed over all CPUs for integration: real work        1.273 s, elapsed        1.303 s

  Updating Kohn-Sham eigenvalues, eigenvectors, occupation numbers, and Fermi level.
  Solving generalized eigenproblem
  Updating Kohn-Sham eigenvalues and eigenfunctions.
  Solving real generalised eigenvalue problem by standard LAPACK (fast)

  Obtaining occupation numbers and chemical potential using ELSI.
  | Chemical potential (Fermi level):    -3.89114476eV
  Highest occupied state (VBM) at     -4.29851820 eV
  | Occupation number:      2.00000000

  Lowest unoccupied state (CBM) at    -3.30108333 eV
  | Occupation number:      0.00000000

  Overall HOMO-LUMO gap:      0.99743486 eV.

  Checking to see if s.c.f. parameters should be adjusted.
  The system likely has a gap. Increased the default Pulay mixing parameter (charge_mix_param). Value:   0.200000 .
  Kept the default occupation width. Value:   0.010000 eV.

  Total energy components:
  | Sum of eigenvalues            :         -89.62974750 Ha       -2438.94952198 eV
  | XC energy correction          :         -24.22816741 Ha        -659.28197911 eV
  | XC potential correction       :          31.12772447 Ha         847.02847927 eV
  | Free-atom electrostatic energy:         -68.18845362 Ha       -1855.50222983 eV
  | Hartree energy correction     :          -6.05150368 Ha        -164.66979352 eV
  | vdW energy correction         :           0.00000000 Ha           0.00000000 eV
  | Entropy correction            :           0.00000000 Ha           0.00000000 eV
  | ---------------------------
  | Total energy                  :        -156.97014774 Ha       -4271.37504516 eV
  | Total energy, T -> 0          :        -156.97014774 Ha       -4271.37504516 eV  <-- do not rely on this value for anything but (periodic) metals
  | Electronic free energy        :        -156.97014774 Ha       -4271.37504516 eV

  Derived energy quantities:
  | Kinetic energy                :         156.86383476 Ha        4268.48212170 eV
  | Electrostatic energy          :        -289.60581509 Ha       -7880.57518776 eV
  | Energy correction for multipole
  | error in Hartree potential    :           0.02113446 Ha           0.57509790 eV
  | Sum of eigenvalues per atom                           :        -203.24579350 eV
  | Total energy (T->0) per atom                          :        -355.94792043 eV  <-- do not rely on this value for anything but (periodic) metals
  | Electronic free energy per atom                       :        -355.94792043 eV

  Self-consistency convergence accuracy:
  | Change of charge density      :  0.4400E+00
  | Change of sum of eigenvalues  :  0.1484E+03 eV
  | Change of total energy        :  0.5200E+01 eV

  End self-consistency iteration #     2       :  max(cpu_time)    wall_clock(cpu1)
  | Time for this iteration                    :        0.520 s           0.519 s
  | Charge density update                      :        0.168 s           0.165 s
  | Density mixing                             :        0.004 s           0.003 s
  | Hartree multipole update                   :        0.012 s           0.010 s
  | Hartree multipole summation                :        0.168 s           0.169 s
  | Integration                                :        0.172 s           0.169 s
  | Solution of K.-S. eqns.                    :        0.004 s           0.002 s
  | Total energy evaluation                    :        0.000 s           0.001 s

  Partial memory accounting:
  | Current value for overall tracked memory usage on task 0  :           0.180 MB
  | Peak value for overall tracked memory usage on task 0     :           0.751 MB after allocating gradient_basis_wave
  | Largest tracked array allocation on task 0 so far         :           0.429 MB  when allocating gradient_basis_wave
  Note:  These values currently only include a subset of arrays which are explicitly tracked.
  The "true" memory usage will be greater.
------------------------------------------------------------

------------------------------------------------------------
          Begin self-consistency iteration #    3

  Date     :  20180215, Time     :  214343.003
------------------------------------------------------------
  Evaluating new KS density.
  Integration grid: deviation in total charge (<rho> - N_e) =   2.131628E-14
  Pulay mixing of updated and previous charge densities.

  Evaluating partitioned Hartree potential by multipole expansion.
  | Analytical far-field extrapolation by fixed multipoles:
  | Hartree multipole sum: apparent total charge =  -0.334782E-03
  Summing up the Hartree potential.
  Time summed over all CPUs for potential: real work        1.314 s, elapsed        1.476 s
  | RMS charge density error from multipole expansion :   0.154458E-01

  Integrating Hamiltonian matrix: batch-based integration.
  Time summed over all CPUs for integration: real work        1.291 s, elapsed        1.327 s

  Updating Kohn-Sham eigenvalues, eigenvectors, occupation numbers, and Fermi level.
  Solving generalized eigenproblem
  Updating Kohn-Sham eigenvalues and eigenfunctions.
  Solving real generalised eigenvalue problem by standard LAPACK (fast)

  Obtaining occupation numbers and chemical potential using ELSI.
  | Chemical potential (Fermi level):    -4.18095311eV
  Highest occupied state (VBM) at     -4.80512905 eV
  | Occupation number:      2.00000000

  Lowest unoccupied state (CBM) at    -3.80331506 eV
  | Occupation number:      0.00000000

  Overall HOMO-LUMO gap:      1.00181399 eV.

  Total energy components:
  | Sum of eigenvalues            :         -90.41677752 Ha       -2460.36569834 eV
  | XC energy correction          :         -24.19920950 Ha        -658.49399438 eV
  | XC potential correction       :          31.08677122 Ha         845.91408455 eV
  | Free-atom electrostatic energy:         -68.18845362 Ha       -1855.50222983 eV
  | Hartree energy correction     :          -5.24524648 Ha        -142.73041866 eV
  | vdW energy correction         :           0.00000000 Ha           0.00000000 eV
  | Entropy correction            :           0.00000000 Ha           0.00000000 eV
  | ---------------------------
  | Total energy                  :        -156.96291589 Ha       -4271.17825665 eV
  | Total energy, T -> 0          :        -156.96291589 Ha       -4271.17825665 eV  <-- do not rely on this value for anything but (periodic) metals
  | Electronic free energy        :        -156.96291589 Ha       -4271.17825665 eV

  Derived energy quantities:
  | Kinetic energy                :         156.26285975 Ha        4252.12875981 eV
  | Electrostatic energy          :        -289.02656614 Ha       -7864.81302209 eV
  | Energy correction for multipole
  | error in Hartree potential    :           0.02600057 Ha           0.70751146 eV
  | Sum of eigenvalues per atom                           :        -205.03047486 eV
  | Total energy (T->0) per atom                          :        -355.93152139 eV  <-- do not rely on this value for anything but (periodic) metals
  | Electronic free energy per atom                       :        -355.93152139 eV

  Self-consistency convergence accuracy:
  | Change of charge density      :  0.2075E+00
  | Change of sum of eigenvalues  : -0.2142E+02 eV
  | Change of total energy        :  0.1968E+00 eV

  End self-consistency iteration #     3       :  max(cpu_time)    wall_clock(cpu1)
  | Time for this iteration                    :        0.548 s           0.546 s
  | Charge density update                      :        0.168 s           0.164 s
  | Density mixing                             :        0.004 s           0.004 s
  | Hartree multipole update                   :        0.012 s           0.011 s
  | Hartree multipole summation                :        0.192 s           0.191 s
  | Integration                                :        0.172 s           0.172 s
  | Solution of K.-S. eqns.                    :        0.004 s           0.002 s
  | Total energy evaluation                    :        0.000 s           0.001 s

  Partial memory accounting:
  | Current value for overall tracked memory usage on task 0  :           0.180 MB
  | Peak value for overall tracked memory usage on task 0     :           0.751 MB after allocating gradient_basis_wave
  | Largest tracked array allocation on task 0 so far         :           0.429 MB  when allocating gradient_basis_wave
  Note:  These values currently only include a subset of arrays which are explicitly tracked.
  The "true" memory usage will be greater.
------------------------------------------------------------

------------------------------------------------------------
          Begin self-consistency iteration #    4

  Date     :  20180215, Time     :  214343.550
------------------------------------------------------------
  Evaluating new KS density.
  Integration grid: deviation in total charge (<rho> - N_e) =  -3.552714E-15
  Pulay mixing of updated and previous charge densities.

  Evaluating partitioned Hartree potential by multipole expansion.
  | Analytical far-field extrapolation by fixed multipoles:
  | Hartree multipole sum: apparent total charge =  -0.398252E-03
  Summing up the Hartree potential.
  Time summed over all CPUs for potential: real work        1.287 s, elapsed        1.295 s
  | RMS charge density error from multipole expansion :   0.206901E-01

  Integrating Hamiltonian matrix: batch-based integration.
  Time summed over all CPUs for integration: real work        1.273 s, elapsed        1.306 s

  Updating Kohn-Sham eigenvalues, eigenvectors, occupation numbers, and Fermi level.
  Solving generalized eigenproblem
  Updating Kohn-Sham eigenvalues and eigenfunctions.
  Solving real generalised eigenvalue problem by standard LAPACK (fast)

  Obtaining occupation numbers and chemical potential using ELSI.
  | Chemical potential (Fermi level):    -3.57152759eV
  Highest occupied state (VBM) at     -4.20679856 eV
  | Occupation number:      2.00000000

  Lowest unoccupied state (CBM) at    -3.22125465 eV
  | Occupation number:      0.00000000

  Overall HOMO-LUMO gap:      0.98554391 eV.

  Total energy components:
  | Sum of eigenvalues            :         -89.56974073 Ha       -2437.31665445 eV
  | XC energy correction          :         -24.32970659 Ha        -662.04500082 eV
  | XC potential correction       :          31.25370257 Ha         850.45651775 eV
  | Free-atom electrostatic energy:         -68.18845362 Ha       -1855.50222983 eV
  | Hartree energy correction     :          -6.11948896 Ha        -166.51976698 eV
  | vdW energy correction         :           0.00000000 Ha           0.00000000 eV
  | Entropy correction            :           0.00000000 Ha           0.00000000 eV
  | ---------------------------
  | Total energy                  :        -156.95368732 Ha       -4270.92713432 eV
  | Total energy, T -> 0          :        -156.95368732 Ha       -4270.92713432 eV  <-- do not rely on this value for anything but (periodic) metals
  | Electronic free energy        :        -156.95368732 Ha       -4270.92713432 eV

  Derived energy quantities:
  | Kinetic energy                :         156.30754634 Ha        4253.34474382 eV
  | Electrostatic energy          :        -288.93152707 Ha       -7862.22687732 eV
  | Energy correction for multipole
  | error in Hartree potential    :           0.03327122 Ha           0.90535591 eV
  | Sum of eigenvalues per atom                           :        -203.10972120 eV
  | Total energy (T->0) per atom                          :        -355.91059453 eV  <-- do not rely on this value for anything but (periodic) metals
  | Electronic free energy per atom                       :        -355.91059453 eV

  Self-consistency convergence accuracy:
  | Change of charge density      :  0.1205E+00
  | Change of sum of eigenvalues  :  0.2305E+02 eV
  | Change of total energy        :  0.2511E+00 eV

  End self-consistency iteration #     4       :  max(cpu_time)    wall_clock(cpu1)
  | Time for this iteration                    :        0.528 s           0.525 s
  | Charge density update                      :        0.168 s           0.168 s
  | Density mixing                             :        0.008 s           0.005 s
  | Hartree multipole update                   :        0.012 s           0.011 s
  | Hartree multipole summation                :        0.168 s           0.168 s
  | Integration                                :        0.172 s           0.169 s
  | Solution of K.-S. eqns.                    :        0.004 s           0.002 s
  | Total energy evaluation                    :        0.000 s           0.000 s

  Partial memory accounting:
  | Current value for overall tracked memory usage on task 0  :           0.180 MB
  | Peak value for overall tracked memory usage on task 0     :           0.751 MB after allocating gradient_basis_wave
  | Largest tracked array allocation on task 0 so far         :           0.429 MB  when allocating gradient_basis_wave
  Note:  These values currently only include a subset of arrays which are explicitly tracked.
  The "true" memory usage will be greater.
------------------------------------------------------------

------------------------------------------------------------
          Begin self-consistency iteration #    5

  Date     :  20180215, Time     :  214344.075
------------------------------------------------------------
  Evaluating new KS density.
  Integration grid: deviation in total charge (<rho> - N_e) =  -7.105427E-15
  Pulay mixing of updated and previous charge densities.

  Evaluating partitioned Hartree potential by multipole expansion.
  | Analytical far-field extrapolation by fixed multipoles:
  | Hartree multipole sum: apparent total charge =  -0.422568E-03
  Summing up the Hartree potential.
  Time summed over all CPUs for potential: real work        1.293 s, elapsed        1.314 s
  | RMS charge density error from multipole expansion :   0.212908E-01

  Integrating Hamiltonian matrix: batch-based integration.
  Time summed over all CPUs for integration: real work        1.352 s, elapsed        1.743 s

  Updating Kohn-Sham eigenvalues, eigenvectors, occupation numbers, and Fermi level.
  Solving generalized eigenproblem
  Updating Kohn-Sham eigenvalues and eigenfunctions.
  Solving real generalised eigenvalue problem by standard LAPACK (fast)

  Obtaining occupation numbers and chemical potential using ELSI.
  | Chemical potential (Fermi level):    -3.39707673eV
  Highest occupied state (VBM) at     -3.97029715 eV
  | Occupation number:      2.00000000

  Lowest unoccupied state (CBM) at    -2.98989158 eV
  | Occupation number:      0.00000000

  Overall HOMO-LUMO gap:      0.98040558 eV.

  Total energy components:
  | Sum of eigenvalues            :         -89.33417678 Ha       -2430.90663335 eV
  | XC energy correction          :         -24.34929097 Ha        -662.57791888 eV
  | XC potential correction       :          31.27916510 Ha         851.14938840 eV
  | Free-atom electrostatic energy:         -68.18845362 Ha       -1855.50222983 eV
  | Hartree energy correction     :          -6.35989407 Ha        -173.06152298 eV
  | vdW energy correction         :           0.00000000 Ha           0.00000000 eV
  | Entropy correction            :           0.00000000 Ha           0.00000000 eV
  | ---------------------------
  | Total energy                  :        -156.95265034 Ha       -4270.89891664 eV
  | Total energy, T -> 0          :        -156.95265034 Ha       -4270.89891664 eV  <-- do not rely on this value for anything but (periodic) metals
  | Electronic free energy        :        -156.95265034 Ha       -4270.89891664 eV

  Derived energy quantities:
  | Kinetic energy                :         156.27106344 Ha        4252.35199339 eV
  | Electrostatic energy          :        -288.87442280 Ha       -7860.67299116 eV
  | Energy correction for multipole
  | error in Hartree potential    :           0.03279178 Ha           0.89230976 eV
  | Sum of eigenvalues per atom                           :        -202.57555278 eV
  | Total energy (T->0) per atom                          :        -355.90824305 eV  <-- do not rely on this value for anything but (periodic) metals
  | Electronic free energy per atom                       :        -355.90824305 eV

  Self-consistency convergence accuracy:
  | Change of charge density      :  0.3084E-01
  | Change of sum of eigenvalues  :  0.6410E+01 eV
  | Change of total energy        :  0.2822E-01 eV

  End self-consistency iteration #     5       :  max(cpu_time)    wall_clock(cpu1)
  | Time for this iteration                    :        0.592 s           0.590 s
  | Charge density update                      :        0.164 s           0.164 s
  | Density mixing                             :        0.008 s           0.007 s
  | Hartree multipole update                   :        0.016 s           0.015 s
  | Hartree multipole summation                :        0.172 s           0.171 s
  | Integration                                :        0.228 s           0.228 s
  | Solution of K.-S. eqns.                    :        0.004 s           0.004 s
  | Total energy evaluation                    :        0.000 s           0.001 s

  Partial memory accounting:
  | Current value for overall tracked memory usage on task 0  :           0.180 MB
  | Peak value for overall tracked memory usage on task 0     :           0.751 MB after allocating gradient_basis_wave
  | Largest tracked array allocation on task 0 so far         :           0.429 MB  when allocating gradient_basis_wave
  Note:  These values currently only include a subset of arrays which are explicitly tracked.
  The "true" memory usage will be greater.
------------------------------------------------------------

------------------------------------------------------------
          Begin self-consistency iteration #    6

  Date     :  20180215, Time     :  214344.667
------------------------------------------------------------
  Evaluating new KS density.
  Integration grid: deviation in total charge (<rho> - N_e) =  -1.065814E-14
  Pulay mixing of updated and previous charge densities.

  Evaluating partitioned Hartree potential by multipole expansion.
  | Analytical far-field extrapolation by fixed multipoles:
  | Hartree multipole sum: apparent total charge =  -0.439086E-03
  Summing up the Hartree potential.
  Time summed over all CPUs for potential: real work        1.291 s, elapsed        1.304 s
  | RMS charge density error from multipole expansion :   0.215844E-01

  Integrating Hamiltonian matrix: batch-based integration.
  Time summed over all CPUs for integration: real work        1.423 s, elapsed        1.912 s => Consider using load balancing!

  Updating Kohn-Sham eigenvalues, eigenvectors, occupation numbers, and Fermi level.
  Solving generalized eigenproblem
  Updating Kohn-Sham eigenvalues and eigenfunctions.
  Solving real generalised eigenvalue problem by standard LAPACK (fast)

  Obtaining occupation numbers and chemical potential using ELSI.
  | Chemical potential (Fermi level):    -3.32818639eV
  Highest occupied state (VBM) at     -3.89626917 eV
  | Occupation number:      2.00000000

  Lowest unoccupied state (CBM) at    -2.91656213 eV
  | Occupation number:      0.00000000

  Overall HOMO-LUMO gap:      0.97970704 eV.

  Total energy components:
  | Sum of eigenvalues            :         -89.24675609 Ha       -2428.52779545 eV
  | XC energy correction          :         -24.35857389 Ha        -662.83051998 eV
  | XC potential correction       :          31.29121938 Ha         851.47740200 eV
  | Free-atom electrostatic energy:         -68.18845362 Ha       -1855.50222983 eV
  | Hartree energy correction     :          -6.44987804 Ha        -175.51011128 eV
  | vdW energy correction         :           0.00000000 Ha           0.00000000 eV
  | Entropy correction            :           0.00000000 Ha           0.00000000 eV
  | ---------------------------
  | Total energy                  :        -156.95244226 Ha       -4270.89325454 eV
  | Total energy, T -> 0          :        -156.95244226 Ha       -4270.89325454 eV  <-- do not rely on this value for anything but (periodic) metals
  | Electronic free energy        :        -156.95244226 Ha       -4270.89325454 eV

  Derived energy quantities:
  | Kinetic energy                :         156.22042260 Ha        4250.97398604 eV
  | Electrostatic energy          :        -288.81429097 Ha       -7859.03672060 eV
  | Energy correction for multipole
  | error in Hartree potential    :           0.03205018 Ha           0.87212987 eV
  | Sum of eigenvalues per atom                           :        -202.37731629 eV
  | Total energy (T->0) per atom                          :        -355.90777121 eV  <-- do not rely on this value for anything but (periodic) metals
  | Electronic free energy per atom                       :        -355.90777121 eV

  Self-consistency convergence accuracy:
  | Change of charge density      :  0.1489E-01
  | Change of sum of eigenvalues  :  0.2379E+01 eV
  | Change of total energy        :  0.5662E-02 eV

  End self-consistency iteration #     6       :  max(cpu_time)    wall_clock(cpu1)
  | Time for this iteration                    :        0.648 s           0.648 s
  | Charge density update                      :        0.208 s           0.207 s
  | Density mixing                             :        0.012 s           0.009 s
  | Hartree multipole update                   :        0.012 s           0.010 s
  | Hartree multipole summation                :        0.172 s           0.169 s
  | Integration                                :        0.248 s           0.248 s
  | Solution of K.-S. eqns.                    :        0.004 s           0.004 s
  | Total energy evaluation                    :        0.000 s           0.001 s

  Partial memory accounting:
  | Current value for overall tracked memory usage on task 0  :           0.180 MB
  | Peak value for overall tracked memory usage on task 0     :           0.751 MB after allocating gradient_basis_wave
  | Largest tracked array allocation on task 0 so far         :           0.429 MB  when allocating gradient_basis_wave
  Note:  These values currently only include a subset of arrays which are explicitly tracked.
  The "true" memory usage will be greater.
------------------------------------------------------------

------------------------------------------------------------
          Begin self-consistency iteration #    7

  Date     :  20180215, Time     :  214345.316
------------------------------------------------------------
  Evaluating new KS density.
  Integration grid: deviation in total charge (<rho> - N_e) =   2.131628E-14
  Pulay mixing of updated and previous charge densities.

  Evaluating partitioned Hartree potential by multipole expansion.
  | Analytical far-field extrapolation by fixed multipoles:
  | Hartree multipole sum: apparent total charge =  -0.442011E-03
  Summing up the Hartree potential.
  Time summed over all CPUs for potential: real work        1.343 s, elapsed        1.711 s
  | RMS charge density error from multipole expansion :   0.215579E-01

  Integrating Hamiltonian matrix: batch-based integration.
  Time summed over all CPUs for integration: real work        1.523 s, elapsed        2.188 s => Consider using load balancing!

  Updating Kohn-Sham eigenvalues, eigenvectors, occupation numbers, and Fermi level.
  Solving generalized eigenproblem
  Updating Kohn-Sham eigenvalues and eigenfunctions.
  Solving real generalised eigenvalue problem by standard LAPACK (fast)

  Obtaining occupation numbers and chemical potential using ELSI.
  | Chemical potential (Fermi level):    -3.31250613eV
  Highest occupied state (VBM) at     -3.87305087 eV
  | Occupation number:      2.00000000

  Lowest unoccupied state (CBM) at    -2.89371705 eV
  | Occupation number:      0.00000000

  Overall HOMO-LUMO gap:      0.97933383 eV.

  Total energy components:
  | Sum of eigenvalues            :         -89.22431991 Ha       -2427.91727574 eV
  | XC energy correction          :         -24.35961937 Ha        -662.85896904 eV
  | XC potential correction       :          31.29263768 Ha         851.51599582 eV
  | Free-atom electrostatic energy:         -68.18845362 Ha       -1855.50222983 eV
  | Hartree energy correction     :          -6.47265010 Ha        -176.12977069 eV
  | vdW energy correction         :           0.00000000 Ha           0.00000000 eV
  | Entropy correction            :           0.00000000 Ha           0.00000000 eV
  | ---------------------------
  | Total energy                  :        -156.95240532 Ha       -4270.89224948 eV
  | Total energy, T -> 0          :        -156.95240532 Ha       -4270.89224948 eV  <-- do not rely on this value for anything but (periodic) metals
  | Electronic free energy        :        -156.95240532 Ha       -4270.89224948 eV

  Derived energy quantities:
  | Kinetic energy                :         156.21820753 Ha        4250.91371111 eV
  | Electrostatic energy          :        -288.81099349 Ha       -7858.94699156 eV
  | Energy correction for multipole
  | error in Hartree potential    :           0.03179207 Ha           0.86510617 eV
  | Sum of eigenvalues per atom                           :        -202.32643965 eV
  | Total energy (T->0) per atom                          :        -355.90768746 eV  <-- do not rely on this value for anything but (periodic) metals
  | Electronic free energy per atom                       :        -355.90768746 eV

  Self-consistency convergence accuracy:
  | Change of charge density      :  0.6101E-02
  | Change of sum of eigenvalues  :  0.6105E+00 eV
  | Change of total energy        :  0.1005E-02 eV

  End self-consistency iteration #     7       :  max(cpu_time)    wall_clock(cpu1)
  | Time for this iteration                    :        0.708 s           0.710 s
  | Charge density update                      :        0.176 s           0.177 s
  | Density mixing                             :        0.012 s           0.011 s
  | Hartree multipole update                   :        0.012 s           0.011 s
  | Hartree multipole summation                :        0.224 s           0.223 s
  | Integration                                :        0.288 s           0.285 s
  | Solution of K.-S. eqns.                    :        0.004 s           0.002 s
  | Total energy evaluation                    :        0.004 s           0.001 s

  Partial memory accounting:
  | Current value for overall tracked memory usage on task 0  :           0.180 MB
  | Peak value for overall tracked memory usage on task 0     :           0.751 MB after allocating gradient_basis_wave
  | Largest tracked array allocation on task 0 so far         :           0.429 MB  when allocating gradient_basis_wave
  Note:  These values currently only include a subset of arrays which are explicitly tracked.
  The "true" memory usage will be greater.
------------------------------------------------------------

------------------------------------------------------------
          Begin self-consistency iteration #    8

  Date     :  20180215, Time     :  214346.027
------------------------------------------------------------
  Evaluating new KS density.
  Integration grid: deviation in total charge (<rho> - N_e) =   0.000000E+00
  Pulay mixing of updated and previous charge densities.

  Evaluating partitioned Hartree potential by multipole expansion.
  | Analytical far-field extrapolation by fixed multipoles:
  | Hartree multipole sum: apparent total charge =  -0.449041E-03
  Summing up the Hartree potential.
  Time summed over all CPUs for potential: real work        1.300 s, elapsed        1.388 s
  | RMS charge density error from multipole expansion :   0.215989E-01

  Integrating Hamiltonian matrix: batch-based integration.
  Time summed over all CPUs for integration: real work        1.294 s, elapsed        1.349 s

  Updating Kohn-Sham eigenvalues, eigenvectors, occupation numbers, and Fermi level.
  Solving generalized eigenproblem
  Updating Kohn-Sham eigenvalues and eigenfunctions.
  Solving real generalised eigenvalue problem by standard LAPACK (fast)

  Obtaining occupation numbers and chemical potential using ELSI.
  | Chemical potential (Fermi level):    -3.27161011eV
  Highest occupied state (VBM) at     -3.82032690 eV
  | Occupation number:      2.00000000

  Lowest unoccupied state (CBM) at    -2.84206910 eV
  | Occupation number:      0.00000000

  Overall HOMO-LUMO gap:      0.97825780 eV.

  Total energy components:
  | Sum of eigenvalues            :         -89.16885218 Ha       -2426.40792205 eV
  | XC energy correction          :         -24.36475135 Ha        -662.99861712 eV
  | XC potential correction       :          31.29936085 Ha         851.69894275 eV
  | Free-atom electrostatic energy:         -68.18845362 Ha       -1855.50222983 eV
  | Hartree energy correction     :          -6.52967171 Ha        -177.68140766 eV
  | vdW energy correction         :           0.00000000 Ha           0.00000000 eV
  | Entropy correction            :           0.00000000 Ha           0.00000000 eV
  | ---------------------------
  | Total energy                  :        -156.95236800 Ha       -4270.89123391 eV
  | Total energy, T -> 0          :        -156.95236800 Ha       -4270.89123391 eV  <-- do not rely on this value for anything but (periodic) metals
  | Electronic free energy        :        -156.95236800 Ha       -4270.89123391 eV

  Derived energy quantities:
  | Kinetic energy                :         156.21761958 Ha        4250.89771194 eV
  | Electrostatic energy          :        -288.80523623 Ha       -7858.79032873 eV
  | Energy correction for multipole
  | error in Hartree potential    :           0.03142485 Ha           0.85511365 eV
  | Sum of eigenvalues per atom                           :        -202.20066017 eV
  | Total energy (T->0) per atom                          :        -355.90760283 eV  <-- do not rely on this value for anything but (periodic) metals
  | Electronic free energy per atom                       :        -355.90760283 eV

  Self-consistency convergence accuracy:
  | Change of charge density      :  0.4743E-02
  | Change of sum of eigenvalues  :  0.1509E+01 eV
  | Change of total energy        :  0.1016E-02 eV

  End self-consistency iteration #     8       :  max(cpu_time)    wall_clock(cpu1)
  | Time for this iteration                    :        0.560 s           0.558 s
  | Charge density update                      :        0.176 s           0.174 s
  | Density mixing                             :        0.012 s           0.014 s
  | Hartree multipole update                   :        0.012 s           0.011 s
  | Hartree multipole summation                :        0.180 s           0.180 s
  | Integration                                :        0.176 s           0.175 s
  | Solution of K.-S. eqns.                    :        0.004 s           0.003 s
  | Total energy evaluation                    :        0.004 s           0.001 s

  Partial memory accounting:
  | Current value for overall tracked memory usage on task 0  :           0.180 MB
  | Peak value for overall tracked memory usage on task 0     :           0.751 MB after allocating gradient_basis_wave
  | Largest tracked array allocation on task 0 so far         :           0.429 MB  when allocating gradient_basis_wave
  Note:  These values currently only include a subset of arrays which are explicitly tracked.
  The "true" memory usage will be greater.
------------------------------------------------------------

------------------------------------------------------------
          Begin self-consistency iteration #    9

  Date     :  20180215, Time     :  214346.586
------------------------------------------------------------
  Evaluating new KS density.
  Integration grid: deviation in total charge (<rho> - N_e) =   7.105427E-15
  Pulay mixing of updated and previous charge densities.

  Evaluating partitioned Hartree potential by multipole expansion.
  | Analytical far-field extrapolation by fixed multipoles:
  | Hartree multipole sum: apparent total charge =  -0.451065E-03
  Summing up the Hartree potential.
  Time summed over all CPUs for potential: real work        1.294 s, elapsed        1.426 s
  | RMS charge density error from multipole expansion :   0.216104E-01

  Integrating Hamiltonian matrix: batch-based integration.
  Time summed over all CPUs for integration: real work        1.368 s, elapsed        1.588 s

  Updating Kohn-Sham eigenvalues, eigenvectors, occupation numbers, and Fermi level.
  Solving generalized eigenproblem
  Updating Kohn-Sham eigenvalues and eigenfunctions.
  Solving real generalised eigenvalue problem by standard LAPACK (fast)

  Obtaining occupation numbers and chemical potential using ELSI.
  | Chemical potential (Fermi level):    -3.26007368eV
  Highest occupied state (VBM) at     -3.80598260 eV
  | Occupation number:      2.00000000

  Lowest unoccupied state (CBM) at    -2.82799774 eV
  | Occupation number:      0.00000000

  Overall HOMO-LUMO gap:      0.97798486 eV.

  Total energy components:
  | Sum of eigenvalues            :         -89.15239899 Ha       -2425.96020792 eV
  | XC energy correction          :         -24.36653172 Ha        -663.04706367 eV
  | XC potential correction       :          31.30168200 Ha         851.76210439 eV
  | Free-atom electrostatic energy:         -68.18845362 Ha       -1855.50222983 eV
  | Hartree energy correction     :          -6.54666362 Ha        -178.14378088 eV
  | vdW energy correction         :           0.00000000 Ha           0.00000000 eV
  | Entropy correction            :           0.00000000 Ha           0.00000000 eV
  | ---------------------------
  | Total energy                  :        -156.95236594 Ha       -4270.89117790 eV
  | Total energy, T -> 0          :        -156.95236594 Ha       -4270.89117790 eV  <-- do not rely on this value for anything but (periodic) metals
  | Electronic free energy        :        -156.95236594 Ha       -4270.89117790 eV

  Derived energy quantities:
  | Kinetic energy                :         156.21975122 Ha        4250.95571693 eV
  | Electrostatic energy          :        -288.80558544 Ha       -7858.79983116 eV
  | Energy correction for multipole
  | error in Hartree potential    :           0.03133746 Ha           0.85273564 eV
  | Sum of eigenvalues per atom                           :        -202.16335066 eV
  | Total energy (T->0) per atom                          :        -355.90759816 eV  <-- do not rely on this value for anything but (periodic) metals
  | Electronic free energy per atom                       :        -355.90759816 eV

  Self-consistency convergence accuracy:
  | Change of charge density      :  0.1222E-02
  | Change of sum of eigenvalues  :  0.4477E+00 eV
  | Change of total energy        :  0.5601E-04 eV

  End self-consistency iteration #     9       :  max(cpu_time)    wall_clock(cpu1)
  | Time for this iteration                    :        0.620 s           0.618 s
  | Charge density update                      :        0.188 s           0.186 s
  | Density mixing                             :        0.020 s           0.020 s
  | Hartree multipole update                   :        0.016 s           0.014 s
  | Hartree multipole summation                :        0.188 s           0.189 s
  | Integration                                :        0.208 s           0.206 s
  | Solution of K.-S. eqns.                    :        0.004 s           0.002 s
  | Total energy evaluation                    :        0.000 s           0.001 s

  Partial memory accounting:
  | Current value for overall tracked memory usage on task 0  :           0.180 MB
  | Peak value for overall tracked memory usage on task 0     :           0.751 MB after allocating gradient_basis_wave
  | Largest tracked array allocation on task 0 so far         :           0.429 MB  when allocating gradient_basis_wave
  Note:  These values currently only include a subset of arrays which are explicitly tracked.
  The "true" memory usage will be greater.
------------------------------------------------------------

------------------------------------------------------------
          Begin self-consistency iteration #   10

  Date     :  20180215, Time     :  214347.205
------------------------------------------------------------
  Evaluating new KS density.
  Integration grid: deviation in total charge (<rho> - N_e) =  -7.105427E-15
  Pulay mixing of updated and previous charge densities.

  Evaluating partitioned Hartree potential by multipole expansion.
  | Analytical far-field extrapolation by fixed multipoles:
  | Hartree multipole sum: apparent total charge =  -0.451150E-03
  Summing up the Hartree potential.
  Time summed over all CPUs for potential: real work        1.304 s, elapsed        1.346 s
  | RMS charge density error from multipole expansion :   0.216115E-01

  Integrating Hamiltonian matrix: batch-based integration.
[...]
  |   Hirshfeld dipole moment :      0.08499688
  |   Hirshfeld second moments:      0.10530383      -0.00563595       0.00067604
  |                                 -0.00563595       0.08700103       0.00664893
  |                                  0.00067604       0.00664893       0.10331654
  ----------------------------------------------------------------------
  | Atom     8: H
  |   Hirshfeld charge        :      0.03026157
  |   Free atom volume        :      9.95071624
  |   Hirshfeld volume        :      6.56625406
  |   Hirshfeld dipole vector :     -0.05448231       0.04503027       0.05631130
  |   Hirshfeld dipole moment :      0.09037151
  |   Hirshfeld second moments:      0.09392623       0.01133423      -0.00452153
  |                                  0.01133423       0.08915930      -0.00017651
  |                                 -0.00452153      -0.00017651       0.09021398
  ----------------------------------------------------------------------
  | Atom     9: H
  |   Hirshfeld charge        :      0.03026156
  |   Free atom volume        :      9.95071624
  |   Hirshfeld volume        :      6.56625410
  |   Hirshfeld dipole vector :      0.05448231      -0.04503026       0.05631130
  |   Hirshfeld dipole moment :      0.09037151
  |   Hirshfeld second moments:      0.09392623       0.01133423       0.00452153
  |                                  0.01133423       0.08915930       0.00017651
  |                                  0.00452153       0.00017651       0.09021398
  ----------------------------------------------------------------------
  | Atom    10: H
  |   Hirshfeld charge        :      0.04205477
  |   Free atom volume        :      9.95071624
  |   Hirshfeld volume        :      6.31610416
  |   Hirshfeld dipole vector :     -0.03780311       0.01664293      -0.07862891
  |   Hirshfeld dipole moment :      0.08881761
  |   Hirshfeld second moments:      0.09811894      -0.00134124      -0.00670219
  |                                 -0.00134124       0.10366763       0.00561093
  |                                 -0.00670219       0.00561093       0.09153795
  ----------------------------------------------------------------------
  | Atom    11: H
  |   Hirshfeld charge        :      0.03676973
  |   Free atom volume        :      9.95071624
  |   Hirshfeld volume        :      6.22087113
  |   Hirshfeld dipole vector :      0.01454159       0.07560728       0.03600764
  |   Hirshfeld dipole moment :      0.08499688
  |   Hirshfeld second moments:      0.10530383      -0.00563596      -0.00067604
  |                                 -0.00563596       0.08700103      -0.00664893
  |                                 -0.00067604      -0.00664893       0.10331654
  ----------------------------------------------------------------------
  | Atom    12: H
  |   Hirshfeld charge        :      0.04876728
  |   Free atom volume        :      9.95071624
  |   Hirshfeld volume        :      6.12484690
  |   Hirshfeld dipole vector :      0.08139080      -0.03194348      -0.02462241
  |   Hirshfeld dipole moment :      0.09083563
  |   Hirshfeld second moments:      0.09165875       0.00393070       0.00666281
  |                                  0.00393070       0.10326853      -0.00166208
  |                                  0.00666281      -0.00166208       0.11148836
  ----------------------------------------------------------------------


  Total energy components:
  | Sum of eigenvalues            :         -89.15047716 Ha       -2425.90791245 eV
  | XC energy correction          :         -24.36682894 Ha        -663.05515129 eV
  | XC potential correction       :          31.30206530 Ha         851.77253456 eV
  | Free-atom electrostatic energy:         -68.18845362 Ha       -1855.50222983 eV
  | Hartree energy correction     :          -6.54867224 Ha        -178.19843828 eV
  | vdW energy correction         :          -0.00249454 Ha          -0.06787996 eV
  | Entropy correction            :           0.00000000 Ha           0.00000000 eV
  | ---------------------------
  | Total energy                  :        -156.95486120 Ha       -4270.95907726 eV
  | Total energy, T -> 0          :        -156.95486120 Ha       -4270.95907726 eV  <-- do not rely on this value for anything but (periodic) metals
  | Electronic free energy        :        -156.95486120 Ha       -4270.95907726 eV

  Derived energy quantities:
  | Kinetic energy                :         156.22067362 Ha        4250.98081685 eV
  | Electrostatic energy          :        -288.80621134 Ha       -7858.81686285 eV
  | Energy correction for multipole
  | error in Hartree potential    :           0.03133815 Ha           0.85275451 eV
  | Sum of eigenvalues per atom                           :        -202.15899270 eV
  | Total energy (T->0) per atom                          :        -355.91325644 eV  <-- do not rely on this value for anything but (periodic) metals
  | Electronic free energy per atom                       :        -355.91325644 eV

  atomic forces [eV/Ang]:
  -----------------------
  atom #    1
   Hellmann-Feynman              :  0.236854E-01 -0.651462E+00  0.402497E+00
   Ionic forces                  :  0.000000E+00  0.000000E+00  0.000000E+00
   Multipole                     : -0.264324E+00 -0.228435E+00 -0.229381E+00
   Pulay + GGA                   :  0.299856E+00  0.278910E+00  0.412067E+00
   Van der Waals                 :  0.728035E-02  0.573874E-02 -0.265845E-02
   ----------------------------------------------------------------
   Total forces(   1)            :  0.664978E-01 -0.595248E+00  0.582524E+00
  atom #    2
   Hellmann-Feynman              :  0.109443E+01  0.642547E+00  0.470998E-01
   Ionic forces                  :  0.000000E+00  0.000000E+00  0.000000E+00
   Multipole                     : -0.208304E+00  0.903644E-01  0.162784E+00
   Pulay + GGA                   : -0.863963E+00 -0.662304E+00 -0.135160E+00
   Van der Waals                 : -0.616213E-03 -0.853847E-03  0.443719E-02
   ----------------------------------------------------------------
   Total forces(   2)            :  0.215429E-01  0.697541E-01  0.791608E-01
  atom #    3
   Hellmann-Feynman              : -0.109442E+01 -0.642547E+00  0.471001E-01
   Ionic forces                  :  0.000000E+00  0.000000E+00  0.000000E+00
   Multipole                     :  0.208304E+00 -0.903644E-01  0.162784E+00
   Pulay + GGA                   :  0.863962E+00  0.662304E+00 -0.135160E+00
   Van der Waals                 :  0.616219E-03  0.853852E-03  0.443720E-02
   ----------------------------------------------------------------
   Total forces(   3)            : -0.215423E-01 -0.697541E-01  0.791608E-01
  atom #    4
   Hellmann-Feynman              : -0.236856E-01  0.651462E+00  0.402497E+00
   Ionic forces                  :  0.000000E+00  0.000000E+00  0.000000E+00
   Multipole                     :  0.264324E+00  0.228435E+00 -0.229381E+00
   Pulay + GGA                   : -0.299856E+00 -0.278910E+00  0.412067E+00
   Van der Waals                 : -0.728035E-02 -0.573874E-02 -0.265845E-02
   ----------------------------------------------------------------
   Total forces(   4)            : -0.664980E-01  0.595248E+00  0.582524E+00
  atom #    5
   Hellmann-Feynman              : -0.432291E-01 -0.282458E-01  0.313586E+00
   Ionic forces                  :  0.000000E+00  0.000000E+00  0.000000E+00
   Multipole                     :  0.165901E-02 -0.472511E-01 -0.120739E+00
   Pulay + GGA                   : -0.218088E-01  0.398857E-01  0.960553E-01
   Van der Waals                 :  0.303480E-02  0.454603E-02  0.114342E-03
   ----------------------------------------------------------------
   Total forces(   5)            : -0.603441E-01 -0.310651E-01  0.289017E+00
  atom #    6
   Hellmann-Feynman              :  0.260326E+00 -0.341912E-01  0.325521E+00
   Ionic forces                  :  0.000000E+00  0.000000E+00  0.000000E+00
   Multipole                     : -0.109644E+00 -0.131080E-01 -0.718631E-01
   Pulay + GGA                   :  0.892930E-01 -0.281063E-01  0.216276E-01
   Van der Waals                 :  0.344024E-02 -0.267280E-03 -0.155918E-02
   ----------------------------------------------------------------
   Total forces(   6)            :  0.243415E+00 -0.756727E-01  0.273726E+00
  atom #    7
   Hellmann-Feynman              : -0.204744E+00 -0.546939E+00  0.938776E-01
   Ionic forces                  :  0.000000E+00  0.000000E+00  0.000000E+00
   Multipole                     : -0.407733E-01 -0.111661E+00  0.295136E-01
   Pulay + GGA                   :  0.459141E-01  0.108056E+00 -0.264382E-01
   Van der Waals                 :  0.317288E-02  0.285272E-02  0.114566E-02
   ----------------------------------------------------------------
   Total forces(   7)            : -0.196430E+00 -0.547692E+00  0.980987E-01
  atom #    8
   Hellmann-Feynman              : -0.136415E+00  0.133449E+01 -0.142558E+01
   Ionic forces                  :  0.000000E+00  0.000000E+00  0.000000E+00
   Multipole                     : -0.448531E-01  0.795713E-01  0.138492E+00
   Pulay + GGA                   :  0.737721E-01 -0.815558E-01 -0.327149E-01
   Van der Waals                 :  0.706379E-02 -0.385725E-03 -0.147956E-02
   ----------------------------------------------------------------
   Total forces(   8)            : -0.100432E+00  0.133212E+01 -0.132128E+01
  atom #    9
   Hellmann-Feynman              :  0.136415E+00 -0.133449E+01 -0.142558E+01
   Ionic forces                  :  0.000000E+00  0.000000E+00  0.000000E+00
   Multipole                     :  0.448531E-01 -0.795713E-01  0.138492E+00
   Pulay + GGA                   : -0.737720E-01  0.815558E-01 -0.327149E-01
   Van der Waals                 : -0.706379E-02  0.385722E-03 -0.147956E-02
   ----------------------------------------------------------------
   Total forces(   9)            :  0.100432E+00 -0.133212E+01 -0.132128E+01
  atom #   10
   Hellmann-Feynman              :  0.432290E-01  0.282459E-01  0.313586E+00
   Ionic forces                  :  0.000000E+00  0.000000E+00  0.000000E+00
   Multipole                     : -0.165901E-02  0.472511E-01 -0.120739E+00
   Pulay + GGA                   :  0.218088E-01 -0.398857E-01  0.960553E-01
   Van der Waals                 : -0.303480E-02 -0.454603E-02  0.114342E-03
   ----------------------------------------------------------------
   Total forces(  10)            :  0.603441E-01  0.310653E-01  0.289017E+00
  atom #   11
   Hellmann-Feynman              :  0.204744E+00  0.546939E+00  0.938776E-01
   Ionic forces                  :  0.000000E+00  0.000000E+00  0.000000E+00
   Multipole                     :  0.407733E-01  0.111661E+00  0.295136E-01
   Pulay + GGA                   : -0.459142E-01 -0.108056E+00 -0.264382E-01
   Van der Waals                 : -0.317288E-02 -0.285273E-02  0.114566E-02
   ----------------------------------------------------------------
   Total forces(  11)            :  0.196431E+00  0.547692E+00  0.980987E-01
  atom #   12
   Hellmann-Feynman              : -0.260326E+00  0.341912E-01  0.325521E+00
   Ionic forces                  :  0.000000E+00  0.000000E+00  0.000000E+00
   Multipole                     :  0.109644E+00  0.131079E-01 -0.718631E-01
   Pulay + GGA                   : -0.892930E-01  0.281063E-01  0.216277E-01
   Van der Waals                 : -0.344024E-02  0.267279E-03 -0.155918E-02
   ----------------------------------------------------------------
   Total forces(  12)            : -0.243416E+00  0.756726E-01  0.273726E+00

  Timings for VdW correction (Tkatchenko-Scheffler 2009 or later):
  | CPU time:        0.040 s, Wall clock time:        0.041 s.
  Removing unitary transformations (pure translations, rotations) from forces on atoms.
  Atomic forces before filtering:
  | Net force on center of mass :  -0.375262E-07 -0.398812E-07  0.249719E-02 eV/A
  | Net torque on center of mass:   0.502857E-07 -0.166330E-07 -0.136828E-02 eV
  Atomic forces after filtering:
  | Net force on center of mass :  -0.446015E-16 -0.234158E-15  0.000000E+00 eV/A
  | Net torque on center of mass:   0.342231E-15 -0.944085E-16 -0.731666E-15 eV

  Energy and forces in a compact form:
  | Total energy uncorrected      :         -0.427095907725561E+04 eV
  | Total energy corrected        :         -0.427095907725561E+04 eV  <-- do not rely on this value for anything but (periodic) metals
  | Electronic free energy        :         -0.427095907725561E+04 eV
  Total atomic forces (unitary forces cleaned) [eV/Ang]:
  |   1          0.665316470855677E-01         -0.595293970995712E+00          0.582316241393394E+00
  |   2          0.215447942100315E-01          0.697320510512562E-01          0.789526692446157E-01
  |   3         -0.215442598248208E-01         -0.697320474237460E-01          0.789526669906988E-01
  |   4         -0.665317825869115E-01          0.595293944297070E+00          0.582316390447061E+00
  |   5         -0.603046172689339E-01         -0.310943911733904E-01          0.288808634253253E+00
  |   6          0.243435669099299E+00         -0.757501862680489E-01          0.273518144329586E+00
  |   7         -0.196365731224050E+00         -0.547743853643938E+00          0.978905830729354E-01
  |   8         -0.100453254207689E+00          0.133207927718332E+01         -0.132148639708008E+01
  |   9          0.100453108662711E+00         -0.133207919679334E+01         -0.132148626400494E+01
  |  10          0.603045419956392E-01          0.310945082534152E-01          0.288808535166029E+00
  |  11          0.196365921819088E+00          0.547743728004754E+00          0.978905696563320E-01
  |  12         -0.243436037759931E+00          0.757501375083603E-01          0.273518226531123E+00

  ------------------------------------ 
  Start decomposition of the XC Energy 
  ------------------------------------ 
  X and C from original XC functional choice 
  Hartree-Fock Energy :          0.000000000 Ha              0.000000000 eV
  X Energy            :        -23.353714885 Ha           -635.486915232 eV
  C Energy            :         -1.013114054 Ha            -27.568236060 eV
  Total XC Energy     :        -24.366828938 Ha           -663.055151291 eV
  ------------------------------------ 
  LDA X and C from self-consistent density 
  X Energy LDA        :        -21.105283132 Ha           -574.303974286 eV
  C Energy LDA        :         -1.971773319 Ha            -53.654681940 eV
  ------------------------------------ 
  End decomposition of the XC Energy 
  ------------------------------------ 

------------------------------------------------------------

------------------------------------------------------------------------------
  Final output of selected total energy values:

  The following output summarizes some interesting total energy values
  at the end of a run (AFTER all relaxation, molecular dynamics, etc.).

  | Total energy of the DFT / Hartree-Fock s.c.f. calculation      :          -4270.959077256 eV
  | Final zero-broadening corrected energy (caution - metals only) :          -4270.959077256 eV
  | For reference only, the value of 1 Hartree used in FHI-aims is :             27.211384500 eV

  Before relying on these values, please be sure to understand exactly which
  total energy value is referred to by a given number. Different objects may
  all carry the same name 'total energy'. Definitions:

  Total energy of the DFT / Hartree-Fock s.c.f. calculation:
  | Note that this energy does not include ANY quantities calculated after the
  | s.c.f. cycle, in particular not ANY RPA, MP2, etc. many-body perturbation terms.

  Final zero-broadening corrected energy:
  | For metallic systems only, a broadening of the occupation numbers at the Fermi
  | level can be extrapolated back to zero broadening by an electron-gas inspired
  | formula. For all systems that are not real metals, this value can be
  | meaningless and should be avoided.

------------------------------------------------------------------------------
  Methods described in the following list of references were used in this FHI-aims run.
  If you publish the results, please make sure to cite these reference if they apply.
  FHI-aims is an academic code, and for our developers (often, Ph.D. students
  and postdocs), scientific credit in the community is essential.
  Thank you for helping us!

  For any use of FHI-aims, please cite:

    Volker Blum, Ralf Gehrke, Felix Hanke, Paula Havu, Ville Havu,
    Xinguo Ren, Karsten Reuter, and Matthias Scheffler
    'Ab initio molecular simulations with numeric atom-centered orbitals'
    Computer Physics Communications 180, 2175-2196 (2009)
    http://dx.doi.org/10.1016/j.cpc.2009.06.022


  For the real-space grid partitioning and parallelization used in this calculation, please cite:

    Ville Havu, Volker Blum, Paula Havu, and Matthias Scheffler,
    'Efficient O(N) integration for all-electron electronic structure calculation'
    'using numerically tabulated basis functions'
    Journal of Computational Physics 228, 8367-8379 (2009).
    http://dx.doi.org/10.1016/j.jcp.2009.08.008

  Of course, there are many other important community references, e.g., those cited in the
  above references. Our list is limited to references that describe implementations in the
  FHI-aims code. The reason is purely practical (length of this list) - please credit others as well.

------------------------------------------------------------
          Leaving FHI-aims.
          Date     :  20180215, Time     :  214350.928

          Computational steps:
          | Number of self-consistency cycles          :           14
          | Number of SCF (re)initializations          :            1

          Detailed time accounting                     :  max(cpu_time)    wall_clock(cpu1)
          | Total time                                 :        9.568 s           9.638 s
          | Preparation time                           :        0.124 s           0.128 s
          | Boundary condition initalization           :        0.000 s           0.000 s
          | Grid partitioning                          :        0.068 s           0.065 s
          | Preloading free-atom quantities on grid    :        0.004 s           0.004 s
          | Free-atom superposition energy             :        0.036 s           0.035 s
          | Total time for integrations                :        3.100 s           3.084 s
          | Total time for solution of K.-S. equations :        0.064 s           0.053 s
          | Total time for density & force components  :        2.828 s           2.810 s
          | Total time for mixing                      :        0.164 s           0.147 s
          | Total time for Hartree multipole update    :        0.176 s           0.152 s
          | Total time for Hartree multipole sum       :        2.988 s           2.978 s
          | Total time for total energy evaluation     :        0.012 s           0.015 s
          | Total time for vdW correction              :        0.040 s           0.041 s

          Partial memory accounting:
          | Residual value for overall tracked memory usage across tasks :           0.000 MB (should be 0.000 MB)
          | Peak values for overall tracked memory usage (after allocating hessian_basis_wave):
          |   Minimum:        1.751 MB (on task 1)
          |   Maximum:        1.751 MB (on task 1)
          |   Average:        1.751 MB
          | Largest tracked array allocation (hessian_basis_wave):
          |   Minimum:        0.857 MB (on task 1)
          |   Maximum:        0.857 MB (on task 1)
          |   Average:        0.857 MB
          Note:  These values currently only include a subset of arrays which are explicitly tracked.
          The "true" memory usage will be greater.

          Have a nice day.
------------------------------------------------------------
