  MPI-parallelism will be employed.
------------------------------------------------------------
          Invoking FHI-aims ...

          When using FHI-aims, please cite the following reference:

          Volker Blum, Ralf Gehrke, Felix Hanke, Paula Havu,
          Ville Havu, Xinguo Ren, Karsten Reuter, and Matthias Scheffler,
          'Ab Initio Molecular Simulations with Numeric Atom-Centered Orbitals',
          Computer Physics Communications 180, 2175-2196 (2009)

          For any questions about FHI-aims, please visit the aimsclub website
          with its forums and wiki. Contributions to both the forums and the
          wiki are warmly encouraged - they are for you, and everyone is welcome there.

------------------------------------------------------------



  Date     :  20190817, Time     :  153255.406
  Time zero on CPU 1             :   0.271630000000000E-01  s.
  Internal wall clock time zero  :           335287975.406  s.

  FHI-aims created a unique identifier for this run for later identification
  aims_uuid : 5AE6585F-1751-45EA-AC5A-0D373CCB112E

  Build configuration of the current instance of FHI-aims
  -------------------------------------------------------
  FHI-aims version      : 190813
  Commit number         : 3da7baeb3
  CMake host system     : Linux-4.4.180-94.97-default
  CMake version         : 3.5.2
  Fortran compiler      : /mpcdf/soft/SLE_12_SP3/packages/x86_64/intel_parallel_studio/2018.4/compilers_and_libraries_2018.5.274/linux/mpi/bin64/mpiifort (Intel) version 18.0.5.20180823
  Fortran compiler flags: -O3 -ip -fp-model precise
  C compiler            : /mpcdf/soft/SLE_12_SP3/packages/skylake/intel/18.0.5/bin/icc (Intel) version 18.0.5.20180823
  C compiler flags      : -O3 -ip -fp-model precise
  Architecture          :
  Using MPI
  Using Scalapack
  Using C files
  Using SPGlib
  Using i-PI
  Linking against: /mpcdf/soft/SLE_12_SP3/packages/x86_64/anaconda/3.5.1.0/lib/libmkl_intel_lp64.so
                   /mpcdf/soft/SLE_12_SP3/packages/x86_64/anaconda/3.5.1.0/lib/libmkl_sequential.so
                   /mpcdf/soft/SLE_12_SP3/packages/x86_64/anaconda/3.5.1.0/lib/libmkl_core.so
                   /mpcdf/soft/SLE_12_SP3/packages/x86_64/anaconda/3.5.1.0/lib/libmkl_blacs_intelmpi_lp64.so
                   /mpcdf/soft/SLE_12_SP3/packages/x86_64/anaconda/3.5.1.0/lib/libmkl_scalapack_lp64.so

  Using        8 parallel tasks.
  Task        0 on host co1631 reporting.
  Task        1 on host co1631 reporting.
  Task        2 on host co1631 reporting.
  Task        3 on host co1631 reporting.
  Task        4 on host co1631 reporting.
  Task        5 on host co1631 reporting.
  Task        6 on host co1631 reporting.
  Task        7 on host co1631 reporting.

  Performing system and environment tests:
  | Environment variable OMP_NUM_THREADS correctly set to 1.
  | Maximum stacksize for task 0: unlimited
  | Maximum stacksize for task 1: unlimited
  | Maximum stacksize for task 2: unlimited
  | Maximum stacksize for task 3: unlimited
  | Maximum stacksize for task 4: unlimited
  | Maximum stacksize for task 5: unlimited
  | Maximum stacksize for task 6: unlimited
  | Maximum stacksize for task 7: unlimited
  | Current stacksize for task 0: unlimited
  | Current stacksize for task 1: unlimited
  | Current stacksize for task 2: unlimited
  | Current stacksize for task 3: unlimited
  | Current stacksize for task 4: unlimited
  | Current stacksize for task 5: unlimited
  | Current stacksize for task 6: unlimited
  | Current stacksize for task 7: unlimited
  | Checking for scalapack...
  | Testing pdtran()...
  | All pdtran() tests passed.

  Obtaining array dimensions for all initial allocations:
  
  -----------------------------------------------------------------------
  Parsing control.in (first pass over file, find array dimensions only).
  The contents of control.in will be repeated verbatim below
  unless switched off by setting 'verbatim_writeout .false.' .
  in the first line of control.in .
  -----------------------------------------------------------------------
  
  #########################################################################################
  #
  #  William Huhn : Input file for FHI-aims spin-orbit coupling testing
  #
  #########################################################################################
  
  #  Run settings
  #   restart  wf
  #   override_illconditioning .true.
  #   basis_threshold 1E-6
  
  #  Periodic boundary conditions settings
      k_grid 1 1 1
  
  #  Physical model settings
     xc                 pbe
  #   hse_unit           Angstrom
     charge           0.
     spin             none
  #   symmetry_reduced_k_grid .false.
  
  #  Relativistic settings
     relativistic       atomic_zora scalar
     include_spin_orbit
     empty_states 19
  
  #  Periodic G0W0
  #   qpe_calc gw
  
  #  Hybrid Functionals Settings
  #   RI_method LVL_fast
  #   use_logsbt .true.
  #   default_max_l_prodbas 7
  
  #  Relaxation settings
  #   relax_geometry bfgs 1.e-2
  #   relax_unit_cell full
  #   sc_accuracy_forces  5E-4
  #   external_pressure 6.24E-7
  
  #  SCF convergence settings
  #   occupation_type  gaussian 0.2
  #   mixer            pulay
  #   n_max_pulay             10
  #   charge_mix_param        0.2
  #   ini_linear_mixing     10
  #   ini_linear_mix_param  0.05
  #   preconditioner kerker 1.5
  #   precondition_max_l    0
  #   preconditioner turnoff charge 1e-4
  #   preconditioner turnoff sum_ev 1e-1
     sc_accuracy_rho  1E-5
     sc_accuracy_etot 1E-6
     sc_accuracy_eev  1E-5
     sc_iter_limit    100
  #
  #  Output options (examples):
  #
  #  Density of states. The DOS is here evaluated
  #  with an effective 144x144x144 k-point grid.
  #  (12 for each k-space direction in s.c.f., and then denser
  #  by another factor of 12 during post-processing). Check whether the
  #  the DOS is smooth, however - fcc Al may need significantly
  #  more k-points (van Hove singularities in DOS).
  #
  #  The dense dos_kgrid_factors below will take a noticeable amount
  #  of time, but they do lead to a smooth DOS.
  #
  #   output dos -20 30 1000 0.1
  #   dos_kgrid_factors  12 12 12
  #
  #  Strictly for regression test purposes:
      output dos -20 30 1000 0.1
      dos_kgrid_factors  3 3 3
  #
  #  angular momentum channel resolved density of states
  #
  #   output species_proj_dos -20 30 1000 0.1
  #
  #  High-symmetry k-points for FCC band structure output, if requested.
  #
  #   exx_band_structure_version  1
  #
  #  Taken from Setyawan and Curtarolo, 2010
     output band   0.000  0.000  0.000   0.500  0.000  0.500   21      G      X
     output band   0.500  0.000  0.500   0.500  0.250  0.750   21      X      W
     output band   0.500  0.250  0.750   0.375  0.375  0.750   21      W      K
     output band   0.375  0.375  0.750   0.000  0.000  0.000   21      K      G
  #   output band   0.000  0.000  0.000   0.500  0.500  0.500   21      G      L
  #   output band   0.500  0.500  0.500   0.625  0.250  0.625   21      L      U
  #   output band   0.625  0.250  0.625   0.500  0.250  0.750   21      U      W
  #   output band   0.500  0.250  0.750   0.500  0.500  0.500   21      W      L
  #   output band   0.500  0.500  0.500   0.375  0.375  0.750   21      L      K
  #   output band   0.625  0.250  0.625   0.500  0.000  0.500   21      U      X
  
  ################################################################################
  #
  #  FHI-aims code project
  #  VB, Fritz-Haber Institut, 2009
  #
  #  Suggested "light" defaults for Ga atom (to be pasted into control.in file)
  #  Be sure to double-check any results obtained with these settings for post-processing,
  #  e.g., with the "tight" defaults and larger basis sets.
  #
  ################################################################################
    species        Ga
  #     global species definitions
      nucleus             31
      mass                69.723
  #
      l_hartree           4
  #
      cut_pot             3.5          1.5  1.0
      basis_dep_cutoff    1e-4
  #
      radial_base         54 5.0
      radial_multiplier   1
      angular_grids       specified
        division   0.5103   50
        division   0.8880  110
        division   1.2009  194
        division   1.5000  302
  #      division   1.7093  434
  #      division   1.8791  590
  #      division   1.9525  770
  #      division   2.3801 1202
  #      outer_grid  1202
        outer_grid  302
  ################################################################################
  #
  #  Definition of "minimal" basis
  #
  ################################################################################
  #     valence basis states
      valence      4  s   2.
      valence      4  p   1.
      valence      3  d  10.
  #     ion occupancy
      ion_occ      4  s   1.
      ion_occ      3  p   6.
      ion_occ      3  d  10.
  ################################################################################
  #
  #  Suggested additional basis functions. For production calculations,
  #  uncomment them one after another (the most important basis functions are
  #  listed first).
  #
  #  Constructed for dimers: 1.85 A, 2.10 A, 2.45 A, 3.00 A, 4.00 A
  #
  ################################################################################
  #  "First tier" - improvements: -222.33 meV to -26.19 meV
       hydro 2 p 1.2
       hydro 3 d 3.8
  #     hydro 4 f 6.8
       ionic 4 s auto
  #  "Second tier" - improvements: -11.68 meV to -1.61 meV
  #     hydro 5 g 10
  #     hydro 4 p 3.6
  #     hydro 4 f 13.2
  #     hydro 6 h 14.4
  #     hydro 4 d 5.2
  #     hydro 1 s 0.45
  #  "Third tier" - improvements: -0.64 meV to -0.15 meV
  #     hydro 3 p 3.4
  #     hydro 3 s 2.2
  #     hydro 5 g 14
  #     hydro 4 f 6.2
  #     hydro 5 d 7.2
  #  "Fourth tier"  -improvements: -0.12 meV and below
  #     hydro 3 s 3.8
  #     hydro 5 f 27.2
  #     hydro 6 h 16
  #     hydro 5 g 9.2
  #     hydro 4 d 8.6
  #     hydro 2 p 3.6
  
  ################################################################################
  #
  #  FHI-aims code project
  #  VB, Fritz-Haber Institut, 2009
  #
  #  Suggested "light" defaults for As atom (to be pasted into control.in file)
  #  Be sure to double-check any results obtained with these settings for post-processing,
  #  e.g., with the "tight" defaults and larger basis sets.
  #
  ################################################################################
    species        As
  #
      nucleus             33
      mass                74.92160
  #
      l_hartree           4
  #
      cut_pot             3.5          1.5  1.0
      basis_dep_cutoff    1e-4
  #
      radial_base         55 5.0
      radial_multiplier   1
      angular_grids       specified
        division   0.4982   50
        division   0.9113  110
        division   1.1593  194
        division   1.4959  302
  #      division   1.6697  434
  #      division   1.8319  590
  #      division   1.9752  770
  #      division   2.0131  974
  #      division   2.4015 1202
  #      outer_grid  1202
        outer_grid  302
  ################################################################################
  #
  #  Definition of "minimal" basis
  #
  ################################################################################
  #     valence basis states
      valence      4  s   2.
      valence      4  p   3.
      valence      3  d  10.
  #     ion occupancy
      ion_occ      4  s   1.
      ion_occ      4  p   2.
      ion_occ      3  d  10.
  ################################################################################
  #
  #  Suggested additional basis functions. For production calculations,
  #  uncomment them one after another (the most important basis functions are
  #  listed first).
  #
  #  Constructed for dimers: 1.75 A, 2.10 A, 2.50 A, 3.00 A, 4.00 A
  #
  ################################################################################
  #  "First tier" - improvements: -385.12 meV to -54.94 meV
       hydro 3 d 4
       hydro 2 p 1.5
  #     hydro 4 f 6.8
       ionic 4 s auto
  #  "Second tier" - improvements: -22.14 meV to -3.21 meV
  #     hydro 5 g 10
  #     hydro 6 h 13.6
  #     hydro 4 p 4.3
  #     hydro 4 f 15.6
  #     hydro 4 d 5.4
  #     hydro 1 s 0.6
  #  "Third tier" - improvements: -0.57 meV to -0.13 meV
  #     hydro 5 g 16.4
  #     hydro 4 f 7.4
  #     hydro 5 d 7.4
  #     ionic 4 p auto
  #     hydro 3 s 2.6
  #  "Fourth tier" - improvements: -0.30 meV and below
  #     hydro 3 p 3
  #     hydro 6 h 18.4
  #     hydro 5 d 11.2
  #     hydro 5 f 15.2
  #     hydro 5 g 13.6
  #     hydro 5 s 6.2
  
  -----------------------------------------------------------------------
  Completed first pass over input file control.in .
  -----------------------------------------------------------------------
  
  
  -----------------------------------------------------------------------
  Parsing geometry.in (first pass over file, find array dimensions only).
  The contents of geometry.in will be repeated verbatim below
  unless switched off by setting 'verbatim_writeout .false.' .
  in the first line of geometry.in .
  -----------------------------------------------------------------------
  
  # Straumanis M.E., and Kim C.D., Phase Extent of Gallium Arsenide Determined by the Lattice Constant and Density Method, Acta Crysta
  lattice_vector           0   2.8266   2.8266
  lattice_vector      2.8266        0   2.8266
  lattice_vector      2.8266   2.8266        0
  
  atom_frac        0        0        0 Ga
  atom_frac     0.25     0.25     0.25 As
  
  -----------------------------------------------------------------------
  Completed first pass over input file geometry.in .
  -----------------------------------------------------------------------
  

  Basic array size parameters:
  | Number of species                 :        2
  | Number of atoms                   :        2
  | Number of lattice vectors         :        3
  | Max. basis fn. angular momentum   :        2
  | Max. atomic/ionic basis occupied n:        4
  | Max. number of basis fn. types    :        3
  | Max. radial fns per species/type  :        8
  | Max. logarithmic grid size        :     1417
  | Max. radial integration grid size :       55
  | Max. angular integration grid size:      302
  | Max. angular grid division number :        8
  | Radial grid for Hartree potential :     1417
  | Number of spin channels           :        1

------------------------------------------------------------
          Reading file control.in.
------------------------------------------------------------
  Found k-point grid:         1         1         1
  XC: Using PBE gradient-corrected functionals.
  Charge =   0.000000E+00: Neutral system requested explicitly.
  Spin treatment: No spin polarisation.
  Scalar relativistic treatment of kinetic energy: on-site free-atom approximation to ZORA.
  Calculating non-self-consistent second-variational spin-orbit coupling after scf-cycle
  Number of empty states per atom:       19
  Convergence accuracy of self-consistent charge density:  0.1000E-04
  Convergence accuracy of total energy:  0.1000E-05
  Convergence accuracy of sum of eigenvalues:  0.1000E-04
  Maximum number of s.-c. iterations  :   100
  Calculating density of states with
  | energy interval :-20.000000 30.000000
  | points & broadening :  1000  0.100000
  Found k-point grid multipliers for perturbative DOS :         3         3         3

  Plot band    1
  | begin  0.000000  0.000000  0.000000
  | end    0.500000  0.000000  0.500000
  | number of points:   21

  Plot band    2
  | begin  0.500000  0.000000  0.500000
  | end    0.500000  0.250000  0.750000
  | number of points:   21

  Plot band    3
  | begin  0.500000  0.250000  0.750000
  | end    0.375000  0.375000  0.750000
  | number of points:   21

  Plot band    4
  | begin  0.375000  0.375000  0.750000
  | end    0.000000  0.000000  0.000000
  | number of points:   21
 
  Reading configuration options for species Ga                  .
  | Found nuclear charge :  31.0000
  | Found atomic mass :    69.7230000000000      amu
  | Found l_max for Hartree potential  :   4
  | Found cutoff potl. onset [A], width [A], scale factor :    3.50000    1.50000    1.00000
  | Threshold for basis-dependent cutoff potential is   0.100000E-03
  | Found data for basic radial integration grid :    54 points, outermost radius =    5.000 A
  | Found multiplier for basic radial grid :   1
  | Found angular grid specification: user-specified.
  | Specified grid contains     5 separate shells.
  | Check grid settings after all constraints further below.
  | Found free-atom valence shell :  4 s   2.000
  | Found free-atom valence shell :  4 p   1.000
  | Found free-atom valence shell :  3 d  10.000
  | Found free-ion valence shell :  4 s   1.000
  | Found free-ion valence shell :  3 p   6.000
  | Found free-ion valence shell :  3 d  10.000
  | Found hydrogenic basis function :  2 p   1.200
  | Found hydrogenic basis function :  3 d   3.800
  | Found ionic basis function :  4 s , default cutoff radius.
  Species Ga                  : Missing cutoff potential type.
  Defaulting to exp(1/x)/(1-x)^2 type cutoff potential.
  Species Ga: No 'logarithmic' tag. Using default grid for free atom:
  | Default logarithmic grid data [bohr] : 0.1000E-03 0.1000E+03 0.1012E+01
  | Will include ionic basis functions of  2.0-fold positive Ga                   ion.
  Species Ga: On-site basis accuracy parameter (for Gram-Schmidt orthonormalisation) not specified.
  Using default value basis_acc =  0.1000000E-03.
  Species Ga                  : Using default innermost maximum threshold i_radial=  2 for radial functions.
  Species Ga                  : Default cutoff onset for free atom density etc. : 0.35000000E+01 AA.
  Species Ga                  : Basic radial grid will be enhanced according to radial_multiplier =   1, to contain    54 grid points.
 
  Reading configuration options for species As                  .
  | Found nuclear charge :  33.0000
  | Found atomic mass :    74.9216000000000      amu
  | Found l_max for Hartree potential  :   4
  | Found cutoff potl. onset [A], width [A], scale factor :    3.50000    1.50000    1.00000
  | Threshold for basis-dependent cutoff potential is   0.100000E-03
  | Found data for basic radial integration grid :    55 points, outermost radius =    5.000 A
  | Found multiplier for basic radial grid :   1
  | Found angular grid specification: user-specified.
  | Specified grid contains     5 separate shells.
  | Check grid settings after all constraints further below.
  | Found free-atom valence shell :  4 s   2.000
  | Found free-atom valence shell :  4 p   3.000
  | Found free-atom valence shell :  3 d  10.000
  | Found free-ion valence shell :  4 s   1.000
  | Found free-ion valence shell :  4 p   2.000
  | Found free-ion valence shell :  3 d  10.000
  | Found hydrogenic basis function :  3 d   4.000
  | Found hydrogenic basis function :  2 p   1.500
  | Found ionic basis function :  4 s , default cutoff radius.
  Species As                  : Missing cutoff potential type.
  Defaulting to exp(1/x)/(1-x)^2 type cutoff potential.
  Species As: No 'logarithmic' tag. Using default grid for free atom:
  | Default logarithmic grid data [bohr] : 0.1000E-03 0.1000E+03 0.1012E+01
  | Will include ionic basis functions of  2.0-fold positive As                   ion.
  Species As: On-site basis accuracy parameter (for Gram-Schmidt orthonormalisation) not specified.
  Using default value basis_acc =  0.1000000E-03.
  Species As                  : Using default innermost maximum threshold i_radial=  2 for radial functions.
  Species As                  : Default cutoff onset for free atom density etc. : 0.35000000E+01 AA.
  Species As                  : Basic radial grid will be enhanced according to radial_multiplier =   1, to contain    55 grid points.
 
  Finished reading input file 'control.in'. Consistency checks are next.
 
  MPI_IN_PLACE appears to work with this MPI implementation.
  | Keeping use_mpi_in_place .true. (see manual).
  Target number of points in a grid batch is not set. Defaulting to  100
  Method for grid partitioning is not set. Defaulting to parallel hash+maxmin partitioning.
  Batch size limit is not set. Defaulting to    200
  By default, will store active basis functions for each batch.
  If in need of memory, prune_basis_once .false. can be used to disable this option.
  communication_type for Hartree potential was not specified.
  Defaulting to calc_hartree .
  Defaulting to Pulay charge density mixer.
  Pulay mixer: Number of relevant iterations not set.
  Defaulting to    8 iterations.
  Pulay mixer: Number of initial linear mixing iterations not set.
  Defaulting to    0 iterations.
  Work space size for distributed Hartree potential not set.
  Defaulting to   0.200000E+03 MB.
  Mixing parameter for charge density mixing has not been set.
  Using default: charge_mix_param =     0.0500.
  The mixing parameter will be adjusted in iteration number     2 of the first full s.c.f. cycle only.
  Algorithm-dependent basis array size parameters:
  | n_max_pulay                         :        8
  Presetting      1001 iterations before the initial mixing cycle
  is restarted anyway using the sc_init_iter criterion / keyword.
  Presetting a factor      1.000 between actual scf density residual
  and density convergence criterion sc_accuracy_rho below which sc_init_iter
  takes no effect.
  Calculation of forces was not defined in control.in. No forces will be calculated.
  Geometry relaxation not requested: no relaxation will be performed.
  No accuracy limit for integral partition fn. given. Defaulting to  0.1000E-14.
  No threshold value for u(r) in integrations given. Defaulting to  0.1000E-05.
  No occupation type (smearing scheme) given. Defaulting to Gaussian broadening, width =  0.1000E-01 eV.
  The width will be adjusted in iteration number     2 of the first full s.c.f. cycle only.
  S.C.F. convergence parameters will be adjusted in iteration number     2 of the first full s.c.f. cycle only.
  No accuracy for occupation numbers given. Defaulting to  0.1000E-12.
  No threshold value for occupation numbers given. Defaulting to  0.0000E+00.
  No accuracy for fermi level given. Defaulting to  0.1000E-19.
  Maximum # of iterations to find E_F not set. Defaulting to  200.
  Preferred method for the eigenvalue solver ('KS_method') not specified in 'control.in'.
  Calling BLACS routine to test compilation state
  Since ScaLAPACK support is enabled, defaulting to ELPA (via ELSI).
  Will not use alltoall communication since running on < 1024 CPUs.
  Threshold for basis singularities not set.
  Default threshold for basis singularities:  0.1000E-04
  partition_type (choice of integration weights) for integrals was not specified.
  | Using a version of the partition function of Stratmann and coworkers ('stratmann_sparse').
  | At each grid point, the set of atoms used to build the partition table is smoothly restricted to
  | only those atoms whose free-atom density would be non-zero at that grid point.
  Partitioning for Hartree potential was not defined. Using partition_type for integrals.
  | Adjusted default value of keyword multip_moments_threshold to:       0.10000000E-11
  | This value may affect high angular momentum components of the Hartree potential in periodic systems.
  Angular momentum expansion for Kerker preconditioner not set explicitly.
  | Using default value of   0
  No explicit requirement for turning off preconditioner.
  | By default, it will be turned off when the charge convergence reaches
  | sc_accuracy_rho  =   0.100000E-04
  | sc_accuracy_eev  =   0.100000E-04
  | sc_accuracy_etot =   0.100000E-05
  No special mixing parameter while Kerker preconditioner is on.
  Using default: charge_mix_param =     0.0500.
  No q(lm)/r^(l+1) cutoff set for long-range Hartree potential.
  | Using default value of  0.100000E-09 .
  | Verify using the multipole_threshold keyword.
  Defaulting to new monopole extrapolation.
  Density update method: automatic selection selected.
  Using density matrix based charge density update.
  Using density matrix based charge density update.
  Using packed matrix style: index .
  Defaulting to use time-reversal symmetry for k-point grid.
  Charge integration errors on the 3D integration grid will be compensated
  by explicit normalization and distribution of residual charges.
  Use the "compensate_multipole_errors" flag to change this behaviour.
------------------------------------------------------------


------------------------------------------------------------
          Reading geometry description geometry.in.
------------------------------------------------------------
  Input structure read successfully.
  The structure contains        2 atoms,  and a total of         64.000 electrons.

  Input geometry:
  | Unit cell:
  |        0.00000000        2.82660000        2.82660000
  |        2.82660000        0.00000000        2.82660000
  |        2.82660000        2.82660000        0.00000000
  | Atomic structure:
  |       Atom                x [A]            y [A]            z [A]
  |    1: Species Ga            0.00000000        0.00000000        0.00000000
  |    2: Species As            1.41330000        1.41330000        1.41330000

  Lattice parameters for 3D lattice (in Angstroms) :     3.997416    3.997416    3.997416
  Angle(s) between unit vectors (in degrees)       :    60.000000   60.000000   60.000000

  | The smallest distance between any two atoms is         2.44790741 AA.
  | The first atom of this pair is atom number                      1 .
  | The second atom of this pair is atom number                     2 .
  | Wigner-Seitz cell of the first atom image           1     0     0 .
  | (The Wigner-Seitz cell of the second atom is 0 0 0  by definition.)

  Symmetry information by spglib:
  | Precision set to  0.1E-04
  | Number of Operations  : 24
  | Space group           : 216
  | International         : F-43m
  | Schoenflies           : Td^2

  Quantities derived from the lattice vectors:
  | Reciprocal lattice vector 1: -1.111439  1.111439  1.111439
  | Reciprocal lattice vector 2:  1.111439 -1.111439  1.111439
  | Reciprocal lattice vector 3:  1.111439  1.111439 -1.111439
  | Unit cell volume                               :   0.451672E+02  A^3

  Range separation radius for Ewald summation (hartree_convergence_parameter):      4.06367653 bohr.

  Fractional coordinates:
                         L1                L2                L3
       atom_frac         0.00000000        0.00000000        0.00000000  Ga
       atom_frac         0.25000000        0.25000000        0.25000000  As

  Structure-dependent array size parameters: 
  | Maximum number of distinct radial functions  :       22
  | Maximum number of basis functions            :       54
  | Number of Kohn-Sham states (occupied + empty):       51
------------------------------------------------------------

------------------------------------------------------------
          Preparing all fixed parts of the calculation.
------------------------------------------------------------
  Determining machine precision:
    2.225073858507201E-308
  Setting up grids for atomic and cluster calculations.

  Creating wave function, potential, and density for free atoms.

  Species: Ga

  List of occupied orbitals and eigenvalues:
    n    l              occ      energy [Ha]    energy [eV]
    1    0           2.0000      -380.489758    -10353.6531
    2    0           2.0000       -46.460587     -1264.2569
    3    0           2.0000        -5.427793      -147.6978
    4    0           2.0000        -0.316119        -8.6020
    2    1           6.0000       -40.433986     -1100.2647
    3    1           6.0000        -3.616323       -98.4052
    4    1           1.0000        -0.078625        -2.1395
    3    2          10.0000        -0.688008       -18.7217


  Species: As

  List of occupied orbitals and eigenvalues:
    n    l              occ      energy [Ha]    energy [eV]
    1    0           2.0000      -436.643669    -11881.6788
    2    0           2.0000       -54.749877     -1489.8200
    3    0           2.0000        -6.987029      -190.1267
    4    0           2.0000        -0.526374       -14.3234
    2    1           6.0000       -47.996715     -1306.0571
    3    1           6.0000        -4.904622      -133.4616
    4    1           3.0000        -0.184722        -5.0265
    3    2          10.0000        -1.486454       -40.4485

  Creating fixed part of basis set: Ionic, confined, hydrogenic.
 
  Ga                   ion:

  List of free ionic orbitals and eigenvalues:
    n    l      energy [Ha]    energy [eV]
    1    0      -381.269939    -10374.8829
    2    0       -47.220675     -1284.9399
    3    0        -6.191291      -168.4736
    4    0        -0.957864       -26.0648
    2    1       -41.195167     -1120.9775
    3    1        -4.379935      -119.1841
    3    2        -1.446562       -39.3629


  List of ionic basis orbitals and eigenvalues:
    n    l      energy [Ha]    energy [eV]    outer radius [A]
    4    0        -0.957837       -26.0641       4.370145

 
  Ga                   hydrogenic:
 
  List of hydrogenic basis orbitals: 
    n    l      effective z      eigenvalue [eV]  inner max. [A]     outer max. [A]     outer radius [A]   
    2    1         1.200000        -4.5108           1.643450           1.643450           4.589156
    3    2         3.800000       -21.8139           1.255894           1.255894           4.589156
 
 
  As                   ion:

  List of free ionic orbitals and eigenvalues:
    n    l      energy [Ha]    energy [eV]
    1    0      -437.521171    -11905.5568
    2    0       -55.607242     -1513.1500
    3    0        -7.840974      -213.3638
    4    0        -1.261898       -34.3380
    2    1       -48.854908     -1329.4097
    3    1        -5.758049      -156.6845
    4    1        -0.860696       -23.4207
    3    2        -2.335871       -63.5623


  List of ionic basis orbitals and eigenvalues:
    n    l      energy [Ha]    energy [eV]    outer radius [A]
    4    0        -1.261879       -34.3375       3.909368

 
  As                   hydrogenic:
 
  List of hydrogenic basis orbitals: 
    n    l      effective z      eigenvalue [eV]  inner max. [A]     outer max. [A]     outer radius [A]   
    3    2         4.000000       -24.1792           1.194291           1.194291           4.582756
    2    1         1.500000        -7.5079           1.382996           1.382996           4.582756
 

  Adding cutoff potential to free-atom effective potential.
  Creating atomic-like basis functions for current effective potential.

  Species Ga                  :

  List of atomic basis orbitals and eigenvalues:
    n    l      energy [Ha]    energy [eV]    outer radius [A]
    1    0      -380.489758    -10353.6531       0.339519
    2    0       -46.460587     -1264.2569       0.983486
    3    0        -5.427793      -147.6978       2.780058
    4    0        -0.316119        -8.6020       4.533395
    2    1       -40.433986     -1100.2647       1.020225
    3    1        -3.616323       -98.4052       3.258922
    4    1        -0.078625        -2.1395       4.589156
    3    2        -0.688008       -18.7217       4.370145


  Species As                  :

  List of atomic basis orbitals and eigenvalues:
    n    l      energy [Ha]    energy [eV]    outer radius [A]
    1    0      -436.643669    -11881.6788       0.318942
    2    0       -54.749877     -1489.8200       0.912655
    3    0        -6.987029      -190.1267       2.486936
    4    0        -0.526374       -14.3234       4.527073
    2    1       -47.996715     -1306.0571       0.946748
    3    1        -4.904622      -133.4616       2.844895
    4    1        -0.184722        -5.0265       4.582756
    3    2        -1.486454       -40.4485       4.155782

  Assembling full basis from fixed parts.
  | Species Ga :   atomic orbital   1 s accepted.
  | Species Ga :   atomic orbital   2 s accepted.
  | Species Ga :   atomic orbital   3 s accepted.
  | Species Ga :    ionic orbital   4 s accepted.
  | Species Ga :   atomic orbital   4 s accepted.
  | Species Ga :   atomic orbital   2 p accepted.
  | Species Ga :   atomic orbital   3 p accepted.
  | Species Ga :   atomic orbital   4 p accepted.
  | Species Ga :    hydro orbital   2 p accepted.
  | Species Ga :   atomic orbital   3 d accepted.
  | Species Ga :    hydro orbital   3 d accepted.
  | Species As :   atomic orbital   1 s accepted.
  | Species As :   atomic orbital   2 s accepted.
  | Species As :   atomic orbital   3 s accepted.
  | Species As :    ionic orbital   4 s accepted.
  | Species As :   atomic orbital   4 s accepted.
  | Species As :   atomic orbital   2 p accepted.
  | Species As :   atomic orbital   3 p accepted.
  | Species As :   atomic orbital   4 p accepted.
  | Species As :    hydro orbital   2 p accepted.
  | Species As :   atomic orbital   3 d accepted.
  | Species As :    hydro orbital   3 d accepted.
 
  Basis size parameters after reduction:
  | Total number of radial functions:       22
  | Total number of basis functions :       54
 
  Per-task memory consumption for arrays in subroutine allocate_ext:
  |           7.983024MB.
  Testing on-site integration grid accuracy.
  |  Species  Function  <phi|h_atom|phi> (log., in eV)  <phi|h_atom|phi> (rad., in eV)
           1        1             -10353.6531083681             -10353.6426064854
           1        2              -1264.2568837927              -1264.2567574771
           1        3               -147.6977694494               -147.6977664834
           1        4                 -8.2157067915                 -8.2156220906
           1        5                  5.3691127490                  5.2869956537 ***
           1        6              -1100.2647267038              -1100.2647251320
           1        7                -98.4051589771                -98.4051585337
           1        8                 -2.1632502565                 -2.1936630377 ***
           1        9                  7.2154195323                  7.0101703907 ***
           1       10                -18.7216618083                -18.7216626724
           1       11                  9.0922871809                  9.0865043987
           2       12             -11881.6787704378             -11881.6655406426
           2       13              -1489.8199667950              -1489.8198039400
           2       14               -190.1267359814               -190.1267316790
           2       15                -14.0698329783                -14.0699220836
           2       16                  6.0555617388                  6.0761392932
           2       17              -1306.0570746169              -1306.0570739251
           2       18               -133.4615612685               -133.4615604617
           2       19                 -5.0319582430                 -5.0383328047
           2       20                  6.3445176426                  6.2354835442 ***
           2       21                -40.4484584789                -40.4484582371
           2       22                  7.3305608433                  7.3275160176
 * Note: Onsite integrals marked "***" above are less accurate than
 * onsite_accuracy_threshold =    0.03000 eV. Usually, this is harmless.
 * However, one integral did have a negative value. This integral could be important.
 * When in doubt, tighten the "radial" and/or "radial_multiplier" flags to check.

  Preparing densities etc. for the partition functions (integrals / Hartree potential).

  Preparations completed.
  max(cpu_time)          :      0.403 s.
  Wall clock time (cpu1) :      0.404 s.
------------------------------------------------------------

------------------------------------------------------------
          Begin self-consistency loop: Initialization.

          Date     :  20190817, Time     :  153255.870
------------------------------------------------------------

  Initializing index lists of integration centers etc. from given atomic structure:
  Mapping all atomic coordinates to central unit cell.

  Initializing the k-points
          Using symmetry for reducing the k-points
  | k-points reduced from:        1 to        1
  | Number of k-points                             :         1
  The eigenvectors in the calculations are COMPLEX.
  | Number of basis functions in the Hamiltonian integrals :      1435
  | Number of basis functions in a single unit cell        :        54
  | Number of centers in hartree potential         :       708
  | Number of centers in hartree multipole         :       318
  | Number of centers in electron density summation:       190
  | Number of centers in basis integrals           :       198
  | Number of centers in integrals                 :       101
  | Number of centers in hamiltonian               :       190
  | Consuming          1 KiB for k_phase.
  | Number of super-cells (origin) [n_cells]                     :        2197
  | Number of super-cells (after PM_index) [n_cells]             :         112
  | Number of super-cells in hamiltonian [n_cells_in_hamiltonian]:         112
  | Size of matrix packed + index [n_hamiltonian_matrix_size] :       71243
  | Estimated reciprocal-space cutoff momentum G_max:         2.29238017 bohr^-1 .
  | Reciprocal lattice points for long-range Hartree potential:      58
  Using simple linear distribution as default method for k-point parallelism.
  * Using 8 tasks for Scalapack Eigenvalue solver.
  Detailed listing of tasks and assigned k-points:
   Task     0 k-point     1 on co1631
   Task     1 k-point     1 on co1631
   Task     2 k-point     1 on co1631
   Task     3 k-point     1 on co1631
   Task     4 k-point     1 on co1631
   Task     5 k-point     1 on co1631
   Task     6 k-point     1 on co1631
   Task     7 k-point     1 on co1631
  K-point:     1 Tasks:     8 split into      4 X      2 BLACS grid
  Calculating block size based on n_basis =           54  max_nprow =            4  max_npcol =            2
  ScaLAPACK block size set to:            8
  Allocating        0.007 MB for ovlp_complex
  Allocating        0.007 MB for ham_complex
  Allocating        0.007 MB for eigenvec_complex
  Required Scalapack workspace - INTEGER:            1  REAL:             1  COMPLEX:            1
  Partitioning the integration grid into batches with parallel hashing+maxmin method.
  | Number of batches:      192
  | Maximal batch size:      91
  | Minimal batch size:      67
  | Average batch size:      75.823
  | Standard deviation of batch sizes:       8.939

  Integration load balanced across     8 MPI tasks.
  Work distribution over tasks is as follows:
  Task     0 has       1866 integration points.
  Task     1 has       1827 integration points.
  Task     2 has       1811 integration points.
  Task     3 has       1826 integration points.
  Task     4 has       1811 integration points.
  Task     5 has       1821 integration points.
  Task     6 has       1821 integration points.
  Task     7 has       1775 integration points.
  Initializing partition tables, free-atom densities, potentials, etc. across the integration grid (initialize_grid_storage).
  | initialize_grid_storage: Actual outermost partition radius vs. multipole_radius_free
  | (-- VB: in principle, multipole_radius_free should be larger, hence this output)
  | Species        1: Confinement radius =              4.999999999999999 AA, multipole_radius_free =              5.060654947817020 AA.
  | Species        1: outer_partition_radius set to              5.060654947817020 AA .
  | Species        2: Confinement radius =              4.999999999999999 AA, multipole_radius_free =              5.053598046169615 AA.
  | Species        2: outer_partition_radius set to              5.053598046169615 AA .
  | The sparse table of interatomic distances needs        212.76 kbyte instead of       313.63 kbyte of memory.
  | Net number of integration points:    14558
  | of which are non-zero points    :    13086
  | Numerical average free-atom electrostatic potential    :    -14.55266589 eV
  Renormalizing the initial density to the exact electron count on the 3D integration grid.
  | Initial density: Formal number of electrons (from input files) :      64.0000000000
  | Integrated number of electrons on 3D grid     :      64.0036139595
  | Charge integration error                      :       0.0036139595
  | Normalization factor for density and gradient :       0.9999435351
  Renormalizing the free-atom superposition density to the exact electron count on the 3D integration grid.
  | Formal number of electrons (from input files) :      64.0000000000
  | Integrated number of electrons on 3D grid     :      64.0036139595
  | Charge integration error                      :       0.0036139595
  | Normalization factor for density and gradient :       0.9999435351
  Obtaining max. number of non-zero basis functions in each batch (get_n_compute_maxes).
  | Maximal number of non-zero basis functions:      522 in task     0
  | Maximal number of non-zero basis functions:      524 in task     1
  | Maximal number of non-zero basis functions:      535 in task     2
  | Maximal number of non-zero basis functions:      547 in task     3
  | Maximal number of non-zero basis functions:      525 in task     4
  | Maximal number of non-zero basis functions:      530 in task     5
  | Maximal number of non-zero basis functions:      526 in task     6
  | Maximal number of non-zero basis functions:      531 in task     7
  Allocating        0.042 MB for KS_eigenvector_complex
  Integrating Hamiltonian matrix: batch-based integration.
  Time summed over all CPUs for integration: real work        0.641 s, elapsed        0.654 s
  Integrating overlap matrix.
  Time summed over all CPUs for integration: real work        0.427 s, elapsed        0.436 s
  Decreasing sparse matrix size:
   Tolerance:  9.999999824516700E-014
   Hamiltonian matrix
  | Array has    58704 nonzero elements out of    71243 elements
  | Sparsity factor is 0.176
   Overlap matrix
  | Array has    53704 nonzero elements out of    71243 elements
  | Sparsity factor is 0.246
  New size of hamiltonian matrix:       59281
  Not deallocating overlap matrix.

  Updating Kohn-Sham eigenvalues and eigenvectors using ELSI and the ELPA eigensolver.
  Singularity check in k-point 1 (analysis for other k-points may follow below):
  Overlap matrix is not singular
  | Lowest and highest eigenvalues :  0.4609E-02,  0.5703E+01
  Finished singularity check of overlap matrix
  | Time :     0.001 s
  Starting ELPA eigensolver
  Finished Cholesky decomposition
  | Time :     0.007 s
  Finished transformation to standard eigenproblem
  | Time :     0.001 s
  Finished solving standard eigenproblem
  | Time :     0.001 s
  Finished back-transformation of eigenvectors
  | Time :     0.000 s

  Obtaining occupation numbers and chemical potential using ELSI.
  | Chemical potential (Fermi level):    -5.38516742 eV
  Writing Kohn-Sham eigenvalues.

  State    Occupation    Eigenvalue [Ha]    Eigenvalue [eV]
      1       2.00000        -436.660668       -11882.14133
      2       2.00000        -380.502400       -10353.99711
      3       2.00000         -54.767556        -1490.30101
      4       2.00000         -48.014339        -1306.53664
      5       2.00000         -48.014339        -1306.53664
      6       2.00000         -48.014339        -1306.53664
      7       2.00000         -46.473838        -1264.61748
      8       2.00000         -40.447174        -1100.62361
      9       2.00000         -40.447174        -1100.62361
     10       2.00000         -40.447174        -1100.62361
     11       2.00000          -7.007541         -190.68488
     12       2.00000          -5.444277         -148.14632
     13       2.00000          -4.925465         -134.02873
     14       2.00000          -4.925465         -134.02873
     15       2.00000          -4.925465         -134.02873
     16       2.00000          -3.633328          -98.86789
     17       2.00000          -3.633328          -98.86789
     18       2.00000          -3.633328          -98.86789
     19       2.00000          -1.509027          -41.06271
     20       2.00000          -1.509027          -41.06271
     21       2.00000          -1.509027          -41.06271
     22       2.00000          -1.508484          -41.04793
     23       2.00000          -1.508484          -41.04793
     24       2.00000          -0.712237          -19.38097
     25       2.00000          -0.712237          -19.38097
     26       2.00000          -0.712237          -19.38097
     27       2.00000          -0.708517          -19.27972
     28       2.00000          -0.708517          -19.27972
     29       2.00000          -0.673206          -18.31886
     30       2.00000          -0.206469           -5.61829
     31       2.00000          -0.206469           -5.61829
     32       2.00000          -0.206469           -5.61829
     33       0.00000          -0.179736           -4.89086
     34       0.00000          -0.054779           -1.49061
     35       0.00000          -0.054779           -1.49061
     36       0.00000          -0.054779           -1.49061
     37       0.00000           0.141594            3.85297
     38       0.00000           0.192275            5.23207
     39       0.00000           0.192275            5.23207
     40       0.00000           0.379223           10.31917
     41       0.00000           0.379223           10.31917
     42       0.00000           0.379223           10.31917
     43       0.00000           0.819236           22.29254
     44       0.00000           0.819236           22.29254
     45       0.00000           0.819236           22.29254
     46       0.00000           0.930298           25.31470
     47       0.00000           0.952046           25.90650
     48       0.00000           0.952046           25.90650
     49       0.00000           1.030969           28.05410
     50       0.00000           1.030969           28.05410
     51       0.00000           1.030969           28.05410

  Highest occupied state (VBM) at     -5.61829391 eV (relative to internal zero)
  | Occupation number:      2.00000000
  | K-point:       1 at    0.000000    0.000000    0.000000 (in units of recip. lattice)

  Lowest unoccupied state (CBM) at    -4.89085646 eV (relative to internal zero)
  | Occupation number:      0.00000000
  | K-point:       1 at    0.000000    0.000000    0.000000 (in units of recip. lattice)

  ESTIMATED overall HOMO-LUMO gap:      0.72743745 eV between HOMO at k-point 1 and LUMO at k-point 1
  The gap value is above 0.2 eV. Unless you are using a very sparse k-point grid,
  this system is most likely an insulator or a semiconductor.
  Calculating total energy contributions from superposition of free atom densities.

  Total energy components:
  | Sum of eigenvalues            :       -2468.61520728 Ha      -67174.43758779 eV
  | XC energy correction          :        -159.87600840 Ha       -4350.44753692 eV
  | XC potential correction       :         207.94028158 Ha        5658.34295506 eV
  | Free-atom electrostatic energy:       -1807.86525006 Ha      -49194.51644364 eV
  | Hartree energy correction     :           0.00000000 Ha           0.00000000 eV
  | Entropy correction            :          -0.00000000 Ha          -0.00000000 eV
  | ---------------------------
  | Total energy                  :       -4228.41618416 Ha     -115061.05861330 eV
  | Total energy, T -> 0          :       -4228.41618416 Ha     -115061.05861330 eV  <-- do not rely on this value for anything but (periodic) metals
  | Electronic free energy        :       -4228.41618416 Ha     -115061.05861330 eV

  Derived energy quantities:
  | Kinetic energy                :        4307.10975554 Ha      117202.41964175 eV
  | Electrostatic energy          :       -8375.64993130 Ha     -227913.03071813 eV
  | Energy correction for multipole
  | error in Hartree potential    :           0.00000000 Ha           0.00000000 eV
  | Sum of eigenvalues per atom                           :      -33587.21879390 eV
  | Total energy (T->0) per atom                          :      -57530.52930665 eV  <-- do not rely on this value for anything but (periodic) metals
  | Electronic free energy per atom                       :      -57530.52930665 eV
  Initialize hartree_potential_storage
  Max. number of atoms included in rho_multipole:            2

  End scf initialization - timings             :  max(cpu_time)    wall_clock(cpu1)
  | Time for scf. initialization               :        0.286 s           0.287 s
  | Boundary condition initialization          :        0.051 s           0.051 s
  | Integration                                :        0.141 s           0.141 s
  | Solution of K.-S. eqns.                    :        0.014 s           0.013 s
  | Grid partitioning                          :        0.023 s           0.023 s
  | Preloading free-atom quantities on grid    :        0.003 s           0.003 s
  | Free-atom superposition energy             :        0.007 s           0.008 s
  | Total energy evaluation                    :        0.000 s           0.000 s

  Partial memory accounting:
  | Current value for overall tracked memory usage:
  |   Minimum:        1.182 MB (on task 7)
  |   Maximum:        1.195 MB (on task 0)
  |   Average:        1.190 MB
  | Peak value for overall tracked memory usage:
  |   Minimum:        4.602 MB (on task 0 after allocating wave)
  |   Maximum:        4.854 MB (on task 3 after allocating wave)
  |   Average:        4.678 MB
  | Largest tracked array allocation so far:
  |   Minimum:        2.079 MB (hamiltonian_shell on task 0)
  |   Maximum:        2.283 MB (hamiltonian_shell on task 3)
  |   Average:        2.144 MB
  Note:  These values currently only include a subset of arrays which are explicitly tracked.
  The "true" memory usage will be greater.
------------------------------------------------------------

------------------------------------------------------------
          Begin self-consistency iteration #    1

  Date     :  20190817, Time     :  153256.157
------------------------------------------------------------
  Evaluating new KS density using the density matrix
  Evaluating density matrix
  Time summed over all CPUs for getting density from density matrix: real work        1.026 s, elapsed        1.058 s
  Integration grid: deviation in total charge (<rho> - N_e) =   2.842171E-14
  Pulay mixing of updated and previous charge densities.
  Renormalizing the density to the exact electron count on the 3D integration grid.
  | Formal number of electrons (from input files) :      64.0000000000
  | Integrated number of electrons on 3D grid     :      63.9997439321
  | Charge integration error                      :      -0.0002560679
  | Normalization factor for density and gradient :       1.0000040011

  Evaluating partitioned Hartree potential by multipole expansion.
  | Original multipole sum: apparent total charge =   0.458317E-13
  | Sum of charges compensated after spline to logarithmic grids =  -0.317645E-06
  | Analytical far-field extrapolation by fixed multipoles:
  | Hartree multipole sum: apparent total charge =   0.458625E-13
  Summing up the Hartree potential.
  Time summed over all CPUs for potential: real work        0.729 s, elapsed        0.772 s
  | RMS charge density error from multipole expansion :   0.802456E-03
  | Average real-space part of the electrostatic potential :      0.03751364 eV

  Integrating Hamiltonian matrix: batch-based integration.
  Time summed over all CPUs for integration: real work        0.663 s, elapsed        0.696 s

  Updating Kohn-Sham eigenvalues and eigenvectors using ELSI and the ELPA eigensolver.
  Starting ELPA eigensolver
  Finished transformation to standard eigenproblem
  | Time :     0.000 s
  Finished solving standard eigenproblem
  | Time :     0.001 s
  Finished back-transformation of eigenvectors
  | Time :     0.000 s

  Obtaining occupation numbers and chemical potential using ELSI.
  | Chemical potential (Fermi level):    -5.36994388 eV
  Writing Kohn-Sham eigenvalues.

  State    Occupation    Eigenvalue [Ha]    Eigenvalue [eV]
      1       2.00000        -436.643577       -11881.67625
      2       2.00000        -380.508271       -10354.15686
      3       2.00000         -54.752562        -1489.89301
      4       2.00000         -47.999062        -1306.12093
      5       2.00000         -47.999062        -1306.12093
      6       2.00000         -47.999062        -1306.12093
      7       2.00000         -46.479155        -1264.76216
      8       2.00000         -40.452549        -1100.76985
      9       2.00000         -40.452549        -1100.76985
     10       2.00000         -40.452549        -1100.76985
     11       2.00000          -6.994954         -190.34239
     12       2.00000          -5.449171         -148.27948
     13       2.00000          -4.912928         -133.68758
     14       2.00000          -4.912928         -133.68758
     15       2.00000          -4.912928         -133.68758
     16       2.00000          -3.638187          -99.00010
     17       2.00000          -3.638187          -99.00010
     18       2.00000          -3.638187          -99.00010
     19       2.00000          -1.496763          -40.72899
     20       2.00000          -1.496763          -40.72899
     21       2.00000          -1.496763          -40.72899
     22       2.00000          -1.496225          -40.71436
     23       2.00000          -1.496225          -40.71436
     24       2.00000          -0.716648          -19.50099
     25       2.00000          -0.716648          -19.50099
     26       2.00000          -0.716648          -19.50099
     27       2.00000          -0.713100          -19.40444
     28       2.00000          -0.713100          -19.40444
     29       2.00000          -0.669650          -18.22211
     30       2.00000          -0.202645           -5.51426
     31       2.00000          -0.202645           -5.51426
     32       2.00000          -0.202645           -5.51426
     33       0.00000          -0.177778           -4.83760
     34       0.00000          -0.054548           -1.48433
     35       0.00000          -0.054548           -1.48433
     36       0.00000          -0.054548           -1.48433
     37       0.00000           0.140679            3.82807
     38       0.00000           0.193745            5.27207
     39       0.00000           0.193745            5.27207
     40       0.00000           0.379617           10.32990
     41       0.00000           0.379617           10.32990
     42       0.00000           0.379617           10.32990
     43       0.00000           0.822864           22.39127
     44       0.00000           0.822864           22.39127
     45       0.00000           0.822864           22.39127
     46       0.00000           0.933358           25.39795
     47       0.00000           0.953684           25.95106
     48       0.00000           0.953684           25.95106
     49       0.00000           1.031482           28.06806
     50       0.00000           1.031482           28.06806
     51       0.00000           1.031482           28.06806

  Highest occupied state (VBM) at     -5.51425814 eV (relative to internal zero)
  | Occupation number:      2.00000000
  | K-point:       1 at    0.000000    0.000000    0.000000 (in units of recip. lattice)

  Lowest unoccupied state (CBM) at    -4.83759754 eV (relative to internal zero)
  | Occupation number:      0.00000000
  | K-point:       1 at    0.000000    0.000000    0.000000 (in units of recip. lattice)

  ESTIMATED overall HOMO-LUMO gap:      0.67666060 eV between HOMO at k-point 1 and LUMO at k-point 1
  The gap value is above 0.2 eV. Unless you are using a very sparse k-point grid,
  this system is most likely an insulator or a semiconductor.

  Total energy components:
  | Sum of eigenvalues            :       -2468.34467197 Ha      -67167.07594742 eV
  | XC energy correction          :        -159.88626010 Ha       -4350.72649998 eV
  | XC potential correction       :         207.95360519 Ha        5658.70550888 eV
  | Free-atom electrostatic energy:       -1807.86525006 Ha      -49194.51644364 eV
  | Hartree energy correction     :          -0.26338376 Ha          -7.16703670 eV
  | Entropy correction            :          -0.00000000 Ha          -0.00000000 eV
  | ---------------------------
  | Total energy                  :       -4228.40596071 Ha     -115060.78041886 eV
  | Total energy, T -> 0          :       -4228.40596071 Ha     -115060.78041886 eV  <-- do not rely on this value for anything but (periodic) metals
  | Electronic free energy        :       -4228.40596071 Ha     -115060.78041886 eV

  Derived energy quantities:
  | Kinetic energy                :        4307.22741261 Ha      117205.62125343 eV
  | Electrostatic energy          :       -8375.74711321 Ha     -227915.67517232 eV
  | Energy correction for multipole
  | error in Hartree potential    :           0.00136646 Ha           0.03718337 eV
  | Sum of eigenvalues per atom                           :      -33583.53797371 eV
  | Total energy (T->0) per atom                          :      -57530.39020943 eV  <-- do not rely on this value for anything but (periodic) metals
  | Electronic free energy per atom                       :      -57530.39020943 eV

  Self-consistency convergence accuracy:
  | Change of charge density      :  0.2731E+00
  | Change of sum of eigenvalues  :  0.7362E+01 eV
  | Change of total energy        :  0.2782E+00 eV

  End self-consistency iteration #     1       :  max(cpu_time)    wall_clock(cpu1)
  | Time for this iteration                    :        0.373 s           0.374 s
  | Charge density update                      :        0.134 s           0.135 s
  | Density mixing & preconditioning           :        0.046 s           0.046 s
  | Hartree multipole update                   :        0.001 s           0.001 s
  | Hartree multipole summation                :        0.098 s           0.098 s
  | Integration                                :        0.090 s           0.091 s
  | Solution of K.-S. eqns.                    :        0.002 s           0.002 s
  | Total energy evaluation                    :        0.000 s           0.000 s

  Partial memory accounting:
  | Current value for overall tracked memory usage:
  |   Minimum:        1.182 MB (on task 7)
  |   Maximum:        1.195 MB (on task 0)
  |   Average:        1.190 MB
  | Peak value for overall tracked memory usage:
  |   Minimum:        5.449 MB (on task 0 after allocating gradient_basis_wave)
  |   Maximum:        5.752 MB (on task 3 after allocating gradient_basis_wave)
  |   Average:        5.541 MB
  | Largest tracked array allocation so far:
  |   Minimum:        2.079 MB (hamiltonian_shell on task 0)
  |   Maximum:        2.283 MB (hamiltonian_shell on task 3)
  |   Average:        2.144 MB
  Note:  These values currently only include a subset of arrays which are explicitly tracked.
  The "true" memory usage will be greater.
------------------------------------------------------------

------------------------------------------------------------
          Begin self-consistency iteration #    2

  Date     :  20190817, Time     :  153256.531
------------------------------------------------------------
  Evaluating new KS density using the density matrix
  Evaluating density matrix
  Time summed over all CPUs for getting density from density matrix: real work        1.023 s, elapsed        1.073 s
  Integration grid: deviation in total charge (<rho> - N_e) =   2.842171E-14
  Pulay mixing of updated and previous charge densities.
  Renormalizing the density to the exact electron count on the 3D integration grid.
  | Formal number of electrons (from input files) :      64.0000000000
  | Integrated number of electrons on 3D grid     :      63.9968078043
  | Charge integration error                      :      -0.0031921957
  | Normalization factor for density and gradient :       1.0000498805

  Evaluating partitioned Hartree potential by multipole expansion.
  | Original multipole sum: apparent total charge =   0.124760E-12
  | Sum of charges compensated after spline to logarithmic grids =  -0.417370E-05
  | Analytical far-field extrapolation by fixed multipoles:
  | Hartree multipole sum: apparent total charge =   0.120627E-12
  Summing up the Hartree potential.
  Time summed over all CPUs for potential: real work        0.857 s, elapsed        0.923 s
  | RMS charge density error from multipole expansion :   0.106059E-01
  | Average real-space part of the electrostatic potential :      0.48428596 eV

  Integrating Hamiltonian matrix: batch-based integration.
  Time summed over all CPUs for integration: real work        0.658 s, elapsed        0.717 s

  Updating Kohn-Sham eigenvalues and eigenvectors using ELSI and the ELPA eigensolver.
  Starting ELPA eigensolver
  Finished transformation to standard eigenproblem
  | Time :     0.000 s
  Finished solving standard eigenproblem
  | Time :     0.001 s
  Finished back-transformation of eigenvectors
  | Time :     0.000 s

  Obtaining occupation numbers and chemical potential using ELSI.
  | Chemical potential (Fermi level):    -4.16973085 eV
  Highest occupied state (VBM) at     -4.33121114 eV (relative to internal zero)
  | Occupation number:      2.00000000
  | K-point:       1 at    0.000000    0.000000    0.000000 (in units of recip. lattice)

  Lowest unoccupied state (CBM) at    -4.07513382 eV (relative to internal zero)
  | Occupation number:      0.00000000
  | K-point:       1 at    0.000000    0.000000    0.000000 (in units of recip. lattice)

  ESTIMATED overall HOMO-LUMO gap:      0.25607731 eV between HOMO at k-point 1 and LUMO at k-point 1
  The gap value is above 0.2 eV. Unless you are using a very sparse k-point grid,
  this system is most likely an insulator or a semiconductor.

  Checking to see if s.c.f. parameters should be adjusted.
  The system likely has a gap. Increased the default Pulay mixing parameter (charge_mix_param). Value:   0.200000 .
  Kept the default occupation width. Value:   0.010000 eV.

  Total energy components:
  | Sum of eigenvalues            :       -2465.17701039 Ha      -67080.87949015 eV
  | XC energy correction          :        -160.02929837 Ha       -4354.61876933 eV
  | XC potential correction       :         208.13700613 Ha        5663.69610238 eV
  | Free-atom electrostatic energy:       -1807.86525006 Ha      -49194.51644364 eV
  | Hartree energy correction     :          -3.41424804 Ha         -92.90641621 eV
  | Entropy correction            :          -0.00000000 Ha          -0.00000000 eV
  | ---------------------------
  | Total energy                  :       -4228.34880074 Ha     -115059.22501695 eV
  | Total energy, T -> 0          :       -4228.34880074 Ha     -115059.22501695 eV  <-- do not rely on this value for anything but (periodic) metals
  | Electronic free energy        :       -4228.34880074 Ha     -115059.22501695 eV

  Derived energy quantities:
  | Kinetic energy                :        4308.48442772 Ha      117239.82637488 eV
  | Electrostatic energy          :       -8376.80393008 Ha     -227944.43262251 eV
  | Energy correction for multipole
  | error in Hartree potential    :           0.01774046 Ha           0.48274243 eV
  | Sum of eigenvalues per atom                           :      -33540.43974508 eV
  | Total energy (T->0) per atom                          :      -57529.61250848 eV  <-- do not rely on this value for anything but (periodic) metals
  | Electronic free energy per atom                       :      -57529.61250848 eV

  Self-consistency convergence accuracy:
  | Change of charge density      :  0.2562E+00
  | Change of sum of eigenvalues  :  0.8620E+02 eV
  | Change of total energy        :  0.1555E+01 eV

  End self-consistency iteration #     2       :  max(cpu_time)    wall_clock(cpu1)
  | Time for this iteration                    :        0.395 s           0.395 s
  | Charge density update                      :        0.135 s           0.135 s
  | Density mixing & preconditioning           :        0.047 s           0.047 s
  | Hartree multipole update                   :        0.001 s           0.001 s
  | Hartree multipole summation                :        0.117 s           0.118 s
  | Integration                                :        0.091 s           0.091 s
  | Solution of K.-S. eqns.                    :        0.002 s           0.002 s
  | Total energy evaluation                    :        0.000 s           0.000 s

  Partial memory accounting:
  | Current value for overall tracked memory usage:
  |   Minimum:        1.183 MB (on task 7)
  |   Maximum:        1.196 MB (on task 0)
  |   Average:        1.191 MB
  | Peak value for overall tracked memory usage:
  |   Minimum:        5.449 MB (on task 0 after allocating gradient_basis_wave)
  |   Maximum:        5.752 MB (on task 3 after allocating gradient_basis_wave)
  |   Average:        5.541 MB
  | Largest tracked array allocation so far:
  |   Minimum:        2.079 MB (hamiltonian_shell on task 0)
  |   Maximum:        2.283 MB (hamiltonian_shell on task 3)
  |   Average:        2.144 MB
  Note:  These values currently only include a subset of arrays which are explicitly tracked.
  The "true" memory usage will be greater.
------------------------------------------------------------

------------------------------------------------------------
          Begin self-consistency iteration #    3

  Date     :  20190817, Time     :  153256.926
------------------------------------------------------------
  Evaluating new KS density using the density matrix
  Evaluating density matrix
  Time summed over all CPUs for getting density from density matrix: real work        1.023 s, elapsed        1.079 s
  Integration grid: deviation in total charge (<rho> - N_e) =   0.000000E+00
  Pulay mixing of updated and previous charge densities.
  Renormalizing the density to the exact electron count on the 3D integration grid.
  | Formal number of electrons (from input files) :      64.0000000000
  | Integrated number of electrons on 3D grid     :      63.9999683307
  | Charge integration error                      :      -0.0000316693
  | Normalization factor for density and gradient :       1.0000004948

  Evaluating partitioned Hartree potential by multipole expansion.
  | Original multipole sum: apparent total charge =   0.634622E-13
  | Sum of charges compensated after spline to logarithmic grids =  -0.369032E-05
  | Analytical far-field extrapolation by fixed multipoles:
  | Hartree multipole sum: apparent total charge =   0.630194E-13
  Summing up the Hartree potential.
  Time summed over all CPUs for potential: real work        0.858 s, elapsed        0.919 s
  | RMS charge density error from multipole expansion :   0.105487E-01
  | Average real-space part of the electrostatic potential :      0.45629592 eV

  Integrating Hamiltonian matrix: batch-based integration.
  Time summed over all CPUs for integration: real work        0.661 s, elapsed        0.691 s

  Updating Kohn-Sham eigenvalues and eigenvectors using ELSI and the ELPA eigensolver.
  Starting ELPA eigensolver
  Finished transformation to standard eigenproblem
  | Time :     0.001 s
  Finished solving standard eigenproblem
  | Time :     0.001 s
  Finished back-transformation of eigenvectors
  | Time :     0.000 s

  Obtaining occupation numbers and chemical potential using ELSI.
  | Chemical potential (Fermi level):    -4.30378557 eV
  Highest occupied state (VBM) at     -4.49788033 eV (relative to internal zero)
  | Occupation number:      2.00000000
  | K-point:       1 at    0.000000    0.000000    0.000000 (in units of recip. lattice)

  Lowest unoccupied state (CBM) at    -4.13459745 eV (relative to internal zero)
  | Occupation number:      0.00000000
  | K-point:       1 at    0.000000    0.000000    0.000000 (in units of recip. lattice)

  ESTIMATED overall HOMO-LUMO gap:      0.36328288 eV between HOMO at k-point 1 and LUMO at k-point 1
  The gap value is above 0.2 eV. Unless you are using a very sparse k-point grid,
  this system is most likely an insulator or a semiconductor.

  Total energy components:
  | Sum of eigenvalues            :       -2465.65003322 Ha      -67093.75109640 eV
  | XC energy correction          :        -160.00114258 Ha       -4353.85261109 eV
  | XC potential correction       :         208.10091979 Ha        5662.71414319 eV
  | Free-atom electrostatic energy:       -1807.86525006 Ha      -49194.51644364 eV
  | Hartree energy correction     :          -2.93587050 Ha         -79.88910109 eV
  | Entropy correction            :          -0.00000000 Ha          -0.00000000 eV
  | ---------------------------
  | Total energy                  :       -4228.35137657 Ha     -115059.29510904 eV
  | Total energy, T -> 0          :       -4228.35137657 Ha     -115059.29510904 eV  <-- do not rely on this value for anything but (periodic) metals
  | Electronic free energy        :       -4228.35137657 Ha     -115059.29510904 eV

  Derived energy quantities:
  | Kinetic energy                :        4308.03080153 Ha      117227.48257816 eV
  | Electrostatic energy          :       -8376.38103552 Ha     -227932.92507611 eV
  | Energy correction for multipole
  | error in Hartree potential    :           0.01791041 Ha           0.48736719 eV
  | Sum of eigenvalues per atom                           :      -33546.87554820 eV
  | Total energy (T->0) per atom                          :      -57529.64755452 eV  <-- do not rely on this value for anything but (periodic) metals
  | Electronic free energy per atom                       :      -57529.64755452 eV

  Self-consistency convergence accuracy:
  | Change of charge density      :  0.1173E+00
  | Change of sum of eigenvalues  : -0.1287E+02 eV
  | Change of total energy        : -0.7009E-01 eV

  End self-consistency iteration #     3       :  max(cpu_time)    wall_clock(cpu1)
  | Time for this iteration                    :        0.394 s           0.394 s
  | Charge density update                      :        0.136 s           0.136 s
  | Density mixing & preconditioning           :        0.049 s           0.049 s
  | Hartree multipole update                   :        0.001 s           0.001 s
  | Hartree multipole summation                :        0.117 s           0.117 s
  | Integration                                :        0.088 s           0.088 s
  | Solution of K.-S. eqns.                    :        0.003 s           0.003 s
  | Total energy evaluation                    :        0.000 s           0.000 s

  Partial memory accounting:
  | Current value for overall tracked memory usage:
  |   Minimum:        1.183 MB (on task 7)
  |   Maximum:        1.196 MB (on task 0)
  |   Average:        1.191 MB
  | Peak value for overall tracked memory usage:
  |   Minimum:        5.449 MB (on task 0 after allocating gradient_basis_wave)
  |   Maximum:        5.753 MB (on task 3 after allocating gradient_basis_wave)
  |   Average:        5.542 MB
  | Largest tracked array allocation so far:
  |   Minimum:        2.079 MB (hamiltonian_shell on task 0)
  |   Maximum:        2.283 MB (hamiltonian_shell on task 3)
  |   Average:        2.144 MB
  Note:  These values currently only include a subset of arrays which are explicitly tracked.
  The "true" memory usage will be greater.
------------------------------------------------------------

------------------------------------------------------------
          Begin self-consistency iteration #    4

  Date     :  20190817, Time     :  153257.321
------------------------------------------------------------
  Evaluating new KS density using the density matrix
  Evaluating density matrix
  Time summed over all CPUs for getting density from density matrix: real work        1.034 s, elapsed        1.082 s
  Integration grid: deviation in total charge (<rho> - N_e) =   2.842171E-14
  Pulay mixing of updated and previous charge densities.
  Renormalizing the density to the exact electron count on the 3D integration grid.
  | Formal number of electrons (from input files) :      64.0000000000
  | Integrated number of electrons on 3D grid     :      63.9977317093
  | Charge integration error                      :      -0.0022682907
  | Normalization factor for density and gradient :       1.0000354433

  Evaluating partitioned Hartree potential by multipole expansion.
  | Original multipole sum: apparent total charge =   0.132828E-12
  | Sum of charges compensated after spline to logarithmic grids =  -0.549331E-05
  | Analytical far-field extrapolation by fixed multipoles:
  | Hartree multipole sum: apparent total charge =   0.132729E-12
  Summing up the Hartree potential.
  Time summed over all CPUs for potential: real work        0.874 s, elapsed        0.889 s
  | RMS charge density error from multipole expansion :   0.171070E-01
  | Average real-space part of the electrostatic potential :      0.67487392 eV

  Integrating Hamiltonian matrix: batch-based integration.
  Time summed over all CPUs for integration: real work        0.652 s, elapsed        0.673 s

  Updating Kohn-Sham eigenvalues and eigenvectors using ELSI and the ELPA eigensolver.
  Starting ELPA eigensolver
  Finished transformation to standard eigenproblem
  | Time :     0.001 s
  Finished solving standard eigenproblem
  | Time :     0.001 s
  Finished back-transformation of eigenvectors
  | Time :     0.000 s

  Obtaining occupation numbers and chemical potential using ELSI.
  | Chemical potential (Fermi level):    -3.96632745 eV
  Highest occupied state (VBM) at     -4.04321426 eV (relative to internal zero)
  | Occupation number:      2.00000000
  | K-point:       1 at    0.000000    0.000000    0.000000 (in units of recip. lattice)

  Lowest unoccupied state (CBM) at    -3.69682368 eV (relative to internal zero)
  | Occupation number:      0.00000000
  | K-point:       1 at    0.000000    0.000000    0.000000 (in units of recip. lattice)

  ESTIMATED overall HOMO-LUMO gap:      0.34639058 eV between HOMO at k-point 1 and LUMO at k-point 1
  The gap value is above 0.2 eV. Unless you are using a very sparse k-point grid,
  this system is most likely an insulator or a semiconductor.

  Total energy components:
  | Sum of eigenvalues            :       -2464.64052732 Ha      -67066.28104329 eV
  | XC energy correction          :        -160.05661617 Ha       -4355.36212439 eV
  | XC potential correction       :         208.17038373 Ha        5664.60435321 eV
  | Free-atom electrostatic energy:       -1807.86525006 Ha      -49194.51644364 eV
  | Hartree energy correction     :          -3.95619284 Ha        -107.65348445 eV
  | Entropy correction            :          -0.00000000 Ha          -0.00000000 eV
  | ---------------------------
  | Total energy                  :       -4228.34820266 Ha     -115059.20874256 eV
  | Total energy, T -> 0          :       -4228.34820266 Ha     -115059.20874256 eV  <-- do not rely on this value for anything but (periodic) metals
  | Electronic free energy        :       -4228.34820266 Ha     -115059.20874256 eV

  Derived energy quantities:
  | Kinetic energy                :        4307.91365007 Ha      117224.29472495 eV
  | Electrostatic energy          :       -8376.20523657 Ha     -227928.14134312 eV
  | Energy correction for multipole
  | error in Hartree potential    :           0.02851621 Ha           0.77596548 eV
  | Sum of eigenvalues per atom                           :      -33533.14052165 eV
  | Total energy (T->0) per atom                          :      -57529.60437128 eV  <-- do not rely on this value for anything but (periodic) metals
  | Electronic free energy per atom                       :      -57529.60437128 eV

  Self-consistency convergence accuracy:
  | Change of charge density      :  0.9562E-01
  | Change of sum of eigenvalues  :  0.2747E+02 eV
  | Change of total energy        :  0.8637E-01 eV

  End self-consistency iteration #     4       :  max(cpu_time)    wall_clock(cpu1)
  | Time for this iteration                    :        0.384 s           0.383 s
  | Charge density update                      :        0.136 s           0.136 s
  | Density mixing & preconditioning           :        0.045 s           0.045 s
  | Hartree multipole update                   :        0.001 s           0.001 s
  | Hartree multipole summation                :        0.113 s           0.113 s
  | Integration                                :        0.086 s           0.086 s
  | Solution of K.-S. eqns.                    :        0.002 s           0.002 s
  | Total energy evaluation                    :        0.000 s           0.000 s

  Partial memory accounting:
  | Current value for overall tracked memory usage:
  |   Minimum:        1.183 MB (on task 7)
  |   Maximum:        1.196 MB (on task 0)
  |   Average:        1.191 MB
  | Peak value for overall tracked memory usage:
  |   Minimum:        5.449 MB (on task 0 after allocating gradient_basis_wave)
  |   Maximum:        5.753 MB (on task 3 after allocating gradient_basis_wave)
  |   Average:        5.542 MB
  | Largest tracked array allocation so far:
  |   Minimum:        2.079 MB (hamiltonian_shell on task 0)
  |   Maximum:        2.283 MB (hamiltonian_shell on task 3)
  |   Average:        2.144 MB
  Note:  These values currently only include a subset of arrays which are explicitly tracked.
  The "true" memory usage will be greater.
------------------------------------------------------------

------------------------------------------------------------
          Begin self-consistency iteration #    5

  Date     :  20190817, Time     :  153257.705
------------------------------------------------------------
  Evaluating new KS density using the density matrix
  Evaluating density matrix
  Time summed over all CPUs for getting density from density matrix: real work        1.009 s, elapsed        1.049 s
  Integration grid: deviation in total charge (<rho> - N_e) =   5.684342E-14
  Pulay mixing of updated and previous charge densities.
  Renormalizing the density to the exact electron count on the 3D integration grid.
  | Formal number of electrons (from input files) :      64.0000000000
  | Integrated number of electrons on 3D grid     :      63.9992012564
  | Charge integration error                      :      -0.0007987436
  | Normalization factor for density and gradient :       1.0000124805

  Evaluating partitioned Hartree potential by multipole expansion.
  | Original multipole sum: apparent total charge =   0.788112E-13
  | Sum of charges compensated after spline to logarithmic grids =  -0.601732E-05
  | Analytical far-field extrapolation by fixed multipoles:
  | Hartree multipole sum: apparent total charge =   0.788112E-13
  Summing up the Hartree potential.
  Time summed over all CPUs for potential: real work        0.866 s, elapsed        0.882 s
  | RMS charge density error from multipole expansion :   0.184062E-01
  | Average real-space part of the electrostatic potential :      0.66427378 eV

  Integrating Hamiltonian matrix: batch-based integration.
  Time summed over all CPUs for integration: real work        0.655 s, elapsed        0.678 s

  Updating Kohn-Sham eigenvalues and eigenvectors using ELSI and the ELPA eigensolver.
  Starting ELPA eigensolver
[...]
  |Lowest unoccupied state:      -2.71804834eV
  |Highest occupied state:        -6.57630911eV

  Spin-orbit-coupled "band gap" along reciprocal space direction number:    3
  |Lowest unoccupied state:      -2.71871390eV
  |Highest occupied state:        -6.57307767eV


  Treating all k-points in band plot segment #   4, one-by-one:


  Calculating k-point    1 in band plot segment #   4:
  Overlap matrix is not singular
  | Lowest and highest eigenvalues :  0.1325E-02,  0.4217E+01
  Finished singularity check of overlap matrix
  | Time :     0.001 s
  Starting ELPA eigensolver
  Finished Cholesky decomposition
  | Time :     0.000 s
  Finished transformation to standard eigenproblem
  | Time :     0.001 s
  Finished solving standard eigenproblem
  | Time :     0.001 s
  Finished back-transformation of eigenvectors
  | Time :     0.000 s

  Calculating k-point    2 in band plot segment #   4:
  Overlap matrix is not singular
  | Lowest and highest eigenvalues :  0.1393E-02,  0.4447E+01
  Finished singularity check of overlap matrix
  | Time :     0.001 s
  Starting ELPA eigensolver
  Finished Cholesky decomposition
  | Time :     0.000 s
  Finished transformation to standard eigenproblem
  | Time :     0.000 s
  Finished solving standard eigenproblem
  | Time :     0.001 s
  Finished back-transformation of eigenvectors
  | Time :     0.000 s

  Calculating k-point    3 in band plot segment #   4:
  Overlap matrix is not singular
  | Lowest and highest eigenvalues :  0.1463E-02,  0.4733E+01
  Finished singularity check of overlap matrix
  | Time :     0.001 s
  Starting ELPA eigensolver
  Finished Cholesky decomposition
  | Time :     0.000 s
  Finished transformation to standard eigenproblem
  | Time :     0.000 s
  Finished solving standard eigenproblem
  | Time :     0.000 s
  Finished back-transformation of eigenvectors
  | Time :     0.000 s

  Calculating k-point    4 in band plot segment #   4:
  Overlap matrix is not singular
  | Lowest and highest eigenvalues :  0.1531E-02,  0.5048E+01
  Finished singularity check of overlap matrix
  | Time :     0.000 s
  Starting ELPA eigensolver
  Finished Cholesky decomposition
  | Time :     0.001 s
  Finished transformation to standard eigenproblem
  | Time :     0.000 s
  Finished solving standard eigenproblem
  | Time :     0.001 s
  Finished back-transformation of eigenvectors
  | Time :     0.000 s

  Calculating k-point    5 in band plot segment #   4:
  Overlap matrix is not singular
  | Lowest and highest eigenvalues :  0.1592E-02,  0.5369E+01
  Finished singularity check of overlap matrix
  | Time :     0.000 s
  Starting ELPA eigensolver
  Finished Cholesky decomposition
  | Time :     0.000 s
  Finished transformation to standard eigenproblem
  | Time :     0.000 s
  Finished solving standard eigenproblem
  | Time :     0.001 s
  Finished back-transformation of eigenvectors
  | Time :     0.000 s

  Calculating k-point    6 in band plot segment #   4:
  Overlap matrix is not singular
  | Lowest and highest eigenvalues :  0.1639E-02,  0.5679E+01
  Finished singularity check of overlap matrix
  | Time :     0.000 s
  Starting ELPA eigensolver
  Finished Cholesky decomposition
  | Time :     0.000 s
  Finished transformation to standard eigenproblem
  | Time :     0.000 s
  Finished solving standard eigenproblem
  | Time :     0.001 s
  Finished back-transformation of eigenvectors
  | Time :     0.000 s

  Calculating k-point    7 in band plot segment #   4:
  Overlap matrix is not singular
  | Lowest and highest eigenvalues :  0.1670E-02,  0.5961E+01
  Finished singularity check of overlap matrix
  | Time :     0.001 s
  Starting ELPA eigensolver
  Finished Cholesky decomposition
  | Time :     0.000 s
  Finished transformation to standard eigenproblem
  | Time :     0.001 s
  Finished solving standard eigenproblem
  | Time :     0.001 s
  Finished back-transformation of eigenvectors
  | Time :     0.000 s

  Calculating k-point    8 in band plot segment #   4:
  Overlap matrix is not singular
  | Lowest and highest eigenvalues :  0.1678E-02,  0.6202E+01
  Finished singularity check of overlap matrix
  | Time :     0.001 s
  Starting ELPA eigensolver
  Finished Cholesky decomposition
  | Time :     0.000 s
  Finished transformation to standard eigenproblem
  | Time :     0.000 s
  Finished solving standard eigenproblem
  | Time :     0.001 s
  Finished back-transformation of eigenvectors
  | Time :     0.000 s

  Calculating k-point    9 in band plot segment #   4:
  Overlap matrix is not singular
  | Lowest and highest eigenvalues :  0.1669E-02,  0.6392E+01
  Finished singularity check of overlap matrix
  | Time :     0.001 s
  Starting ELPA eigensolver
  Finished Cholesky decomposition
  | Time :     0.000 s
  Finished transformation to standard eigenproblem
  | Time :     0.000 s
  Finished solving standard eigenproblem
  | Time :     0.001 s
  Finished back-transformation of eigenvectors
  | Time :     0.000 s

  Calculating k-point   10 in band plot segment #   4:
  Overlap matrix is not singular
  | Lowest and highest eigenvalues :  0.1653E-02,  0.6523E+01
  Finished singularity check of overlap matrix
  | Time :     0.001 s
  Starting ELPA eigensolver
  Finished Cholesky decomposition
  | Time :     0.000 s
  Finished transformation to standard eigenproblem
  | Time :     0.000 s
  Finished solving standard eigenproblem
  | Time :     0.001 s
  Finished back-transformation of eigenvectors
  | Time :     0.000 s

  Calculating k-point   11 in band plot segment #   4:
  Overlap matrix is not singular
  | Lowest and highest eigenvalues :  0.1661E-02,  0.6592E+01
  Finished singularity check of overlap matrix
  | Time :     0.001 s
  Starting ELPA eigensolver
  Finished Cholesky decomposition
  | Time :     0.000 s
  Finished transformation to standard eigenproblem
  | Time :     0.000 s
  Finished solving standard eigenproblem
  | Time :     0.001 s
  Finished back-transformation of eigenvectors
  | Time :     0.000 s

  Calculating k-point   12 in band plot segment #   4:
  Overlap matrix is not singular
  | Lowest and highest eigenvalues :  0.1734E-02,  0.6601E+01
  Finished singularity check of overlap matrix
  | Time :     0.001 s
  Starting ELPA eigensolver
  Finished Cholesky decomposition
  | Time :     0.000 s
  Finished transformation to standard eigenproblem
  | Time :     0.001 s
  Finished solving standard eigenproblem
  | Time :     0.001 s
  Finished back-transformation of eigenvectors
  | Time :     0.000 s

  Calculating k-point   13 in band plot segment #   4:
  Overlap matrix is not singular
  | Lowest and highest eigenvalues :  0.1914E-02,  0.6555E+01
  Finished singularity check of overlap matrix
  | Time :     0.001 s
  Starting ELPA eigensolver
  Finished Cholesky decomposition
  | Time :     0.000 s
  Finished transformation to standard eigenproblem
  | Time :     0.001 s
  Finished solving standard eigenproblem
  | Time :     0.001 s
  Finished back-transformation of eigenvectors
  | Time :     0.000 s

  Calculating k-point   14 in band plot segment #   4:
  Overlap matrix is not singular
  | Lowest and highest eigenvalues :  0.2217E-02,  0.6463E+01
  Finished singularity check of overlap matrix
  | Time :     0.001 s
  Starting ELPA eigensolver
  Finished Cholesky decomposition
  | Time :     0.000 s
  Finished transformation to standard eigenproblem
  | Time :     0.000 s
  Finished solving standard eigenproblem
  | Time :     0.000 s
  Finished back-transformation of eigenvectors
  | Time :     0.000 s

  Calculating k-point   15 in band plot segment #   4:
  Overlap matrix is not singular
  | Lowest and highest eigenvalues :  0.2459E-02,  0.6337E+01
  Finished singularity check of overlap matrix
  | Time :     0.001 s
  Starting ELPA eigensolver
  Finished Cholesky decomposition
  | Time :     0.000 s
  Finished transformation to standard eigenproblem
  | Time :     0.000 s
  Finished solving standard eigenproblem
  | Time :     0.000 s
  Finished back-transformation of eigenvectors
  | Time :     0.001 s

  Calculating k-point   16 in band plot segment #   4:
  Overlap matrix is not singular
  | Lowest and highest eigenvalues :  0.2556E-02,  0.6192E+01
  Finished singularity check of overlap matrix
  | Time :     0.001 s
  Starting ELPA eigensolver
  Finished Cholesky decomposition
  | Time :     0.000 s
  Finished transformation to standard eigenproblem
  | Time :     0.000 s
  Finished solving standard eigenproblem
  | Time :     0.000 s
  Finished back-transformation of eigenvectors
  | Time :     0.001 s

  Calculating k-point   17 in band plot segment #   4:
  Overlap matrix is not singular
  | Lowest and highest eigenvalues :  0.2823E-02,  0.6044E+01
  Finished singularity check of overlap matrix
  | Time :     0.000 s
  Starting ELPA eigensolver
  Finished Cholesky decomposition
  | Time :     0.001 s
  Finished transformation to standard eigenproblem
  | Time :     0.000 s
  Finished solving standard eigenproblem
  | Time :     0.001 s
  Finished back-transformation of eigenvectors
  | Time :     0.000 s

  Calculating k-point   18 in band plot segment #   4:
  Overlap matrix is not singular
  | Lowest and highest eigenvalues :  0.3264E-02,  0.5908E+01
  Finished singularity check of overlap matrix
  | Time :     0.000 s
  Starting ELPA eigensolver
  Finished Cholesky decomposition
  | Time :     0.001 s
  Finished transformation to standard eigenproblem
  | Time :     0.000 s
  Finished solving standard eigenproblem
  | Time :     0.001 s
  Finished back-transformation of eigenvectors
  | Time :     0.000 s

  Calculating k-point   19 in band plot segment #   4:
  Overlap matrix is not singular
  | Lowest and highest eigenvalues :  0.3831E-02,  0.5798E+01
  Finished singularity check of overlap matrix
  | Time :     0.000 s
  Starting ELPA eigensolver
  Finished Cholesky decomposition
  | Time :     0.000 s
  Finished transformation to standard eigenproblem
  | Time :     0.000 s
  Finished solving standard eigenproblem
  | Time :     0.001 s
  Finished back-transformation of eigenvectors
  | Time :     0.000 s

  Calculating k-point   20 in band plot segment #   4:
  Overlap matrix is not singular
  | Lowest and highest eigenvalues :  0.4372E-02,  0.5728E+01
  Finished singularity check of overlap matrix
  | Time :     0.000 s
  Starting ELPA eigensolver
  Finished Cholesky decomposition
  | Time :     0.000 s
  Finished transformation to standard eigenproblem
  | Time :     0.000 s
  Finished solving standard eigenproblem
  | Time :     0.001 s
  Finished back-transformation of eigenvectors
  | Time :     0.000 s

  Calculating k-point   21 in band plot segment #   4:
  Overlap matrix is not singular
  | Lowest and highest eigenvalues :  0.4609E-02,  0.5703E+01
  Finished singularity check of overlap matrix
  | Time :     0.000 s
  Starting ELPA eigensolver
  Finished Cholesky decomposition
  | Time :     0.000 s
  Finished transformation to standard eigenproblem
  | Time :     0.000 s
  Finished solving standard eigenproblem
  | Time :     0.001 s
  Finished back-transformation of eigenvectors
  | Time :     0.000 s

  Scalar-relativistic "band gap" along reciprocal space direction number:    4
  |Lowest unoccupied state:      -3.72217002eV
  |Highest occupied state:        -4.03430995eV

  Spin-orbit-coupled "band gap" along reciprocal space direction number:    4
  |Lowest unoccupied state:      -3.72216989eV
  |Highest occupied state:        -3.92817460eV


  Band Structure                                          :  max(cpu_time) wall_clock(cpu1)
  | Total Time                                            :          1.308            1.321
------------------------------------------------------------
  |------------------------------------------------------
  | Final ELSI Output
  |------------------------------------------------------
  |
  | Physical Properties
  |   Number of electrons       :        0.64000000E+02
  |   Number of spins           :                     1
  |   Number of k-points        :                     1
  |   Number of states          :                    51
  |
  | Matrix Properties
  |   Matrix format             :           BLACS_DENSE
  |   Number of basis functions :                    54
  |   Matrix sparsity           :        0.22702332E+00
  |
  | Computational Details
  |   Parallel mode             :            MULTI_PROC
  |   Number of MPI tasks       :                     8
  |   Solver requested          :                  ELPA
  |   Number of ELSI calls      :                   100
  |
  |------------------------------------------------------
  | ELSI Project (c)  elsi-interchange.org
  |------------------------------------------------------

------------------------------------------------------------------------------
  Final output of selected total energy values:

  The following output summarizes some interesting total energy values
  at the end of a run (AFTER all relaxation, molecular dynamics, etc.).

  | Total energy of the DFT / Hartree-Fock s.c.f. calculation      :        -115059.186023369 eV
  | Final zero-broadening corrected energy (caution - metals only) :        -115059.186023369 eV
  | Total energy after non-SC SOC correction (DO NOT USE)          :        -115059.262796441 eV
  | For reference only, the value of 1 Hartree used in FHI-aims is :             27.211384500 eV
  | For reference only, the overall average (free atom contribution
  | + realspace contribution) of the electrostatic potential after
  | s.c.f. convergence is                                          :            -13.922822026 eV

  Before relying on these values, please be sure to understand exactly which
  total energy value is referred to by a given number. Different objects may
  all carry the same name 'total energy'. Definitions:

  Total energy of the DFT / Hartree-Fock s.c.f. calculation:
  | Note that this energy does not include ANY quantities calculated after the
  | s.c.f. cycle, in particular not ANY RPA, MP2, etc. many-body perturbation terms.

  Final zero-broadening corrected energy:
  | For metallic systems only, a broadening of the occupation numbers at the Fermi
  | level can be extrapolated back to zero broadening by an electron-gas inspired
  | formula. For all systems that are not real metals, this value can be
  | meaningless and should be avoided.

------------------------------------------------------------------------------
  Methods described in the following list of references were used in this FHI-aims run.
  If you publish the results, please make sure to cite these reference if they apply.
  FHI-aims is an academic code, and for our developers (often, Ph.D. students
  and postdocs), scientific credit in the community is essential.
  Thank you for helping us!

  For any use of FHI-aims, please cite:

    Volker Blum, Ralf Gehrke, Felix Hanke, Paula Havu, Ville Havu,
    Xinguo Ren, Karsten Reuter, and Matthias Scheffler
    'Ab initio molecular simulations with numeric atom-centered orbitals'
    Computer Physics Communications 180, 2175-2196 (2009)
    http://dx.doi.org/10.1016/j.cpc.2009.06.022


  The provided symmetry information was generated with SPGlib:

    Atsushi Togo, Yusuke Seto, Dimitar Pashov
    SPGlib 1.7.3 obtained from http://spglib.sourceforge.net
    Copyright (C) 2008 Atsushi Togo


  For second-variational spin-orbit coupling used in your run, please cite:

    William P. Huhn and Volker Blum,
    'One-hundred-three compound band-structure benchmark of post-self-consistent'
    'spin-orbit coupling treatments in density functional theory'
    Phys. Rev. Materials 1, 033803 (2017).


  The ELSI infrastructure was used in your run to solve the Kohn-Sham electronic structure.
  Please check out http://elsi-interchange.org to learn more.
  If scalability is important for your project, please acknowledge ELSI by citing:

    V. W-z. Yu, F. Corsetti, A. Garcia, W. P. Huhn, M. Jacquelin, W. Jia,
    B. Lange, L. Lin, J. Lu, W. Mi, A. Seifitokaldani, A. Vazquez-Mayagoitia,
    C. Yang, H. Yang, and V. Blum
    'ELSI: A unified software interface for Kohn-Sham electronic structure solvers'
    Computer Physics Communications 222, 267-285 (2018).
    http://dx.doi.org/10.1016/j.cpc.2017.09.007


  For the real-space grid partitioning and parallelization used in this calculation, please cite:

    Ville Havu, Volker Blum, Paula Havu, and Matthias Scheffler,
    'Efficient O(N) integration for all-electron electronic structure calculation'
    'using numerically tabulated basis functions'
    Journal of Computational Physics 228, 8367-8379 (2009).
    http://dx.doi.org/10.1016/j.jcp.2009.08.008

  Of course, there are many other important community references, e.g., those cited in the
  above references. Our list is limited to references that describe implementations in the
  FHI-aims code. The reason is purely practical (length of this list) - please credit others as well.

 * A warning was issued further up regarding the accuracy of onsite integrals.
   An integral with a negative eigenvalue was among the flagged integrals.
   In most standard situations, this warning is probably harmless.
   If needed, this can be verified by adjusting the radial_multiplier flag.

------------------------------------------------------------
          Leaving FHI-aims.
          Date     :  20190817, Time     :  153304.851

          Computational steps:
          | Number of self-consistency cycles          :           15
          | Number of SCF (re)initializations          :            1

          Detailed time accounting                     :  max(cpu_time)    wall_clock(cpu1)
          | Total time                                 :        9.432 s           9.445 s
          | Preparation time                           :        0.403 s           0.404 s
          | Boundary condition initalization           :        0.051 s           0.051 s
          | Grid partitioning                          :        0.023 s           0.023 s
          | Preloading free-atom quantities on grid    :        0.003 s           0.003 s
          | Free-atom superposition energy             :        0.007 s           0.008 s
          | Total time for integrations                :        1.445 s           1.448 s
          | Total time for solution of K.-S. equations :        0.051 s           0.050 s
          | Total time for density update              :        2.007 s           2.008 s
          | Total time for mixing & preconditioning    :        0.697 s           0.697 s
          | Total time for Hartree multipole update    :        0.014 s           0.013 s
          | Total time for Hartree multipole sum       :        1.701 s           1.701 s
          | Total time for total energy evaluation     :        0.002 s           0.001 s
          | Total time for scaled ZORA corrections     :        0.000 s           0.000 s
          | Total time for perturbative SOC            :        0.544 s           0.545 s
          | Total time for band structures, DOS        :        2.345 s           2.367 s

          Partial memory accounting:
          | Residual value for overall tracked memory usage across tasks:     0.000000 MB (should be 0.000000 MB)
          | Peak values for overall tracked memory usage:
          |   Minimum:        6.810 MB (on task 0 after allocating potential_shell)
          |   Maximum:        7.062 MB (on task 3 after allocating potential_shell)
          |   Average:        6.886 MB
          | Largest tracked array allocation:
          |   Minimum:        2.079 MB (hamiltonian_shell on task 0)
          |   Maximum:        2.283 MB (hamiltonian_shell on task 3)
          |   Average:        2.144 MB
          Note:  These values currently only include a subset of arrays which are explicitly tracked.
          The "true" memory usage will be greater.

          Have a nice day.
------------------------------------------------------------
