  MPI-parallelism will be employed.
------------------------------------------------------------
          Invoking FHI-aims ...

          When using FHI-aims, please cite the following reference:

          Volker Blum, Ralf Gehrke, Felix Hanke, Paula Havu,
          Ville Havu, Xinguo Ren, Karsten Reuter, and Matthias Scheffler,
          'Ab Initio Molecular Simulations with Numeric Atom-Centered Orbitals',
          Computer Physics Communications 180, 2175-2196 (2009)

          For any questions about FHI-aims, please visit the aimsclub website
          with its forums and wiki. Contributions to both the forums and the
          wiki are warmly encouraged - they are for you, and everyone is welcome there.

------------------------------------------------------------



  Date     :  20190817, Time     :  154220.596
  Time zero on CPU 1             :   0.448120000000000E-01  s.
  Internal wall clock time zero  :           335288540.596  s.

  FHI-aims created a unique identifier for this run for later identification
  aims_uuid : 0922D88E-19BD-4826-ACD2-B2B225E2A4A4

  Build configuration of the current instance of FHI-aims
  -------------------------------------------------------
  FHI-aims version      : 190813
  Commit number         : 3da7baeb3
  CMake host system     : Linux-4.4.180-94.97-default
  CMake version         : 3.5.2
  Fortran compiler      : /mpcdf/soft/SLE_12_SP3/packages/x86_64/intel_parallel_studio/2018.4/compilers_and_libraries_2018.5.274/linux/mpi/bin64/mpiifort (Intel) version 18.0.5.20180823
  Fortran compiler flags: -O3 -ip -fp-model precise
  C compiler            : /mpcdf/soft/SLE_12_SP3/packages/skylake/intel/18.0.5/bin/icc (Intel) version 18.0.5.20180823
  C compiler flags      : -O3 -ip -fp-model precise
  Architecture          :
  Using MPI
  Using Scalapack
  Using C files
  Using SPGlib
  Using i-PI
  Linking against: /mpcdf/soft/SLE_12_SP3/packages/x86_64/anaconda/3.5.1.0/lib/libmkl_intel_lp64.so
                   /mpcdf/soft/SLE_12_SP3/packages/x86_64/anaconda/3.5.1.0/lib/libmkl_sequential.so
                   /mpcdf/soft/SLE_12_SP3/packages/x86_64/anaconda/3.5.1.0/lib/libmkl_core.so
                   /mpcdf/soft/SLE_12_SP3/packages/x86_64/anaconda/3.5.1.0/lib/libmkl_blacs_intelmpi_lp64.so
                   /mpcdf/soft/SLE_12_SP3/packages/x86_64/anaconda/3.5.1.0/lib/libmkl_scalapack_lp64.so

  Using        8 parallel tasks.
  Task        0 on host co1631 reporting.
  Task        1 on host co1631 reporting.
  Task        2 on host co1631 reporting.
  Task        3 on host co1631 reporting.
  Task        4 on host co1631 reporting.
  Task        5 on host co1631 reporting.
  Task        6 on host co1631 reporting.
  Task        7 on host co1631 reporting.

  Performing system and environment tests:
  | Environment variable OMP_NUM_THREADS correctly set to 1.
  | Maximum stacksize for task 0: unlimited
  | Maximum stacksize for task 1: unlimited
  | Maximum stacksize for task 2: unlimited
  | Maximum stacksize for task 3: unlimited
  | Maximum stacksize for task 4: unlimited
  | Maximum stacksize for task 5: unlimited
  | Maximum stacksize for task 6: unlimited
  | Maximum stacksize for task 7: unlimited
  | Current stacksize for task 0: unlimited
  | Current stacksize for task 1: unlimited
  | Current stacksize for task 2: unlimited
  | Current stacksize for task 3: unlimited
  | Current stacksize for task 4: unlimited
  | Current stacksize for task 5: unlimited
  | Current stacksize for task 6: unlimited
  | Current stacksize for task 7: unlimited
  | Checking for scalapack...
  | Testing pdtran()...
  | All pdtran() tests passed.

  Obtaining array dimensions for all initial allocations:
  
  -----------------------------------------------------------------------
  Parsing control.in (first pass over file, find array dimensions only).
  The contents of control.in will be repeated verbatim below
  unless switched off by setting 'verbatim_writeout .false.' .
  in the first line of control.in .
  -----------------------------------------------------------------------
  
  #  Volker Blum, FHI 2004 : Input file for LocalOrb code project
  #
  #  Input file control.in : All computational details for structure geometry.in
  #
  #  * First, general computational parameters:
  #         xc           - specifies type of exchange-correlation potential
  #         relativistic - specifies the type of kinetic energy expression
  #         empty_states - specifies the number of empty states per atom to be included
  #         KS_method    - specifies the treatment of the Kohn-Sham equations (e.g., full diagonalisation by Lapack)
  #         charge_mix_param - mixing parameter for linear charge-density mixing
  #         sc_accuracy_rho - convergence criterion for the average charge
  #                        density distance
  #         sc_accuracy_eev - convergence criterion for the sum of eigenvalues
  #                        between different sc iterations
  #         sc_accuracy_etot - convergence criterion for the total energy
  #                        between different sc iterations
  #         force_potential - Force the use of a debug-type potential,
  #                           e.g. superposition of free atoms
  #
    xc             pw-lda
    total_energy_method rpa
      use_logsbt .true.
      frequency_points  40
    spin           none
    relativistic   none
    calculate_atom_bsse .true.
    empty_states   300
  #  excited_state  gw
  #  multiplicity    3
  #  KS_method      lapack
    basis_threshold 1.e-6
    occupation_type gaussian 0.05
    occupation_acc 1e-08
    mixer          pulay
    ini_linear_mixing 0
    charge_mix_param  0.2
    sc_accuracy_rho  1E-6
    sc_accuracy_eev  1E-4
    sc_accuracy_etot 1E-6
    sc_iter_limit 30
    prodbas_threshold 1.e-4
  #
  #  * Next, specify output options:
  #    - basis
  #    - matrices
  #    - grids
  #    - v_eff
  #    - v_hartree (partitioned Hartree potentials)
  #
  #  output       basis
  #  output       matrices
  #  output       grids
  #  output       v_eff
  #  output       v_hartree
  #  output       density
  #
  #  * Finally, all details relating to the chemical elements ("species"):
  ################################################################################
  #
  #  FHI-aims code project
  #  VB, Fritz-Haber Institut, 2007
  #
  #  Suggested "safe" defaults for C atom (to be pasted into control.in file)
  #
  ################################################################################
    species        C
  #     global species definitions
      nucleus             6
      mass                12.0107
  #
      l_hartree           6
  #
      cut_pot             4.0  2.0  1.0
  #    basis_dep_cutoff    1e-4
  #
      radial_base         34 7.0
      radial_multiplier   2
      angular_grids specified
        division   0.4031  110
        division   0.5191  194
        division   0.6263  302
        division   0.8150  434
  #      division   0.8501  590
  #     division   0.9238  770
  #     division   1.6076  974
  #     outer_grid  974
        outer_grid  434
  ################################################################################
  #
  #  Definition of "minimal" basis
  #
  ################################################################################
  #     valence basis states
      valence      2  s   2.
      valence      2  p   2.
  #     ion occupancy
      ion_occ      2  s   1.
      ion_occ      2  p   1.
  ################################################################################
  #
  #  Suggested additional basis functions. For production calculations,
  #  uncomment them one after another (the most important basis functions are
  #  listed first).
  #
  #  Constructed for dimers: 1.0 A, 1.25 A, 1.5 A, 2.0 A, 3.0 A
  #
  ################################################################################
  #  "First tier" - improvements: -1214.57 meV to -155.61 meV
       hydro 2 p 1.7
       hydro 3 d 6
       hydro 2 s 4.9
  #  "Second tier" - improvements: -67.75 meV to -5.23 meV
       hydro 4 f 9.8
       hydro 3 p 5.2
       hydro 3 s 4.3
       hydro 5 g 14.4
       hydro 3 d 6.2
  #  "Third tier" - improvements: -2.43 meV to -0.60 meV
       hydro 2 p 5.6
       hydro 2 s 1.4
       hydro 3 d 4.9
       hydro 4 f 11.2
  #  "Fourth tier" - improvements: -0.39 meV to -0.18 meV
  #     hydro 2 p 2.1
  #     hydro 5 g 16.4
  #     hydro 4 d 13.2
  #     hydro 3 s 13.6
  #     hydro 4 f 17.6
  #  Further basis functions - improvements: -0.08 meV and below
  #     hydro 3 s 2
  #     hydro 3 p 6
  #     hydro 4 d 20
  ################################################################################
  #
  #  FHI-aims code project
  #  VB, Fritz-Haber Institut, 2007
  #
  #  Suggested "safe" defaults for O atom (to be pasted into control.in file)
  #
  ################################################################################
    species        O
  #     global species definitions
      nucleus             8
      mass                15.9994
  #
      l_hartree           6
  #
      cut_pot             4.0  2.0  1.0
  #    basis_dep_cutoff    1e-4
  #
      radial_base         36 7.0
      radial_multiplier   2
       angular_grids specified
        division   0.4087  110
        division   0.5181  194
        division   0.6184  302
        division   0.7315  434
  #      division   0.7934  590
  #      division   0.9656  770
  #      division   1.4041  974
  #      outer_grid 974
        outer_grid  434
  ################################################################################
  #
  #  Definition of "minimal" basis
  #
  ################################################################################
  #     valence basis states
      valence      2  s   2.
      valence      2  p   4.
  #     ion occupancy
      ion_occ      2  s   1.
      ion_occ      2  p   3.
  ################################################################################
  #
  #  Suggested additional basis functions. For production calculations,
  #  uncomment them one after another (the most important basis functions are
  #  listed first).
  #
  #  Constructed for dimers: 1.0 A, 1.208 A, 1.5 A, 2.0 A, 3.0 A
  #
  ################################################################################
  #  "First tier" - improvements: -699.05 meV to -159.38 meV
       hydro 2 p 1.8
       hydro 3 d 7.6
       hydro 3 s 6.4
  #  "Second tier" - improvements: -49.91 meV to -5.39 meV
       hydro 4 f 11.6
       hydro 3 p 6.2
       hydro 3 d 5.6
       hydro 5 g 17.6
       hydro 1 s 0.75
  #  "Third tier" - improvements: -2.83 meV to -0.50 meV
       ionic 2 p auto
       hydro 4 f 10.8
       hydro 4 d 4.7
       hydro 2 s 6.8
  #  "Fourth tier" - improvements: -0.40 meV to -0.12 meV
  #     hydro 3 p 5
  #     hydro 3 s 3.3
  #     hydro 5 g 15.6
  #     hydro 4 f 17.6
  #     hydro 4 d 14
  # Further basis functions - -0.08 meV and below
  #     hydro 3 s 2.1
  #     hydro 4 d 11.6
  #     hydro 3 p 16
  #     hydro 2 s 17.2
  
  -----------------------------------------------------------------------
  Completed first pass over input file control.in .
  -----------------------------------------------------------------------
  
  
  -----------------------------------------------------------------------
  Parsing geometry.in (first pass over file, find array dimensions only).
  The contents of geometry.in will be repeated verbatim below
  unless switched off by setting 'verbatim_writeout .false.' .
  in the first line of geometry.in .
  -----------------------------------------------------------------------
  
  atom 0.0 0.0 0.0 C
  atom 0.0 0.0 1.10 O
  
  -----------------------------------------------------------------------
  Completed first pass over input file geometry.in .
  -----------------------------------------------------------------------
  

  Basic array size parameters:
  | Number of species                 :        2
  | Number of atoms                   :        2
  | Max. basis fn. angular momentum   :        4
  | Max. atomic/ionic basis occupied n:        2
  | Max. number of basis fn. types    :        3
  | Max. radial fns per species/type  :       12
  | Max. logarithmic grid size        :     1301
  | Max. radial integration grid size :       73
  | Max. angular integration grid size:      434
  | Max. angular grid division number :        8
  | Radial grid for Hartree potential :     1301
  | Number of spin channels           :        1

------------------------------------------------------------
          Reading file control.in.
------------------------------------------------------------
  XC: Using Perdew-Wang parametrisation of Ceperley-Alder LDA.
  RPA correlation energy calculation will be started after the DFT/HF calculation.
  Using 1D integrations for auxiliary 2-center integrals.
  Number of frequency points used for the self-energy calculation:     40
  Spin treatment: No spin polarisation.
  Non-relativistic treatment of kinetic energy.
  Atomization BSSE calculation requested.
  Number of empty states per atom:      300
  Threshold for basis singularities:  0.1000E-05
  Occupation type: Gaussian broadening, width =   0.500000E-01 eV.
  Accuracy of occupation numbers  :  0.1000E-07
  Using pulay charge density mixing.
  Number of initial iterations with linear charge density mixing:     0
  Charge density mixing - mixing parameter:     0.2000
  Convergence accuracy of self-consistent charge density:  0.1000E-05
  Convergence accuracy of sum of eigenvalues:  0.1000E-03
  Convergence accuracy of total energy:  0.1000E-05
  Maximum number of s.-c. iterations  :    30
  Threshold for auxiliary basis singularities:  0.1000E-03
 
  Reading configuration options for species C                   .
  | Found nuclear charge :   6.0000
  | Found atomic mass :    12.0107000000000      amu
  | Found l_max for Hartree potential  :   6
  | Found cutoff potl. onset [A], width [A], scale factor :    4.00000    2.00000    1.00000
  | Found data for basic radial integration grid :    34 points, outermost radius =    7.000 A
  | Found multiplier for basic radial grid :   2
  | Found angular grid specification: user-specified.
  | Specified grid contains     5 separate shells.
  | Check grid settings after all constraints further below.
  | Found free-atom valence shell :  2 s   2.000
  | Found free-atom valence shell :  2 p   2.000
  | Found free-ion valence shell :  2 s   1.000
  | Found free-ion valence shell :  2 p   1.000
  | Found hydrogenic basis function :  2 p   1.700
  | Found hydrogenic basis function :  3 d   6.000
  | Found hydrogenic basis function :  2 s   4.900
  | Found hydrogenic basis function :  4 f   9.800
  | Found hydrogenic basis function :  3 p   5.200
  | Found hydrogenic basis function :  3 s   4.300
  | Found hydrogenic basis function :  5 g  14.400
  | Found hydrogenic basis function :  3 d   6.200
  | Found hydrogenic basis function :  2 p   5.600
  | Found hydrogenic basis function :  2 s   1.400
  | Found hydrogenic basis function :  3 d   4.900
  | Found hydrogenic basis function :  4 f  11.200
  Species C                   : Missing cutoff potential type.
  Defaulting to exp(1/x)/(1-x)^2 type cutoff potential.
  Species C : No 'logarithmic' tag. Using default grid for free atom:
  | Default logarithmic grid data [bohr] : 0.1000E-03 0.1000E+03 0.1012E+01
  Species C : On-site basis accuracy parameter (for Gram-Schmidt orthonormalisation) not specified.
  Using default value basis_acc =  0.1000000E-03.
  Species C                   : Using default innermost maximum threshold i_radial=  2 for radial functions.
  Species C                   : Default cutoff onset for free atom density etc. is infinite
  since the product basis is used (hybrid functionals, Hartree-Fock, GW etc.).
  Species C                   : Basic radial grid will be enhanced according to radial_multiplier =   2, to contain    69 grid points.
 
  Reading configuration options for species O                   .
  | Found nuclear charge :   8.0000
  | Found atomic mass :    15.9994000000000      amu
  | Found l_max for Hartree potential  :   6
  | Found cutoff potl. onset [A], width [A], scale factor :    4.00000    2.00000    1.00000
  | Found data for basic radial integration grid :    36 points, outermost radius =    7.000 A
  | Found multiplier for basic radial grid :   2
  | Found angular grid specification: user-specified.
  | Specified grid contains     5 separate shells.
  | Check grid settings after all constraints further below.
  | Found free-atom valence shell :  2 s   2.000
  | Found free-atom valence shell :  2 p   4.000
  | Found free-ion valence shell :  2 s   1.000
  | Found free-ion valence shell :  2 p   3.000
  | Found hydrogenic basis function :  2 p   1.800
  | Found hydrogenic basis function :  3 d   7.600
  | Found hydrogenic basis function :  3 s   6.400
  | Found hydrogenic basis function :  4 f  11.600
  | Found hydrogenic basis function :  3 p   6.200
  | Found hydrogenic basis function :  3 d   5.600
  | Found hydrogenic basis function :  5 g  17.600
  | Found hydrogenic basis function :  1 s   0.750
  | Found ionic basis function :  2 p , default cutoff radius.
  | Found hydrogenic basis function :  4 f  10.800
  | Found hydrogenic basis function :  4 d   4.700
  | Found hydrogenic basis function :  2 s   6.800
  Species O                   : Missing cutoff potential type.
  Defaulting to exp(1/x)/(1-x)^2 type cutoff potential.
  Species O : No 'logarithmic' tag. Using default grid for free atom:
  | Default logarithmic grid data [bohr] : 0.1000E-03 0.1000E+03 0.1012E+01
  | Will include ionic basis functions of  2.0-fold positive O                    ion.
  Species O : On-site basis accuracy parameter (for Gram-Schmidt orthonormalisation) not specified.
  Using default value basis_acc =  0.1000000E-03.
  Species O                   : Using default innermost maximum threshold i_radial=  2 for radial functions.
  Species O                   : Default cutoff onset for free atom density etc. is infinite
  since the product basis is used (hybrid functionals, Hartree-Fock, GW etc.).
  Species O                   : Basic radial grid will be enhanced according to radial_multiplier =   2, to contain    73 grid points.
 
  Finished reading input file 'control.in'. Consistency checks are next.
 
  MPI_IN_PLACE appears to work with this MPI implementation.
  | Keeping use_mpi_in_place .true. (see manual).
  Explicit treatment of the Coulomb operator is needed, but the RI method is not specified.
  Coulomb operator: Defaulting to 'RI-V' resolution of identity - RI_type = V 
  Species C: Using default value for prodbas_acc =   1.000000E-02.
  Species C: Using default value max_l_prodbas =     5.
  Explicit treatment of the Coulomb operator is needed, but the RI method is not specified.
  Coulomb operator: Defaulting to 'RI-V' resolution of identity - RI_type = V 
  Species O: Using default value for prodbas_acc =   1.000000E-02.
  Species O: Using default value max_l_prodbas =     5.
 * Species C: Specified min. number of angular integration points is   110
 * The angular momenta for this species require   194 for RI_type 'V'. Increasing angular_min to   194.
 * Species C: Grid shell     1 contains only   110 angular integration points.
 * Increasing to angular_min =   194 integration points.
 * This change is related to the three-center integrals used in RI_method 'V'.
 * Species O: Specified min. number of angular integration points is   110
 * The angular momenta for this species require   194 for RI_type 'V'. Increasing angular_min to   194.
 * Species O: Grid shell     1 contains only   110 angular integration points.
 * Increasing to angular_min =   194 integration points.
 * This change is related to the three-center integrals used in RI_method 'V'.
  Target number of points in a grid batch is not set. Defaulting to  100
  Method for grid partitioning is not set. Defaulting to parallel hash+maxmin partitioning.
  Batch size limit is not set. Defaulting to    200
  By default, will store active basis functions for each batch.
  If in need of memory, prune_basis_once .false. can be used to disable this option.
  communication_type for Hartree potential was not specified.
  Defaulting to calc_hartree .
  Pulay mixer: Number of relevant iterations not set.
  Defaulting to    8 iterations.
  Work space size for distributed Hartree potential not set.
  Defaulting to   0.200000E+03 MB.
  Algorithm-dependent basis array size parameters:
  | n_max_pulay                         :        8
  Presetting      1001 iterations before the initial mixing cycle
  is restarted anyway using the sc_init_iter criterion / keyword.
  Presetting a factor      1.000 between actual scf density residual
  and density convergence criterion sc_accuracy_rho below which sc_init_iter
  takes no effect.
  Calculation of forces was not defined in control.in. No forces will be calculated.
  Geometry relaxation not requested: no relaxation will be performed.
  No accuracy limit for integral partition fn. given. Defaulting to  0.1000E-14.
  No threshold value for u(r) in integrations given. Defaulting to  0.1000E-05.
  No threshold value for occupation numbers given. Defaulting to  0.0000E+00.
  No accuracy for fermi level given. Defaulting to  0.1000E-19.
  Maximum # of iterations to find E_F not set. Defaulting to  200.
  Preferred method for the eigenvalue solver ('KS_method') not specified in 'control.in'.
  Calling BLACS routine to test compilation state
  Since ScaLAPACK support is enabled, defaulting to ELPA (via ELSI).
  Will not use alltoall communication since running on < 1024 CPUs.
  partition_type (choice of integration weights) for integrals was not specified.
  | Using a version of the partition function of Stratmann and coworkers ('stratmann_sparse').
  | At each grid point, the set of atoms used to build the partition table is smoothly restricted to
  | only those atoms whose free-atom density would be non-zero at that grid point.
  Partitioning for Hartree potential was not defined. Using partition_type for integrals.
  | Adjusted default value of keyword multip_moments_threshold to:       0.10000000E-11
  | This value may affect high angular momentum components of the Hartree potential in periodic systems.
  * Doing correlated calculations, so all empty single-particle states will be included.
  No q(lm)/r^(l+1) cutoff set for long-range Hartree potential.
  | Using default value of  0.100000E-09 .
  | Verify using the multipole_threshold keyword.
  Defaulting to new monopole extrapolation.
  Density update method: automatic selection selected.
  Charge integration errors on the 3D integration grid will be compensated
  by explicit normalization and distribution of residual charges.
  Use the "compensate_multipole_errors" flag to change this behaviour.
  Default onset of logarithmic r-grid for SBT is-38.000000000000
  Default onset of logarithmic k-grid for SBT is-25.000000000000
  Default range of logarithmic r- and k-grid for SBT is 45.000000000000
  Default number of logarithmic r- and k-grid for SBT is  4096
  Default of use_2d_corr is to use the efficient 2D distribution where possible
------------------------------------------------------------


------------------------------------------------------------
          Reading geometry description geometry.in.
------------------------------------------------------------
  Input structure read successfully.
  The structure contains        2 atoms,  and a total of         14.000 electrons.

  Input geometry:
  | No unit cell requested.
  | Atomic structure:
  |       Atom                x [A]            y [A]            z [A]
  |    1: Species C             0.00000000        0.00000000        0.00000000
  |    2: Species O             0.00000000        0.00000000        1.10000000
  | The smallest distance between any two atoms is         1.10000000 AA.
  | The first atom of this pair is atom number                      1 .
  | The second atom of this pair is atom number                     2 .

  Number of empty states per atom not set in control.in .
  | Since you are using a method that relies on the unoccupied spectrum
  | (MP2,GW,RPA et al.), will use the full Hamiltonian size (see below)
  | as the max. possible number of states (occupied plus empty).

  Structure-dependent array size parameters: 
  | Maximum number of distinct radial functions  :       30
  | Maximum number of basis functions            :      110
  | Number of Kohn-Sham states (occupied + empty):      110
------------------------------------------------------------

------------------------------------------------------------
          Preparing all fixed parts of the calculation.
------------------------------------------------------------
  Determining machine precision:
    2.225073858507201E-308
  Setting up grids for atomic and cluster calculations.

  Creating wave function, potential, and density for free atoms.

  Species: C

  List of occupied orbitals and eigenvalues:
    n    l              occ      energy [Ha]    energy [eV]
    1    0           2.0000        -9.947552      -270.6867
    2    0           2.0000        -0.500806       -13.6276
    2    1           2.0000        -0.199144        -5.4190


  Species: O

  List of occupied orbitals and eigenvalues:
    n    l              occ      energy [Ha]    energy [eV]
    1    0           2.0000       -18.758150      -510.4352
    2    0           2.0000        -0.871222       -23.7071
    2    1           4.0000        -0.338260        -9.2045

  Creating fixed part of basis set: Ionic, confined, hydrogenic.
 
  C                    hydrogenic:
 
  List of hydrogenic basis orbitals: 
    n    l      effective z      eigenvalue [eV]  inner max. [A]     outer max. [A]     outer radius [A]   
    2    1         1.700000        -9.8152           1.245706           1.245706           5.401630
    3    2         6.000000       -54.4226           0.792453           0.792453           4.178599
    2    0         4.900000       -81.6681           0.082559           0.562749           3.353238
    4    3         9.800000       -81.6681           0.863254           0.863254           4.028125
    3    1         5.200000       -40.8774           0.305389           1.215618           4.898362
    3    0         4.300000       -27.9508           0.091041           1.610311           5.401630
    5    4        14.400000      -112.8510           0.917666           0.917666           3.883070
    3    2         6.200000       -58.1113           0.763917           0.763917           4.077671
    2    1         5.600000      -106.6686           0.375932           0.375932           2.967371
    2    0         1.400000        -6.5336           0.287281           1.958203           5.468070
    3    2         4.900000       -36.2967           0.975508           0.975508           4.838844
    4    3        11.200000      -106.6686           0.754635           0.754635           3.652826
 
 
  O                    ion:

  List of free ionic orbitals and eigenvalues:
    n    l      energy [Ha]    energy [eV]
    1    0       -20.307828      -552.6041
    2    0        -2.120942       -57.7138
    2    1        -1.580720       -43.0136


  List of ionic basis orbitals and eigenvalues:
    n    l      energy [Ha]    energy [eV]    outer radius [A]
    2    1        -1.580715       -43.0134       3.541477

 
  O                    hydrogenic:
 
  List of hydrogenic basis orbitals: 
    n    l      effective z      eigenvalue [eV]  inner max. [A]     outer max. [A]     outer radius [A]   
    2    1         1.800000       -11.0118           1.178562           1.178562           5.432602
    3    2         7.600000       -87.3182           0.624125           0.624125           3.541477
    3    0         6.400000       -61.9209           0.061167           1.081902           4.306578
    4    3        11.600000      -114.4238           0.731631           0.731631           3.585037
    3    1         6.200000       -58.1113           0.255680           1.030270           4.306578
    3    2         5.600000       -47.4081           0.847233           0.847233           4.413171
    5    4        17.600000      -168.5799           0.749740           0.749740           3.372465
    1    0         0.750000        -7.6499           0.705284           0.705284           5.366593
    4    3        10.800000       -99.1854           0.787313           0.787313           3.764702
    4    2         4.700000       -18.6841           0.758962           2.365807           5.499423
    2    0         6.800000      -157.2818           0.059689           0.406863           2.739620
 

  Adding cutoff potential to free-atom effective potential.
  Creating atomic-like basis functions for current effective potential.

  Species C                   :

  List of atomic basis orbitals and eigenvalues:
    n    l      energy [Ha]    energy [eV]    outer radius [A]
    1    0        -9.947552      -270.6867       1.934409
    2    0        -0.500805       -13.6276       5.271162
    2    1        -0.199088        -5.4174       5.401630


  Species O                   :

  List of atomic basis orbitals and eigenvalues:
    n    l      energy [Ha]    energy [eV]    outer radius [A]
    1    0       -18.758150      -510.4352       1.433179
    2    0        -0.871222       -23.7071       5.048385
    2    1        -0.338258        -9.2045       5.301386

  Assembling full basis from fixed parts.
  | Species C :   atomic orbital   1 s accepted.
  | Species C :    hydro orbital   2 s accepted.
  | Species C :   atomic orbital   2 s accepted.
  | Species C :    hydro orbital   3 s accepted.
  | Species C :    hydro orbital   2 s accepted.
  | Species C :    hydro orbital   2 p accepted.
  | Species C :    hydro orbital   3 p accepted.
  | Species C :   atomic orbital   2 p accepted.
  | Species C :    hydro orbital   2 p accepted.
  | Species C :    hydro orbital   3 d accepted.
  | Species C :    hydro orbital   3 d accepted.
  | Species C :    hydro orbital   3 d accepted.
  | Species C :    hydro orbital   4 f accepted.
  | Species C :    hydro orbital   4 f accepted.
  | Species C :    hydro orbital   5 g accepted.
  | Species O :   atomic orbital   1 s accepted.
  | Species O :    hydro orbital   2 s accepted.
  | Species O :    hydro orbital   3 s accepted.
  | Species O :   atomic orbital   2 s accepted.
  | Species O :    hydro orbital   1 s accepted.
  | Species O :    ionic orbital   2 p accepted.
  | Species O :    hydro orbital   3 p accepted.
  | Species O :   atomic orbital   2 p accepted.
  | Species O :    hydro orbital   2 p accepted.
  | Species O :    hydro orbital   3 d accepted.
  | Species O :    hydro orbital   3 d accepted.
  | Species O :    hydro orbital   4 d accepted.
  | Species O :    hydro orbital   4 f accepted.
  | Species O :    hydro orbital   4 f accepted.
  | Species O :    hydro orbital   5 g accepted.
 
  Basis size parameters after reduction:
  | Total number of radial functions:       30
  | Total number of basis functions :      110
 
  Per-task memory consumption for arrays in subroutine allocate_ext:
  |           5.000000MB.
  Testing on-site integration grid accuracy.
  |  Species  Function  <phi|h_atom|phi> (log., in eV)  <phi|h_atom|phi> (rad., in eV)
           1        1               -270.6866625911               -270.6866610979
           1        2                -10.6263429555                -10.6263646741
           1        3                 16.2290287462                 16.2290425527
           1        4                 49.2513815315                 49.2516144727
           1        5                 28.1674013941                 28.1821064378
           1        6                  6.8417718254                  6.8417718454
           1        7                 12.9897998111                 12.9897966489
           1        8                 53.4289463515                 53.4331744758
           1        9                 60.6997607670                 60.6999060516
           1       10                 29.4231593448                 29.4231596744
           1       11                 54.5660703380                 54.5659830483
           1       12                 60.7982846512                 60.8001047435
           1       13                 77.8856943348                 77.8856943292
           1       14                 96.3388542351                 96.3388531031
           1       15                 93.4401082790                 93.4401083566
           2       16               -510.4352423589               -510.4352379710
           2       17                -18.2402677734                -18.2403186750
           2       18                 13.4578852145                 13.4578735872
           2       19                175.4874296743                175.4885077759
           2       20                 88.4069672772                 88.4079024011
           2       21                 -8.1825276259                 -8.1825275984
           2       22                 24.7360634091                 24.7360638366
           2       23                 25.1059357480                 25.1058830389
           2       24                 44.7130699338                 44.7135845359
           2       25                 45.7820767284                 45.7820767082
           2       26                 52.0354671391                 52.0354687020
           2       27                 20.3051142073                 20.3051240484
           2       28                 85.2945006832                 85.2945007098
           2       29                115.0172456057                115.0172480134
           2       30                141.9674811003                141.9674811038

  Preparing densities etc. for the partition functions (integrals / Hartree potential).

  Preparations completed.
  max(cpu_time)          :      0.172 s.
  Wall clock time (cpu1) :      0.172 s.
------------------------------------------------------------

------------------------------------------------------------
          Begin self-consistency loop: Initialization.

          Date     :  20190817, Time     :  154220.845
------------------------------------------------------------

  Initializing index lists of integration centers etc. from given atomic structure:
  | Number of centers in hartree potential         :         2
  | Number of centers in hartree multipole         :         2
  | Number of centers in electron density summation:         2
  | Number of centers in basis integrals           :         2
  | Number of centers in integrals                 :         2
  | Number of centers in hamiltonian               :         2
  * Using 8 tasks for Scalapack Eigenvalue solver.
  Detailed listing of tasks and assigned k-points:
  (for non-periodic systems, the "k-point" denotes an internal label only)
   Task     0 k-point     1 on co1631
   Task     1 k-point     1 on co1631
   Task     2 k-point     1 on co1631
   Task     3 k-point     1 on co1631
   Task     4 k-point     1 on co1631
   Task     5 k-point     1 on co1631
   Task     6 k-point     1 on co1631
   Task     7 k-point     1 on co1631
  Tasks:     8 split into      4 X      2 BLACS grid
  Calculating block size based on n_basis =          110  max_nprow =            4  max_npcol =            2
  ScaLAPACK block size set to:           16
  Allocating        0.015 MB for ovlp
  Allocating        0.015 MB for ham
  Allocating        0.015 MB for eigenvec
  Required Scalapack workspace - INTEGER:            1  REAL:             1
  Partitioning the integration grid into batches with parallel hashing+maxmin method.
  | Number of batches:      570
  | Maximal batch size:     185
  | Minimal batch size:      49
  | Average batch size:      80.625
  | Standard deviation of batch sizes:      20.700

  Integration load balanced across     8 MPI tasks.
  Work distribution over tasks is as follows:
  Task     0 has       5747 integration points.
  Task     1 has       5695 integration points.
  Task     2 has       5771 integration points.
  Task     3 has       5776 integration points.
  Task     4 has       5725 integration points.
  Task     5 has       5768 integration points.
  Task     6 has       5724 integration points.
  Task     7 has       5750 integration points.
  Initializing partition tables, free-atom densities, potentials, etc. across the integration grid (initialize_grid_storage).
  | Species        1: outer_partition_radius set to             17.254520937451545 AA .
  | Species        2: outer_partition_radius set to             11.592603489656513 AA .
  | The sparse table of interatomic distances needs          0.04 kbyte instead of         0.03 kbyte of memory.
  | Using the partition_type stratmann_smoother will reduce your memory usage.
  | Net number of integration points:    45956
  | of which are non-zero points    :    43149
  Renormalizing the initial density to the exact electron count on the 3D integration grid.
  | Initial density: Formal number of electrons (from input files) :      14.0000000000
  | Integrated number of electrons on 3D grid     :      14.0000000801
  | Charge integration error                      :       0.0000000801
  | Normalization factor for density and gradient :       0.9999999943
  Renormalizing the free-atom superposition density to the exact electron count on the 3D integration grid.
  | Formal number of electrons (from input files) :      14.0000000000
  | Integrated number of electrons on 3D grid     :      14.0000000801
  | Charge integration error                      :       0.0000000801
  | Normalization factor for density and gradient :       0.9999999943
  Obtaining max. number of non-zero basis functions in each batch (get_n_compute_maxes).
  | Maximal number of non-zero basis functions:      110 in task     0
  | Maximal number of non-zero basis functions:      110 in task     1
  | Maximal number of non-zero basis functions:      110 in task     2
  | Maximal number of non-zero basis functions:      110 in task     3
  | Maximal number of non-zero basis functions:      110 in task     4
  | Maximal number of non-zero basis functions:      110 in task     5
  | Maximal number of non-zero basis functions:      110 in task     6
  | Maximal number of non-zero basis functions:      110 in task     7
  Selecting the method for density update.
  Loop over occupied states selected for charge density update.
  Allocating        0.092 MB for KS_eigenvector
  Integrating Hamiltonian matrix: batch-based integration.
  Time summed over all CPUs for integration: real work        0.120 s, elapsed        0.147 s
  Integrating overlap matrix.
  Time summed over all CPUs for integration: real work        0.068 s, elapsed        0.072 s
  Deallocating overlap matrix.

  Updating Kohn-Sham eigenvalues and eigenvectors using ELSI and the ELPA eigensolver.
  Overlap matrix is not singular
  | Lowest and highest eigenvalues :  0.8626E-04,  0.2000E+01
  Finished singularity check of overlap matrix
  | Time :     0.002 s
  Starting ELPA eigensolver
  Finished Cholesky decomposition
  | Time :     0.001 s
  Finished transformation to standard eigenproblem
  | Time :     0.000 s
  Finished solving standard eigenproblem
  | Time :     0.003 s
  Finished back-transformation of eigenvectors
  | Time :     0.000 s

  Obtaining occupation numbers and chemical potential using ELSI.
  | Chemical potential (Fermi level):    -8.68517744 eV
  Writing Kohn-Sham eigenvalues.

  State    Occupation    Eigenvalue [Ha]    Eigenvalue [eV]
      1       2.00000         -18.879687         -513.74241
      2       2.00000         -10.013134         -272.47124
      3       2.00000          -1.212801          -33.00201
      4       2.00000          -0.612558          -16.66854
      5       2.00000          -0.536341          -14.59458
      6       2.00000          -0.536341          -14.59458
      7       2.00000          -0.399119          -10.86059
      8       0.00000          -0.128982           -3.50977
      9       0.00000          -0.128982           -3.50977
     10       0.00000           0.035858            0.97574
     11       0.00000           0.085030            2.31379
     12       0.00000           0.089235            2.42821
     13       0.00000           0.089235            2.42821
     14       0.00000           0.143134            3.89487
     15       0.00000           0.164288            4.47051
     16       0.00000           0.164288            4.47051
     17       0.00000           0.206273            5.61297
     18       0.00000           0.206273            5.61297
     19       0.00000           0.317849            8.64911
     20       0.00000           0.350901            9.54851
     21       0.00000           0.350901            9.54851
     22       0.00000           0.416689           11.33869
     23       0.00000           0.416689           11.33869
     24       0.00000           0.474782           12.91947
     25       0.00000           0.557108           15.15968
     26       0.00000           0.564587           15.36318
     27       0.00000           0.564587           15.36318
     28       0.00000           0.656648           17.86829
     29       0.00000           0.753592           20.50629
     30       0.00000           0.818437           22.27081
     31       0.00000           0.818438           22.27082
     32       0.00000           0.859220           23.38057
     33       0.00000           0.859220           23.38057
     34       0.00000           0.976686           26.57699
     35       0.00000           0.976686           26.57699
     36       0.00000           0.978555           26.62784
     37       0.00000           1.222238           33.25880
     38       0.00000           1.222238           33.25880
     39       0.00000           1.248002           33.95985
     40       0.00000           1.248002           33.95985
     41       0.00000           1.291278           35.13747
     42       0.00000           1.291280           35.13753
     43       0.00000           1.516904           41.27706
     44       0.00000           1.603129           43.62336
     45       0.00000           1.603131           43.62341
     46       0.00000           1.668269           45.39591
     47       0.00000           1.668269           45.39591
     48       0.00000           1.703294           46.34898
     49       0.00000           1.827364           49.72512
     50       0.00000           1.827364           49.72512
     51       0.00000           1.864691           50.74081
     52       0.00000           2.064880           56.18824
     53       0.00000           2.309611           62.84771
     54       0.00000           2.309611           62.84771
     55       0.00000           2.532281           68.90687
     56       0.00000           2.532282           68.90691
     57       0.00000           2.599273           70.72983
     58       0.00000           2.635851           71.72515
     59       0.00000           2.635851           71.72515
     60       0.00000           2.868998           78.06942
     61       0.00000           3.146269           85.61433
     62       0.00000           3.146269           85.61434
     63       0.00000           3.334047           90.72403
     64       0.00000           3.334047           90.72403
     65       0.00000           3.362085           91.48699
     66       0.00000           3.362087           91.48705
     67       0.00000           3.696921          100.59834
     68       0.00000           3.696921          100.59834
     69       0.00000           3.754492          102.16492
     70       0.00000           3.881175          105.61214
     71       0.00000           3.881175          105.61214
     72       0.00000           4.025995          109.55289
     73       0.00000           4.025999          109.55302
     74       0.00000           4.306683          117.19082
     75       0.00000           4.508753          122.68942
     76       0.00000           4.508753          122.68942
     77       0.00000           4.688337          127.57614
     78       0.00000           4.688338          127.57617
     79       0.00000           4.931896          134.20371
     80       0.00000           4.931896          134.20371
     81       0.00000           5.069589          137.95053
     82       0.00000           5.069589          137.95053
     83       0.00000           5.304993          144.35620
     84       0.00000           5.304996          144.35629
     85       0.00000           5.331035          145.06485
     86       0.00000           5.464405          148.69403
     87       0.00000           5.690287          154.84059
     88       0.00000           5.690289          154.84064
     89       0.00000           5.885818          160.16125
     90       0.00000           5.885818          160.16125
     91       0.00000           5.901451          160.58665
     92       0.00000           5.901451          160.58665
     93       0.00000           6.297061          171.35176
     94       0.00000           6.465249          175.92837
     95       0.00000           6.465249          175.92837
     96       0.00000           6.849604          186.38720
     97       0.00000           7.007871          190.69388
     98       0.00000           7.007874          190.69396
     99       0.00000           7.265213          197.69650
    100       0.00000           7.772699          211.50590
    101       0.00000           7.772699          211.50590
    102       0.00000           8.391724          228.35042
    103       0.00000           8.391725          228.35045
    104       0.00000           8.537340          232.31283
    105       0.00000           8.650670          235.39671
    106       0.00000           8.650670          235.39671
    107       0.00000           9.777011          266.04600
    108       0.00000           9.777011          266.04600
    109       0.00000          23.405540          636.89716
    110       0.00000          35.114531          955.51500

  Highest occupied state (VBM) at    -10.86058756 eV
  | Occupation number:      2.00000000

  Lowest unoccupied state (CBM) at    -3.50977215 eV
  | Occupation number:      0.00000000

  Overall HOMO-LUMO gap:      7.35081542 eV.
  Calculating total energy contributions from superposition of free atom densities.

  Total energy components:
  | Sum of eigenvalues            :         -64.37996159 Ha       -1751.86788903 eV
  | XC energy correction          :         -12.81563880 Ha        -348.73127503 eV
  | XC potential correction       :          16.88541950 Ha         459.47564246 eV
  | Free-atom electrostatic energy:         -52.20318232 Ha       -1420.52086636 eV
  | Hartree energy correction     :           0.00000000 Ha           0.00000000 eV
  | Entropy correction            :           0.00000000 Ha           0.00000000 eV
  | ---------------------------
  | Total energy                  :        -112.51336322 Ha       -3061.64438796 eV
  | Total energy, T -> 0          :        -112.51336322 Ha       -3061.64438796 eV  <-- do not rely on this value for anything but (periodic) metals
  | Electronic free energy        :        -112.51336322 Ha       -3061.64438796 eV

  Derived energy quantities:
  | Kinetic energy                :         111.48287682 Ha        3033.60342630 eV
  | Electrostatic energy          :        -211.18060124 Ha       -5746.51653923 eV
  | Energy correction for multipole
  | error in Hartree potential    :           0.00000000 Ha           0.00000000 eV
  | Sum of eigenvalues per atom                           :        -875.93394451 eV
  | Total energy (T->0) per atom                          :       -1530.82219398 eV  <-- do not rely on this value for anything but (periodic) metals
  | Electronic free energy per atom                       :       -1530.82219398 eV
  Initialize hartree_potential_storage
  Max. number of atoms included in rho_multipole:            2

  End scf initialization - timings             :  max(cpu_time)    wall_clock(cpu1)
  | Time for scf. initialization               :        0.070 s           0.069 s
  | Boundary condition initialization          :        0.000 s           0.000 s
  | Integration                                :        0.029 s           0.029 s
  | Solution of K.-S. eqns.                    :        0.007 s           0.007 s
  | Grid partitioning                          :        0.013 s           0.013 s
  | Preloading free-atom quantities on grid    :        0.010 s           0.010 s
  | Free-atom superposition energy             :        0.004 s           0.004 s
  | Total energy evaluation                    :        0.000 s           0.000 s

  Partial memory accounting:
  | Current value for overall tracked memory usage:
  |   Minimum:        0.158 MB (on task 7)
  |   Maximum:        0.185 MB (on task 0)
  |   Average:        0.175 MB
  | Peak value for overall tracked memory usage:
  |   Minimum:        0.762 MB (on task 7 after allocating wave)
  |   Maximum:        0.790 MB (on task 0 after allocating wave)
  |   Average:        0.779 MB
  | Largest tracked array allocation so far:
  |   Minimum:        0.155 MB (H_times_psi on task 0)
  |   Maximum:        0.155 MB (H_times_psi on task 0)
  |   Average:        0.155 MB
  Note:  These values currently only include a subset of arrays which are explicitly tracked.
  The "true" memory usage will be greater.
------------------------------------------------------------

------------------------------------------------------------
          Begin self-consistency iteration #    1

  Date     :  20190817, Time     :  154220.915
------------------------------------------------------------
  Evaluating new KS density.
  Integration grid: deviation in total charge (<rho> - N_e) =  -5.329071E-15
  Pulay mixing of updated and previous charge densities.
  Renormalizing the density to the exact electron count on the 3D integration grid.
  | Formal number of electrons (from input files) :      14.0000000000
  | Integrated number of electrons on 3D grid     :      14.0000000000
  | Charge integration error                      :       0.0000000000
  | Normalization factor for density and gradient :       1.0000000000

  Evaluating partitioned Hartree potential by multipole expansion.
  | Original multipole sum: apparent total charge =   0.249052E-14
  | Sum of charges compensated after spline to logarithmic grids =   0.231608E-06
  | Analytical far-field extrapolation by fixed multipoles:
  | Hartree multipole sum: apparent total charge =   0.241673E-14
  Summing up the Hartree potential.
  Time summed over all CPUs for potential: real work        0.055 s, elapsed        0.056 s
  | RMS charge density error from multipole expansion :   0.531602E-03

  Integrating Hamiltonian matrix: batch-based integration.
  Time summed over all CPUs for integration: real work        0.115 s, elapsed        0.124 s

  Updating Kohn-Sham eigenvalues and eigenvectors using ELSI and the ELPA eigensolver.
  Starting ELPA eigensolver
  Finished transformation to standard eigenproblem
  | Time :     0.000 s
  Finished solving standard eigenproblem
  | Time :     0.001 s
  Finished back-transformation of eigenvectors
  | Time :     0.000 s

  Obtaining occupation numbers and chemical potential using ELSI.
  | Chemical potential (Fermi level):    -6.49293597 eV
  Writing Kohn-Sham eigenvalues.

  State    Occupation    Eigenvalue [Ha]    Eigenvalue [eV]
      1       2.00000         -18.786623         -511.21002
      2       2.00000          -9.979257         -271.54939
      3       2.00000          -1.161919          -31.61743
      4       2.00000          -0.569435          -15.49512
      5       2.00000          -0.497974          -13.55056
      6       2.00000          -0.497974          -13.55056
      7       2.00000          -0.380703          -10.35946
      8       0.00000          -0.107013           -2.91197
      9       0.00000          -0.107013           -2.91197
     10       0.00000           0.042051            1.14428
     11       0.00000           0.090604            2.46547
     12       0.00000           0.094463            2.57047
     13       0.00000           0.094463            2.57047
     14       0.00000           0.149223            4.06056
     15       0.00000           0.168144            4.57544
     16       0.00000           0.168144            4.57544
     17       0.00000           0.213028            5.79678
     18       0.00000           0.213028            5.79678
     19       0.00000           0.326266            8.87815
     20       0.00000           0.357193            9.71972
     21       0.00000           0.357193            9.71972
     22       0.00000           0.420690           11.44755
     23       0.00000           0.420690           11.44755
     24       0.00000           0.488287           13.28698
     25       0.00000           0.573114           15.59522
     26       0.00000           0.573507           15.60593
     27       0.00000           0.573507           15.60593
     28       0.00000           0.670505           18.24538
     29       0.00000           0.777132           21.14683
     30       0.00000           0.832666           22.65801
     31       0.00000           0.832667           22.65802
     32       0.00000           0.871476           23.71407
     33       0.00000           0.871476           23.71407
     34       0.00000           0.985458           26.81568
     35       0.00000           0.990873           26.96304
     36       0.00000           0.990873           26.96304
     37       0.00000           1.239285           33.72265
     38       0.00000           1.239285           33.72265
     39       0.00000           1.255359           34.16006
     40       0.00000           1.255359           34.16006
     41       0.00000           1.300871           35.39849
     42       0.00000           1.300873           35.39855
     43       0.00000           1.537764           41.84469
     44       0.00000           1.613504           43.90566
     45       0.00000           1.613505           43.90572
     46       0.00000           1.681074           45.74436
     47       0.00000           1.681074           45.74436
     48       0.00000           1.718932           46.77452
     49       0.00000           1.838526           50.02885
     50       0.00000           1.838526           50.02885
     51       0.00000           1.882669           51.23004
     52       0.00000           2.089880           56.86853
     53       0.00000           2.327085           63.32321
     54       0.00000           2.327085           63.32321
     55       0.00000           2.550180           69.39394
     56       0.00000           2.550182           69.39398
     57       0.00000           2.623157           71.37975
     58       0.00000           2.673931           72.76138
     59       0.00000           2.673931           72.76138
     60       0.00000           2.892857           78.71863
     61       0.00000           3.180283           86.53990
     62       0.00000           3.180283           86.53990
     63       0.00000           3.367168           91.62529
     64       0.00000           3.367168           91.62529
     65       0.00000           3.370712           91.72174
     66       0.00000           3.370714           91.72180
     67       0.00000           3.712014          101.00903
     68       0.00000           3.712014          101.00903
     69       0.00000           3.787054          103.05099
     70       0.00000           3.906257          106.29467
     71       0.00000           3.906257          106.29467
     72       0.00000           4.049634          110.19615
     73       0.00000           4.049639          110.19628
     74       0.00000           4.340321          118.10614
     75       0.00000           4.532202          123.32748
     76       0.00000           4.532202          123.32748
     77       0.00000           4.712785          128.24141
     78       0.00000           4.712786          128.24144
     79       0.00000           4.949993          134.69616
     80       0.00000           4.949993          134.69616
     81       0.00000           5.097373          138.70659
     82       0.00000           5.097373          138.70659
     83       0.00000           5.330718          145.05623
     84       0.00000           5.330722          145.05632
     85       0.00000           5.367557          146.05865
     86       0.00000           5.494893          149.52366
     87       0.00000           5.709761          155.37049
     88       0.00000           5.709762          155.37054
     89       0.00000           5.920377          161.10165
     90       0.00000           5.920377          161.10165
     91       0.00000           5.933918          161.47011
     92       0.00000           5.933918          161.47011
     93       0.00000           6.328467          172.20635
     94       0.00000           6.493713          176.70292
     95       0.00000           6.493713          176.70292
     96       0.00000           6.888991          187.45897
     97       0.00000           7.047125          191.76203
     98       0.00000           7.047128          191.76210
     99       0.00000           7.308232          198.86711
    100       0.00000           7.814319          212.63843
    101       0.00000           7.814319          212.63843
    102       0.00000           8.424366          229.23866
    103       0.00000           8.424367          229.23869
    104       0.00000           8.578759          233.43991
    105       0.00000           8.684324          236.31248
    106       0.00000           8.684324          236.31248
    107       0.00000           9.812483          267.01124
    108       0.00000           9.812483          267.01124
    109       0.00000          23.437781          637.77446
    110       0.00000          35.171230          957.05786

  Highest occupied state (VBM) at    -10.35946305 eV
  | Occupation number:      2.00000000

  Lowest unoccupied state (CBM) at    -2.91197315 eV
  | Occupation number:      0.00000000

  Overall HOMO-LUMO gap:      7.44748990 eV.

  Total energy components:
  | Sum of eigenvalues            :         -63.74776962 Ha       -1734.66507009 eV
  | XC energy correction          :         -12.88508945 Ha        -350.62112327 eV
  | XC potential correction       :          16.97708307 Ha         461.96993522 eV
  | Free-atom electrostatic energy:         -52.20318232 Ha       -1420.52086636 eV
  | Hartree energy correction     :          -0.63005930 Ha         -17.14478601 eV
  | Entropy correction            :           0.00000000 Ha           0.00000000 eV
  | ---------------------------
  | Total energy                  :        -112.48901762 Ha       -3060.98191050 eV
  | Total energy, T -> 0          :        -112.48901762 Ha       -3060.98191050 eV  <-- do not rely on this value for anything but (periodic) metals
  | Electronic free energy        :        -112.48901762 Ha       -3060.98191050 eV

  Derived energy quantities:
  | Kinetic energy                :         111.90471786 Ha        3045.08230496 eV
  | Electrostatic energy          :        -211.50864603 Ha       -5755.44309220 eV
  | Energy correction for multipole
  | error in Hartree potential    :          -0.00041768 Ha          -0.01136570 eV
  | Sum of eigenvalues per atom                           :        -867.33253505 eV
  | Total energy (T->0) per atom                          :       -1530.49095525 eV  <-- do not rely on this value for anything but (periodic) metals
  | Electronic free energy per atom                       :       -1530.49095525 eV

  Self-consistency convergence accuracy:
  | Change of charge density      :  0.2707E+00
  | Change of sum of eigenvalues  :  0.1720E+02 eV
  | Change of total energy        :  0.6625E+00 eV

  End self-consistency iteration #     1       :  max(cpu_time)    wall_clock(cpu1)
  | Time for this iteration                    :        0.038 s           0.038 s
  | Charge density update                      :        0.008 s           0.008 s
  | Density mixing                             :        0.000 s           0.000 s
  | Hartree multipole update                   :        0.002 s           0.002 s
  | Hartree multipole summation                :        0.008 s           0.008 s
  | Integration                                :        0.016 s           0.016 s
  | Solution of K.-S. eqns.                    :        0.003 s           0.003 s
  | Total energy evaluation                    :        0.000 s           0.000 s

  Partial memory accounting:
  | Current value for overall tracked memory usage:
  |   Minimum:        0.158 MB (on task 7)
  |   Maximum:        0.185 MB (on task 0)
  |   Average:        0.175 MB
  | Peak value for overall tracked memory usage:
  |   Minimum:        0.762 MB (on task 7 after allocating wave)
  |   Maximum:        0.790 MB (on task 0 after allocating wave)
  |   Average:        0.779 MB
  | Largest tracked array allocation so far:
  |   Minimum:        0.155 MB (H_times_psi on task 0)
  |   Maximum:        0.155 MB (H_times_psi on task 0)
  |   Average:        0.155 MB
  Note:  These values currently only include a subset of arrays which are explicitly tracked.
  The "true" memory usage will be greater.
------------------------------------------------------------

------------------------------------------------------------
          Begin self-consistency iteration #    2

  Date     :  20190817, Time     :  154220.953
------------------------------------------------------------
  Evaluating new KS density.
  Integration grid: deviation in total charge (<rho> - N_e) =  -7.105427E-15
  Pulay mixing of updated and previous charge densities.
  Renormalizing the density to the exact electron count on the 3D integration grid.
  | Formal number of electrons (from input files) :      14.0000000000
  | Integrated number of electrons on 3D grid     :      14.0000000000
  | Charge integration error                      :       0.0000000000
  | Normalization factor for density and gradient :       1.0000000000

  Evaluating partitioned Hartree potential by multipole expansion.
  | Original multipole sum: apparent total charge =   0.104848E-13
  | Sum of charges compensated after spline to logarithmic grids =   0.448632E-06
  | Analytical far-field extrapolation by fixed multipoles:
  | Hartree multipole sum: apparent total charge =   0.103311E-13
  Summing up the Hartree potential.
  Time summed over all CPUs for potential: real work        0.056 s, elapsed        0.057 s
  | RMS charge density error from multipole expansion :   0.129834E-02

  Integrating Hamiltonian matrix: batch-based integration.
  Time summed over all CPUs for integration: real work        0.116 s, elapsed        0.122 s

  Updating Kohn-Sham eigenvalues and eigenvectors using ELSI and the ELPA eigensolver.
  Starting ELPA eigensolver
  Finished transformation to standard eigenproblem
  | Time :     0.000 s
  Finished solving standard eigenproblem
  | Time :     0.002 s
  Finished back-transformation of eigenvectors
  | Time :     0.000 s

  Obtaining occupation numbers and chemical potential using ELSI.
  | Chemical potential (Fermi level):    -4.79354493 eV
  Highest occupied state (VBM) at     -9.49750796 eV
  | Occupation number:      2.00000000

  Lowest unoccupied state (CBM) at    -2.17602618 eV
  | Occupation number:      0.00000000

  Overall HOMO-LUMO gap:      7.32148178 eV.

  Checking to see if s.c.f. parameters should be adjusted.

  Total energy components:
  | Sum of eigenvalues            :         -63.09902698 Ha       -1717.01188465 eV
  | XC energy correction          :         -12.95764780 Ha        -352.59553650 eV
  | XC potential correction       :          17.07277127 Ha         464.57374354 eV
  | Free-atom electrostatic energy:         -52.20318232 Ha       -1420.52086636 eV
  | Hartree energy correction     :          -1.28819933 Ha         -35.05368729 eV
  | Entropy correction            :           0.00000000 Ha           0.00000000 eV
  | ---------------------------
  | Total energy                  :        -112.47528516 Ha       -3060.60823126 eV
  | Total energy, T -> 0          :        -112.47528516 Ha       -3060.60823126 eV  <-- do not rely on this value for anything but (periodic) metals
  | Electronic free energy        :        -112.47528516 Ha       -3060.60823126 eV

  Derived energy quantities:
  | Kinetic energy                :         112.23029860 Ha        3053.94180776 eV
  | Electrostatic energy          :        -211.74793596 Ha       -5761.95450253 eV
  | Energy correction for multipole
  | error in Hartree potential    :          -0.00096564 Ha          -0.02627631 eV
  | Sum of eigenvalues per atom                           :        -858.50594233 eV
  | Total energy (T->0) per atom                          :       -1530.30411563 eV  <-- do not rely on this value for anything but (periodic) metals
  | Electronic free energy per atom                       :       -1530.30411563 eV

  Self-consistency convergence accuracy:
  | Change of charge density      :  0.1791E+00
  | Change of sum of eigenvalues  :  0.1765E+02 eV
  | Change of total energy        :  0.3737E+00 eV

  End self-consistency iteration #     2       :  max(cpu_time)    wall_clock(cpu1)
  | Time for this iteration                    :        0.037 s           0.037 s
  | Charge density update                      :        0.008 s           0.008 s
  | Density mixing                             :        0.000 s           0.000 s
  | Hartree multipole update                   :        0.002 s           0.002 s
  | Hartree multipole summation                :        0.007 s           0.007 s
  | Integration                                :        0.016 s           0.016 s
  | Solution of K.-S. eqns.                    :        0.004 s           0.004 s
  | Total energy evaluation                    :        0.000 s           0.000 s

  Partial memory accounting:
  | Current value for overall tracked memory usage:
  |   Minimum:        0.158 MB (on task 7)
  |   Maximum:        0.186 MB (on task 0)
  |   Average:        0.175 MB
  | Peak value for overall tracked memory usage:
  |   Minimum:        0.762 MB (on task 7 after allocating wave)
  |   Maximum:        0.790 MB (on task 0 after allocating wave)
  |   Average:        0.779 MB
  | Largest tracked array allocation so far:
  |   Minimum:        0.155 MB (H_times_psi on task 0)
  |   Maximum:        0.155 MB (H_times_psi on task 0)
  |   Average:        0.155 MB
  Note:  These values currently only include a subset of arrays which are explicitly tracked.
  The "true" memory usage will be greater.
------------------------------------------------------------

------------------------------------------------------------
          Begin self-consistency iteration #    3

  Date     :  20190817, Time     :  154220.990
------------------------------------------------------------
  Evaluating new KS density.
  Integration grid: deviation in total charge (<rho> - N_e) =   0.000000E+00
  Pulay mixing of updated and previous charge densities.
  Renormalizing the density to the exact electron count on the 3D integration grid.
  | Formal number of electrons (from input files) :      14.0000000000
  | Integrated number of electrons on 3D grid     :      14.0000000000
  | Charge integration error                      :      -0.0000000000
  | Normalization factor for density and gradient :       1.0000000000

  Evaluating partitioned Hartree potential by multipole expansion.
  | Original multipole sum: apparent total charge =  -0.187558E-15
  | Sum of charges compensated after spline to logarithmic grids =   0.659142E-06
  | Analytical far-field extrapolation by fixed multipoles:
  | Hartree multipole sum: apparent total charge =  -0.341294E-15
  Summing up the Hartree potential.
  Time summed over all CPUs for potential: real work        0.056 s, elapsed        0.056 s
  | RMS charge density error from multipole expansion :   0.210693E-02

  Integrating Hamiltonian matrix: batch-based integration.
  Time summed over all CPUs for integration: real work        0.115 s, elapsed        0.132 s

  Updating Kohn-Sham eigenvalues and eigenvectors using ELSI and the ELPA eigensolver.
  Starting ELPA eigensolver
  Finished transformation to standard eigenproblem
  | Time :     0.000 s
  Finished solving standard eigenproblem
  | Time :     0.002 s
  Finished back-transformation of eigenvectors
  | Time :     0.000 s

  Obtaining occupation numbers and chemical potential using ELSI.
  | Chemical potential (Fermi level):    -4.36747443 eV
  Highest occupied state (VBM) at     -8.82325640 eV
  | Occupation number:      2.00000000

  Lowest unoccupied state (CBM) at    -1.74407569 eV
  | Occupation number:      0.00000000

  Overall HOMO-LUMO gap:      7.07918072 eV.

  Total energy components:
  | Sum of eigenvalues            :         -62.77202260 Ha       -1708.11364294 eV
  | XC energy correction          :         -12.99438060 Ha        -353.59508673 eV
  | XC potential correction       :          17.12112702 Ha         465.88957030 eV
  | Free-atom electrostatic energy:         -52.20318232 Ha       -1420.52086636 eV
  | Hartree energy correction     :          -1.62420711 Ha         -44.19692423 eV
  | Entropy correction            :           0.00000000 Ha           0.00000000 eV
  | ---------------------------
  | Total energy                  :        -112.47266562 Ha       -3060.53694996 eV
  | Total energy, T -> 0          :        -112.47266562 Ha       -3060.53694996 eV  <-- do not rely on this value for anything but (periodic) metals
  | Electronic free energy        :        -112.47266562 Ha       -3060.53694996 eV

  Derived energy quantities:
  | Kinetic energy                :         112.23910502 Ha        3054.18144263 eV
  | Electrostatic energy          :        -211.71739005 Ha       -5761.12330585 eV
  | Energy correction for multipole
  | error in Hartree potential    :          -0.00140821 Ha          -0.03831923 eV
  | Sum of eigenvalues per atom                           :        -854.05682147 eV
  | Total energy (T->0) per atom                          :       -1530.26847498 eV  <-- do not rely on this value for anything but (periodic) metals
  | Electronic free energy per atom                       :       -1530.26847498 eV

  Self-consistency convergence accuracy:
  | Change of charge density      :  0.9350E-01
  | Change of sum of eigenvalues  :  0.8898E+01 eV
  | Change of total energy        :  0.7128E-01 eV

  End self-consistency iteration #     3       :  max(cpu_time)    wall_clock(cpu1)
  | Time for this iteration                    :        0.037 s           0.038 s
  | Charge density update                      :        0.007 s           0.007 s
  | Density mixing                             :        0.001 s           0.001 s
  | Hartree multipole update                   :        0.002 s           0.002 s
  | Hartree multipole summation                :        0.007 s           0.007 s
  | Integration                                :        0.017 s           0.017 s
  | Solution of K.-S. eqns.                    :        0.003 s           0.003 s
  | Total energy evaluation                    :        0.000 s           0.000 s

  Partial memory accounting:
  | Current value for overall tracked memory usage:
  |   Minimum:        0.158 MB (on task 7)
  |   Maximum:        0.186 MB (on task 0)
  |   Average:        0.175 MB
  | Peak value for overall tracked memory usage:
  |   Minimum:        0.762 MB (on task 7 after allocating wave)
  |   Maximum:        0.790 MB (on task 0 after allocating wave)
  |   Average:        0.779 MB
  | Largest tracked array allocation so far:
  |   Minimum:        0.155 MB (H_times_psi on task 0)
  |   Maximum:        0.155 MB (H_times_psi on task 0)
  |   Average:        0.155 MB
  Note:  These values currently only include a subset of arrays which are explicitly tracked.
  The "true" memory usage will be greater.
------------------------------------------------------------

------------------------------------------------------------
          Begin self-consistency iteration #    4

  Date     :  20190817, Time     :  154221.028
------------------------------------------------------------
  Evaluating new KS density.
  Integration grid: deviation in total charge (<rho> - N_e) =   0.000000E+00
  Pulay mixing of updated and previous charge densities.
  Renormalizing the density to the exact electron count on the 3D integration grid.
  | Formal number of electrons (from input files) :      14.0000000000
  | Integrated number of electrons on 3D grid     :      14.0000000000
  | Charge integration error                      :       0.0000000000
  | Normalization factor for density and gradient :       1.0000000000

  Evaluating partitioned Hartree potential by multipole expansion.
  | Original multipole sum: apparent total charge =   0.275802E-13
  | Sum of charges compensated after spline to logarithmic grids =   0.725849E-06
  | Analytical far-field extrapolation by fixed multipoles:
  | Hartree multipole sum: apparent total charge =   0.276848E-13
  Summing up the Hartree potential.
  Time summed over all CPUs for potential: real work        0.058 s, elapsed        0.060 s
  | RMS charge density error from multipole expansion :   0.244033E-02

  Integrating Hamiltonian matrix: batch-based integration.
  Time summed over all CPUs for integration: real work        0.116 s, elapsed        0.126 s

  Updating Kohn-Sham eigenvalues and eigenvectors using ELSI and the ELPA eigensolver.
  Starting ELPA eigensolver
  Finished transformation to standard eigenproblem
  | Time :     0.000 s
  Finished solving standard eigenproblem
  | Time :     0.002 s
  Finished back-transformation of eigenvectors
  | Time :     0.000 s

  Obtaining occupation numbers and chemical potential using ELSI.
  | Chemical potential (Fermi level):    -4.81879812 eV
  Highest occupied state (VBM) at     -9.05394249 eV
  | Occupation number:      2.00000000

  Lowest unoccupied state (CBM) at    -1.96495704 eV
  | Occupation number:      0.00000000

  Overall HOMO-LUMO gap:      7.08898546 eV.

  Total energy components:
  | Sum of eigenvalues            :         -62.93671208 Ha       -1712.59507159 eV
  | XC energy correction          :         -12.97308406 Ha        -353.01557853 eV
  | XC potential correction       :          17.09297362 Ha         465.12347731 eV
  | Free-atom electrostatic energy:         -52.20318232 Ha       -1420.52086636 eV
  | Hartree energy correction     :          -1.45223878 Ha         -39.51742780 eV
  | Entropy correction            :           0.00000000 Ha           0.00000000 eV
  | ---------------------------
  | Total energy                  :        -112.47224363 Ha       -3060.52546697 eV
  | Total energy, T -> 0          :        -112.47224363 Ha       -3060.52546697 eV  <-- do not rely on this value for anything but (periodic) metals
  | Electronic free energy        :        -112.47224363 Ha       -3060.52546697 eV

  Derived energy quantities:
  | Kinetic energy                :         111.99337507 Ha        3047.49479043 eV
  | Electrostatic energy          :        -211.49253464 Ha       -5755.00467887 eV
  | Energy correction for multipole
  | error in Hartree potential    :          -0.00145823 Ha          -0.03968034 eV
  | Sum of eigenvalues per atom                           :        -856.29753579 eV
  | Total energy (T->0) per atom                          :       -1530.26273348 eV  <-- do not rely on this value for anything but (periodic) metals
  | Electronic free energy per atom                       :       -1530.26273348 eV

  Self-consistency convergence accuracy:
  | Change of charge density      :  0.2891E-01
  | Change of sum of eigenvalues  : -0.4481E+01 eV
  | Change of total energy        :  0.1148E-01 eV

  End self-consistency iteration #     4       :  max(cpu_time)    wall_clock(cpu1)
  | Time for this iteration                    :        0.038 s           0.038 s
  | Charge density update                      :        0.008 s           0.008 s
  | Density mixing                             :        0.001 s           0.000 s
  | Hartree multipole update                   :        0.002 s           0.003 s
  | Hartree multipole summation                :        0.008 s           0.007 s
  | Integration                                :        0.016 s           0.016 s
  | Solution of K.-S. eqns.                    :        0.003 s           0.004 s
  | Total energy evaluation                    :        0.000 s           0.000 s

  Partial memory accounting:
  | Current value for overall tracked memory usage:
  |   Minimum:        0.158 MB (on task 7)
  |   Maximum:        0.186 MB (on task 0)
  |   Average:        0.175 MB
  | Peak value for overall tracked memory usage:
  |   Minimum:        0.762 MB (on task 7 after allocating wave)
  |   Maximum:        0.790 MB (on task 0 after allocating wave)
  |   Average:        0.779 MB
  | Largest tracked array allocation so far:
  |   Minimum:        0.155 MB (H_times_psi on task 0)
  |   Maximum:        0.155 MB (H_times_psi on task 0)
  |   Average:        0.155 MB
  Note:  These values currently only include a subset of arrays which are explicitly tracked.
  The "true" memory usage will be greater.
------------------------------------------------------------

------------------------------------------------------------
          Begin self-consistency iteration #    5

  Date     :  20190817, Time     :  154221.067
------------------------------------------------------------
  Evaluating new KS density.
  Integration grid: deviation in total charge (<rho> - N_e) =  -8.881784E-15
  Pulay mixing of updated and previous charge densities.
  Renormalizing the density to the exact electron count on the 3D integration grid.
  | Formal number of electrons (from input files) :      14.0000000000
  | Integrated number of electrons on 3D grid     :      14.0000000000
  | Charge integration error                      :      -0.0000000000
  | Normalization factor for density and gradient :       1.0000000000

  Evaluating partitioned Hartree potential by multipole expansion.
  | Original multipole sum: apparent total charge =   0.184237E-13
  | Sum of charges compensated after spline to logarithmic grids =   0.724781E-06
  | Analytical far-field extrapolation by fixed multipoles:
  | Hartree multipole sum: apparent total charge =   0.184422E-13
  Summing up the Hartree potential.
  Time summed over all CPUs for potential: real work        0.055 s, elapsed        0.056 s
  | RMS charge density error from multipole expansion :   0.243789E-02

  Integrating Hamiltonian matrix: batch-based integration.
  Time summed over all CPUs for integration: real work        0.119 s, elapsed        0.149 s

  Updating Kohn-Sham eigenvalues and eigenvectors using ELSI and the ELPA eigensolver.
  Starting ELPA eigensolver
  Finished transformation to standard eigenproblem
  | Time :     0.000 s
  Finished solving standard eigenproblem
  | Time :     0.002 s
  Finished back-transformation of eigenvectors
  | Time :     0.000 s

  Obtaining occupation numbers and chemical potential using ELSI.
[...]
     40       0.00000           1.896944           51.61846
     41       0.00000           1.896948           51.61858
     42       0.00000           1.938065           52.73744
     43       0.00000           1.982218           53.93890
     44       0.00000           1.982218           53.93890
     45       0.00000           2.008843           54.66339
     46       0.00000           2.008843           54.66339
     47       0.00000           2.131133           57.99107
     48       0.00000           2.156540           58.68244
     49       0.00000           2.156540           58.68244
     50       0.00000           2.222435           60.47552
     51       0.00000           2.643984           71.94646
     52       0.00000           2.693144           73.28418
     53       0.00000           2.693144           73.28418
     54       0.00000           2.752793           74.90732
     55       0.00000           2.752795           74.90736
     56       0.00000           2.912779           79.26075
     57       0.00000           2.919708           79.44930
     58       0.00000           2.919708           79.44930
     59       0.00000           3.321136           90.37271
     60       0.00000           3.331988           90.66800
     61       0.00000           3.331989           90.66802
     62       0.00000           3.749280          102.02310
     63       0.00000           3.749280          102.02310
     64       0.00000           3.868497          105.26717
     65       0.00000           3.868500          105.26724
     66       0.00000           4.185299          113.88778
     67       0.00000           4.185299          113.88778
     68       0.00000           4.904590          133.46070
     69       0.00000           4.999452          136.04200
     70       0.00000           4.999453          136.04204
     71       0.00000           5.033805          136.97682
     72       0.00000           5.033805          136.97682
     73       0.00000           5.420861          147.50913
     74       0.00000           5.420864          147.50922
     75       0.00000           5.451807          148.35121
     76       0.00000           5.639700          153.46404
     77       0.00000           5.639700          153.46404
     78       0.00000           5.677628          154.49612
     79       0.00000           5.677628          154.49612
     80       0.00000           6.008975          163.51252
     81       0.00000           6.015633          163.69372
     82       0.00000           6.345555          172.67133
     83       0.00000           6.345559          172.67145
     84       0.00000           6.498047          176.82086
     85       0.00000           6.498052          176.82100
     86       0.00000           6.662868          181.30587
     87       0.00000           6.662868          181.30587
     88       0.00000           6.700771          182.33726
     89       0.00000           6.700771          182.33726
     90       0.00000           7.307744          198.85383
     91       0.00000           7.307744          198.85383
     92       0.00000           7.619545          207.33837
     93       0.00000           7.791308          212.01228
     94       0.00000           7.898771          214.93650
     95       0.00000           7.898771          214.93650
     96       0.00000           7.954396          216.45014
     97       0.00000           7.954401          216.45025
     98       0.00000           8.724752          237.41258
     99       0.00000           8.724755          237.41267
    100       0.00000           8.919005          242.69846
    101       0.00000           9.521058          259.08117
    102       0.00000           9.521058          259.08117
    103       0.00000          10.683312          290.70771
    104       0.00000          10.683312          290.70771
    105       0.00000          10.942366          297.75694
    106       0.00000          10.942366          297.75694
    107       0.00000          11.998404          326.49320
    108       0.00000          12.833221          349.20971
    109       0.00000          34.901799          949.72627
    110       0.00000          59.548443         1620.39558

  Highest occupied state (VBM) at     -9.20377962 eV
  | Occupation number:      1.33332761

  Lowest unoccupied state (CBM) at     0.91731390 eV
  | Occupation number:      0.00000000

  Overall HOMO-LUMO gap:     10.12109352 eV.
  This system has fractional occupation numbers. Thus, it is a degenerate system
  within the approximate finite broadening function (occupation_type)
  applied to determine the occupation numbers.
  This may not be harmful. However, for some systems (free atoms), a different, non-degenerate
  ground state might exist by using a smaller broadening (see keyword occupation_type).

  Self-consistency cycle converged.

  End self-consistency iteration #     5       :  max(cpu_time)    wall_clock(cpu1)
  | Time for this iteration                    :        0.036 s           0.036 s
  | Charge density update                      :        0.007 s           0.007 s
  | Density mixing                             :        0.001 s           0.000 s
  | Hartree multipole update                   :        0.002 s           0.002 s
  | Hartree multipole summation                :        0.007 s           0.008 s
  | Integration                                :        0.015 s           0.015 s
  | Solution of K.-S. eqns.                    :        0.003 s           0.003 s
  | Total energy evaluation                    :        0.000 s           0.000 s

  Partial memory accounting:
  | Current value for overall tracked memory usage:
  |   Minimum:        0.158 MB (on task 7)
  |   Maximum:        0.186 MB (on task 0)
  |   Average:        0.175 MB
  | Peak value for overall tracked memory usage:
  |   Minimum:        0.762 MB (on task 7 after allocating wave)
  |   Maximum:        0.790 MB (on task 0 after allocating wave)
  |   Average:        0.779 MB
  | Largest tracked array allocation so far:
  |   Minimum:        0.155 MB (H_times_psi on task 0)
  |   Maximum:        0.155 MB (H_times_psi on task 0)
  |   Average:        0.155 MB
  Note:  These values currently only include a subset of arrays which are explicitly tracked.
  The "true" memory usage will be greater.
------------------------------------------------------------

  Energy and forces in a compact form:
  | Total energy uncorrected      :         -0.202645044544930E+04 eV
  | Total energy corrected        :         -0.202648901102927E+04 eV  <-- do not rely on this value for anything but (periodic) metals
  | Electronic free energy        :         -0.202652757660924E+04 eV

  ------------------------------------ 
  Start decomposition of the XC Energy 
  ------------------------------------ 
  X and C from original XC functional choice 
  Hartree-Fock Energy :          0.000000000 Ha              0.000000000 eV
  X Energy            :         -7.219893566 Ha           -196.463299880 eV
  C Energy            :         -0.545940720 Ha            -14.855802853 eV
  Total XC Energy     :         -7.765834287 Ha           -211.319102734 eV
  ------------------------------------ 
  LDA X and C from self-consistent density 
  X Energy LDA        :         -7.219893566 Ha           -196.463299880 eV
  C Energy LDA        :         -0.545940720 Ha            -14.855802853 eV
  ------------------------------------ 
  End decomposition of the XC Energy 
  ------------------------------------ 

------------------------------------------------------------

--------------------------------------------
          RPA total energy calculation starts ...

  The ovlp_3KS matrix takes another      1 MiB x      8 procs =       0.008 GiB.


  Initialising transformed Gauss-Legendre time and frequency grids
  Number of frequency points for self energy.....: 40
  Number of frequency points....................: 40
 
  Starts to calculate the exchange energy ...
 
  Integrating the xc potential matrix  for basis functions ...
 
  Starts to calculate the single excitation correction ...
 
  | Single excitation contribution to the correlation energy:  -0.02101142 Ha   -0.57174979 eV
  | Renormalized single excitation contribution (diag) to the correlation energy:  -0.01807898 Ha   -0.49195411  eV
 
 
  Starts to calculate the renormalized single excitation (full) correction ...
  Diagonalizing the RSE-HF-Occ matrix  and checking for singularities.
 
  Diagonalizing the RSE-HF-Unocc matrix  and checking for singularities.
 
 
  | Renormalized single excitation contribution (full) to the correlation energy:  -0.43870918  eV
 
 
 ----------------------------------------------------------------------
  Start to calculate the RPA correlation energy  ... 
  HOMO and first non-fully-occupied orbitals:    5    3
 
 | i_freq    1            0.000441
 | i_freq    2            0.002329
 | i_freq    3            0.005750
 | i_freq    4            0.010747
 | i_freq    5            0.017381
 | i_freq    6            0.025735
 | i_freq    7            0.035917
 | i_freq    8            0.048062
 | i_freq    9            0.062333
 | i_freq   10            0.078932
 | i_freq   11            0.098102
 | i_freq   12            0.120134
 | i_freq   13            0.145383
 | i_freq   14            0.174274
 | i_freq   15            0.207324
 | i_freq   16            0.245160
 | i_freq   17            0.288549
 | i_freq   18            0.338436
 | i_freq   19            0.395990
 | i_freq   20            0.462675
 | i_freq   21            0.540336
 | i_freq   22            0.631329
 | i_freq   23            0.738693
 | i_freq   24            0.866404
 | i_freq   25            1.019743
 | i_freq   26            1.205842
 | i_freq   27            1.434520
 | i_freq   28            1.719594
 | i_freq   29            2.081004
 | i_freq   30            2.548378
 | i_freq   31            3.167279
 | i_freq   32            4.010715
 | i_freq   33            5.201652
 | i_freq   34            6.960432
 | i_freq   35            9.714380
 | i_freq   36           14.383789
 | i_freq   37           23.262462
 | i_freq   38           43.475277
 | i_freq   39          107.331113
 | i_freq   40          566.943404
 
 ------------------------------------------------------------------------------
    RPA correlation energy :          -0.29755115  Ha,        -8.09677876  eV
 
 --------------------------------------------------------------------
    Exact exchange energy             :           -7.57648359 Ha,        -206.16660821 eV
    DFT/HF exchange energy            :           -7.21989357 Ha,        -196.46329988 eV
 
    DFT/HF total energy               :          -74.47068507 Ha,       -2026.45044545 eV
    Exchange-only total energy        :          -74.28133438 Ha,       -2021.29795093 eV
    RPA total energy                  :          -74.57888553 Ha,       -2029.39472969 eV
 
    RPA+SE total energy               :          -74.59989695 Ha,       -2029.96647947 eV
    RPA+rSE (diag) total energy       :          -74.59696451 Ha,       -2029.88668380 eV
    RPA+rSE total energy              :          -74.59500779 Ha,       -2029.83343886 eV
 
    RPA+ total energy                 :          -74.42308400 Ha,       -2025.15515438 eV
 
 ----------------------------------------------------------------------------
 
  Total time taken for the last BSSE step              :        0.471 s

------------------------------------------------------------

    RPA total energy full structure:        -3085.74450433 eV
    RPA total energy for atom=        1       -1020.96339246 eV
    RPA total energy for atom=        2       -2029.39472969 eV
    BSSE-corrected RPA atomization energy:          -35.38638219 eV
    RPA+SE total energy full structure:        -3086.63452109 eV
    RPA+SE total energy for atom=        1       -1021.89021234 eV
    RPA+SE total energy for atom=        2       -2029.96647947 eV
    BSSE-corrected RPA+SE atomization energy:          -34.77782928 eV
  |------------------------------------------------------
  | Final ELSI Output
  |------------------------------------------------------
  |
  | Physical Properties
  |   Number of electrons       :        0.14000000E+02
  |   Number of spins           :                     1
  |   Number of k-points        :                     1
  |   Number of states          :                   110
  |
  | Matrix Properties
  |   Matrix format             :           BLACS_DENSE
  |   Number of basis functions :                   110
  |   Matrix sparsity           :        0.77950413E+00
  |
  | Computational Details
  |   Parallel mode             :            MULTI_PROC
  |   Number of MPI tasks       :                     8
  |   Solver requested          :                  ELPA
  |   Number of ELSI calls      :                    27
  |
  |------------------------------------------------------
  | ELSI Project (c)  elsi-interchange.org
  |------------------------------------------------------

  Final total energy output will not be written in atomization BSSE run.
  A listing of the relevant total energies for all subsystems can be found above.
  Methods described in the following list of references were used in this FHI-aims run.
  If you publish the results, please make sure to cite these reference if they apply.
  FHI-aims is an academic code, and for our developers (often, Ph.D. students
  and postdocs), scientific credit in the community is essential.
  Thank you for helping us!

  For any use of FHI-aims, please cite:

    Volker Blum, Ralf Gehrke, Felix Hanke, Paula Havu, Ville Havu,
    Xinguo Ren, Karsten Reuter, and Matthias Scheffler
    'Ab initio molecular simulations with numeric atom-centered orbitals'
    Computer Physics Communications 180, 2175-2196 (2009)
    http://dx.doi.org/10.1016/j.cpc.2009.06.022


  For Hartree-Fock, hybrid functionals, or many-body perturbation theory used in your run, please cite:

    Xinguo Ren, Patrick Rinke, Volker Blum, Juergen Wieferink, Alex Tkatchenko,
    Andrea Sanfilippo, Karsten Reuter, and Matthias Scheffler,
    'Resolution-of-identity approach to Hartree-Fock, hybrid density functionals,
    RPA, MP2, and GW with numeric atom-centered orbital basis functions'
    New Journal of Physics 14, 053020 (2012).
    http://dx.doi.org/10.1088/1367-2630/14/5/053020


  The ELSI infrastructure was used in your run to solve the Kohn-Sham electronic structure.
  Please check out http://elsi-interchange.org to learn more.
  If scalability is important for your project, please acknowledge ELSI by citing:

    V. W-z. Yu, F. Corsetti, A. Garcia, W. P. Huhn, M. Jacquelin, W. Jia,
    B. Lange, L. Lin, J. Lu, W. Mi, A. Seifitokaldani, A. Vazquez-Mayagoitia,
    C. Yang, H. Yang, and V. Blum
    'ELSI: A unified software interface for Kohn-Sham electronic structure solvers'
    Computer Physics Communications 222, 267-285 (2018).
    http://dx.doi.org/10.1016/j.cpc.2017.09.007


  For the real-space grid partitioning and parallelization used in this calculation, please cite:

    Ville Havu, Volker Blum, Paula Havu, and Matthias Scheffler,
    'Efficient O(N) integration for all-electron electronic structure calculation'
    'using numerically tabulated basis functions'
    Journal of Computational Physics 228, 8367-8379 (2009).
    http://dx.doi.org/10.1016/j.jcp.2009.08.008

  Of course, there are many other important community references, e.g., those cited in the
  above references. Our list is limited to references that describe implementations in the
  FHI-aims code. The reason is purely practical (length of this list) - please credit others as well.

 * Warning - angular integration grids had to be adjusted for use with RI_method 'V'.
 * Background: You are using an electronic structure method that requires RI_method 'V'
 * for the resolution of identity of the Coulomb operator. (See Ren et al.,
 * New J. Phys 2012 for details.) This method requires three-center integrations
 * to be carried out on FHI-aims' normal angular and radial integration grids.
 * (See FHI-aims CPC Blum et al. 2009, p. 2183 for grid details and references.)
 * One of the angular grids specified in your control.in file was not large
 * enough for the maximal angular momenta of orbital and product basis functions
 * for its species.
 * This can lead to atomic total energy errors which cancel in energy differences.
 * Effective Sep 22, 2014, we have changed the default behavior of the code to
 * simply 'upgrade' the angular grids internally to a safe setting in this case.
 * Please be sure to NOT mix total energies from before and after the change.

------------------------------------------------------------
          Leaving FHI-aims.
          Date     :  20190817, Time     :  154224.498

          Computational steps:
          | Number of self-consistency cycles          :           24
          | Number of SCF (re)initializations          :            3
          | Total number of per-atom bsse calculation steps done   :            2

          Detailed time accounting                     :  max(cpu_time)    wall_clock(cpu1)
          | Total time                                 :        3.874 s           3.902 s
          | Preparation time                           :        0.172 s           0.172 s
          | Boundary condition initalization           :        0.000 s           0.000 s
          | Grid partitioning                          :        0.036 s           0.037 s
          | Preloading free-atom quantities on grid    :        0.019 s           0.018 s
          | Free-atom superposition energy             :        0.011 s           0.010 s
          | Total time for integrations                :        0.416 s           0.416 s
          | Product basis setup: Total time            :        0.000 s           0.000 s
          | Product basis: | 3-center integrations     :(       1.435 s)  (       1.435 s)
          | Product basis: | 2-center integrations     :(       0.087 s)  (       0.088 s)
          | Product basis: | 2-center linear algebra   :(       0.024 s)  (       0.024 s)
          | Product basis: | 3-center x 2-center       :(       0.026 s)  (       0.026 s)
          | Transforming ovlp_3fn to ovlp_3KS          :        0.016 s           0.015 s
          | Total time for evaluating polarisability   :        0.081 s           0.080 s
          | Total time for RPA corr. energy            :        0.078 s           0.077 s
          | Total time for solution of K.-S. equations :        0.080 s           0.081 s
          | Total time for density update              :        0.168 s           0.166 s
          | Total time for mixing                      :        0.015 s           0.016 s
          | Total time for Hartree multipole update    :        0.045 s           0.047 s
          | Total time for Hartree multipole sum       :        0.177 s           0.177 s
          | Total time for total energy evaluation     :        0.003 s           0.004 s

          Partial memory accounting:
          | Residual value for overall tracked memory usage across tasks:     0.000000 MB (should be 0.000000 MB)
          | Peak values for overall tracked memory usage:
          |   Minimum:        0.762 MB (on task 7 after allocating wave)
          |   Maximum:        0.790 MB (on task 0 after allocating wave)
          |   Average:        0.779 MB
          | Largest tracked array allocation:
          |   Minimum:        0.155 MB (H_times_psi on task 0)
          |   Maximum:        0.155 MB (H_times_psi on task 0)
          |   Average:        0.155 MB
          Note:  These values currently only include a subset of arrays which are explicitly tracked.
          The "true" memory usage will be greater.

          Have a nice day.
------------------------------------------------------------
