  MPI-parallelism will be employed.
------------------------------------------------------------
          Invoking FHI-aims ...

          When using FHI-aims, please cite the following reference:

          Volker Blum, Ralf Gehrke, Felix Hanke, Paula Havu,
          Ville Havu, Xinguo Ren, Karsten Reuter, and Matthias Scheffler,
          'Ab Initio Molecular Simulations with Numeric Atom-Centered Orbitals',
          Computer Physics Communications 180, 2175-2196 (2009)

          For any questions about FHI-aims, please visit the aimsclub website
          with its forums and wiki. Contributions to both the forums and the
          wiki are warmly encouraged - they are for you, and everyone is welcome there.

------------------------------------------------------------



  Date     :  20190817, Time     :  153141.078
  Time zero on CPU 1             :   0.234260000000000E-01  s.
  Internal wall clock time zero  :           335287901.078  s.

  FHI-aims created a unique identifier for this run for later identification
  aims_uuid : 9A825E8C-41B7-4553-AE67-EC29DC13B177

  Build configuration of the current instance of FHI-aims
  -------------------------------------------------------
  FHI-aims version      : 190813
  Commit number         : 3da7baeb3
  CMake host system     : Linux-4.4.180-94.97-default
  CMake version         : 3.5.2
  Fortran compiler      : /mpcdf/soft/SLE_12_SP3/packages/x86_64/intel_parallel_studio/2018.4/compilers_and_libraries_2018.5.274/linux/mpi/bin64/mpiifort (Intel) version 18.0.5.20180823
  Fortran compiler flags: -O3 -ip -fp-model precise
  C compiler            : /mpcdf/soft/SLE_12_SP3/packages/skylake/intel/18.0.5/bin/icc (Intel) version 18.0.5.20180823
  C compiler flags      : -O3 -ip -fp-model precise
  Architecture          :
  Using MPI
  Using Scalapack
  Using C files
  Using SPGlib
  Using i-PI
  Linking against: /mpcdf/soft/SLE_12_SP3/packages/x86_64/anaconda/3.5.1.0/lib/libmkl_intel_lp64.so
                   /mpcdf/soft/SLE_12_SP3/packages/x86_64/anaconda/3.5.1.0/lib/libmkl_sequential.so
                   /mpcdf/soft/SLE_12_SP3/packages/x86_64/anaconda/3.5.1.0/lib/libmkl_core.so
                   /mpcdf/soft/SLE_12_SP3/packages/x86_64/anaconda/3.5.1.0/lib/libmkl_blacs_intelmpi_lp64.so
                   /mpcdf/soft/SLE_12_SP3/packages/x86_64/anaconda/3.5.1.0/lib/libmkl_scalapack_lp64.so

  Using        8 parallel tasks.
  Task        0 on host co1631 reporting.
  Task        1 on host co1631 reporting.
  Task        2 on host co1631 reporting.
  Task        3 on host co1631 reporting.
  Task        4 on host co1631 reporting.
  Task        5 on host co1631 reporting.
  Task        6 on host co1631 reporting.
  Task        7 on host co1631 reporting.

  Performing system and environment tests:
  | Environment variable OMP_NUM_THREADS correctly set to 1.
  | Maximum stacksize for task 0: unlimited
  | Maximum stacksize for task 1: unlimited
  | Maximum stacksize for task 2: unlimited
  | Maximum stacksize for task 3: unlimited
  | Maximum stacksize for task 4: unlimited
  | Maximum stacksize for task 5: unlimited
  | Maximum stacksize for task 6: unlimited
  | Maximum stacksize for task 7: unlimited
  | Current stacksize for task 0: unlimited
  | Current stacksize for task 1: unlimited
  | Current stacksize for task 2: unlimited
  | Current stacksize for task 3: unlimited
  | Current stacksize for task 4: unlimited
  | Current stacksize for task 5: unlimited
  | Current stacksize for task 6: unlimited
  | Current stacksize for task 7: unlimited
  | Checking for scalapack...
  | Testing pdtran()...
  | All pdtran() tests passed.

  Obtaining array dimensions for all initial allocations:
  
  -----------------------------------------------------------------------
  Parsing control.in (first pass over file, find array dimensions only).
  The contents of control.in will be repeated verbatim below
  unless switched off by setting 'verbatim_writeout .false.' .
  in the first line of control.in .
  -----------------------------------------------------------------------
  
  #########################################################################################
  #
  #  Volker Blum, FHI 2008 : Test run input file control.in for simple H2O
  #
  #########################################################################################
  #
  #  Physical model
  #
    xc                 pbe
    spin               none
    relativistic       none
    charge             0.
  #
  #  SCF convergence
  #
    occupation_type    gaussian 0.01
    mixer              pulay
      n_max_pulay        10
      charge_mix_param   0.5
    sc_accuracy_rho    1E-5
    sc_accuracy_eev    1E-3
    sc_accuracy_etot   1E-6
    sc_iter_limit      100
  
  output esp
  esp state 4 6
  esp radius 3. 8.0
  esp equal_grid_n 100 100 100
  ################################################################################
  #
  #  FHI-aims code project
  #  VB, Fritz-Haber Institut, 2009
  #
  #  Suggested "light" defaults for H atom (to be pasted into control.in file)
  #  Be sure to double-check any results obtained with these settings for post-processing,
  #  e.g., with the "tight" defaults and larger basis sets.
  #
  ################################################################################
    species        H
  #     global species definitions
      nucleus             1
      mass                1.00794
  #
      l_hartree           4
  #
      cut_pot             3.5  1.5  1.0
      basis_dep_cutoff    1e-4
  #
      radial_base         24 5.0
      radial_multiplier   1
      angular_grids       specified
        division   0.2421   50
        division   0.3822  110
        division   0.4799  194
        division   0.5341  302
  #      division   0.5626  434
  #      division   0.5922  590
  #      division   0.6542  770
  #      division   0.6868 1202
  #      outer_grid  770
        outer_grid  302
  ################################################################################
  #
  #  Definition of "minimal" basis
  #
  ################################################################################
  #     valence basis states
      valence      1  s   1.
  #     ion occupancy
      ion_occ      1  s   0.5
  ################################################################################
  #
  #  Suggested additional basis functions. For production calculations,
  #  uncomment them one after another (the most important basis functions are
  #  listed first).
  #
  #  Basis constructed for dimers: 0.5 A, 0.7 A, 1.0 A, 1.5 A, 2.5 A
  #
  ################################################################################
  #  "First tier" - improvements: -1014.90 meV to -62.69 meV
       hydro 2 s 2.1
       hydro 2 p 3.5
  #  "Second tier" - improvements: -12.89 meV to -1.83 meV
  #     hydro 1 s 0.85
  #     hydro 2 p 3.7
  #     hydro 2 s 1.2
  #     hydro 3 d 7
  #  "Third tier" - improvements: -0.25 meV to -0.12 meV
  #     hydro 4 f 11.2
  #     hydro 3 p 4.8
  #     hydro 4 d 9
  #     hydro 3 s 3.2
  ################################################################################
  #
  #  FHI-aims code project
  #  VB, Fritz-Haber Institut, 2009
  #
  #  Suggested "light" defaults for O atom (to be pasted into control.in file)
  #  Be sure to double-check any results obtained with these settings for post-processing,
  #  e.g., with the "tight" defaults and larger basis sets.
  #
  ################################################################################
    species        O
  #     global species definitions
      nucleus             8
      mass                15.9994
  #
      l_hartree           4
  #
      cut_pot             3.5  1.5  1.0
      basis_dep_cutoff    1e-4
  #
      radial_base         36 5.0
      radial_multiplier   1
       angular_grids specified
        division   0.2659   50
        division   0.4451  110
        division   0.6052  194
        division   0.7543  302
  #      division   0.8014  434
  #      division   0.8507  590
  #      division   0.8762  770
  #      division   0.9023  974
  #      division   1.2339 1202
  #      outer_grid 974
        outer_grid 302
  ################################################################################
  #
  #  Definition of "minimal" basis
  #
  ################################################################################
  #     valence basis states
      valence      2  s   2.
      valence      2  p   4.
  #     ion occupancy
      ion_occ      2  s   1.
      ion_occ      2  p   3.
  ################################################################################
  #
  #  Suggested additional basis functions. For production calculations,
  #  uncomment them one after another (the most important basis functions are
  #  listed first).
  #
  #  Constructed for dimers: 1.0 A, 1.208 A, 1.5 A, 2.0 A, 3.0 A
  #
  ################################################################################
  #  "First tier" - improvements: -699.05 meV to -159.38 meV
       hydro 2 p 1.8
       hydro 3 d 7.6
       hydro 3 s 6.4
  #  "Second tier" - improvements: -49.91 meV to -5.39 meV
  #     hydro 4 f 11.6
  #     hydro 3 p 6.2
  #     hydro 3 d 5.6
  #     hydro 5 g 17.6
  #     hydro 1 s 0.75
  #  "Third tier" - improvements: -2.83 meV to -0.50 meV
  #     ionic 2 p auto
  #     hydro 4 f 10.8
  #     hydro 4 d 4.7
  #     hydro 2 s 6.8
  #  "Fourth tier" - improvements: -0.40 meV to -0.12 meV
  #     hydro 3 p 5
  #     hydro 3 s 3.3
  #     hydro 5 g 15.6
  #     hydro 4 f 17.6
  #     hydro 4 d 14
  # Further basis functions - -0.08 meV and below
  #     hydro 3 s 2.1
  #     hydro 4 d 11.6
  #     hydro 3 p 16
  #     hydro 2 s 17.2
  
  -----------------------------------------------------------------------
  Completed first pass over input file control.in .
  -----------------------------------------------------------------------
  
  
  -----------------------------------------------------------------------
  Parsing geometry.in (first pass over file, find array dimensions only).
  The contents of geometry.in will be repeated verbatim below
  unless switched off by setting 'verbatim_writeout .false.' .
  in the first line of geometry.in .
  -----------------------------------------------------------------------
  
  # Geometry for water -- needs to be relaxed as the water molecule
  # described here has a 90degree bond angle and a
  # 1 Angstrom bond distance ...
  
              atom         0.00000000       -0.07313571        0.00000000  O
              atom         0.76748093       -0.67043214        0.00000000  H
              atom        -0.76748093       -0.67043214        0.00000000  H
  
  -----------------------------------------------------------------------
  Completed first pass over input file geometry.in .
  -----------------------------------------------------------------------
  

  Basic array size parameters:
  | Number of species                 :        2
  | Number of atoms                   :        3
  | Max. basis fn. angular momentum   :        2
  | Max. atomic/ionic basis occupied n:        2
  | Max. number of basis fn. types    :        2
  | Max. radial fns per species/type  :        3
  | Max. logarithmic grid size        :     1301
  | Max. radial integration grid size :       36
  | Max. angular integration grid size:      302
  | Max. angular grid division number :        8
  | Radial grid for Hartree potential :     1301
  | Number of spin channels           :        1

------------------------------------------------------------
          Reading file control.in.
------------------------------------------------------------
  XC: Using PBE gradient-corrected functionals.
  Spin treatment: No spin polarisation.
  Non-relativistic treatment of kinetic energy.
  Charge =   0.000000E+00: Neutral system requested explicitly.
  Occupation type: Gaussian broadening, width =   0.100000E-01 eV.
  Using pulay charge density mixing.
  Pulay mixing - number of memorized iterations:   10
  Charge density mixing - mixing parameter:     0.5000
  Convergence accuracy of self-consistent charge density:  0.1000E-04
  Convergence accuracy of sum of eigenvalues:  0.1000E-02
  Convergence accuracy of total energy:  0.1000E-05
  Maximum number of s.-c. iterations  :   100
  Fitting ESP-charges to Potential. 
  | Esp charge output options: 
  | Transistion Eigenstate i -> j:  0004 0006
  | Esp radis (inner/outer x vdw-radius):       3.00000000      8.00000000
  | ESP Grid method: 3, cubic grid
  | Number of points in x, ,y, z:  0100 0100 0100
  |
 
  Reading configuration options for species H                   .
  | Found nuclear charge :   1.0000
  | Found atomic mass :    1.00794000000000      amu
  | Found l_max for Hartree potential  :   4
  | Found cutoff potl. onset [A], width [A], scale factor :    3.50000    1.50000    1.00000
  | Threshold for basis-dependent cutoff potential is   0.100000E-03
  | Found data for basic radial integration grid :    24 points, outermost radius =    5.000 A
  | Found multiplier for basic radial grid :   1
  | Found angular grid specification: user-specified.
  | Specified grid contains     5 separate shells.
  | Check grid settings after all constraints further below.
  | Found free-atom valence shell :  1 s   1.000
  | No ionic wave fns used. Skipping ion_occ.
  | Found hydrogenic basis function :  2 s   2.100
  | Found hydrogenic basis function :  2 p   3.500
  Species H                   : Missing cutoff potential type.
  Defaulting to exp(1/x)/(1-x)^2 type cutoff potential.
  Species H : No 'logarithmic' tag. Using default grid for free atom:
  | Default logarithmic grid data [bohr] : 0.1000E-03 0.1000E+03 0.1012E+01
  Species H : On-site basis accuracy parameter (for Gram-Schmidt orthonormalisation) not specified.
  Using default value basis_acc =  0.1000000E-03.
  Species H                   : Using default innermost maximum threshold i_radial=  2 for radial functions.
  Species H                   : Default cutoff onset for free atom density etc. : 0.35000000E+01 AA.
  Species H                   : Basic radial grid will be enhanced according to radial_multiplier =   1, to contain    24 grid points.
 
  Reading configuration options for species O                   .
  | Found nuclear charge :   8.0000
  | Found atomic mass :    15.9994000000000      amu
  | Found l_max for Hartree potential  :   4
  | Found cutoff potl. onset [A], width [A], scale factor :    3.50000    1.50000    1.00000
  | Threshold for basis-dependent cutoff potential is   0.100000E-03
  | Found data for basic radial integration grid :    36 points, outermost radius =    5.000 A
  | Found multiplier for basic radial grid :   1
  | Found angular grid specification: user-specified.
  | Specified grid contains     5 separate shells.
  | Check grid settings after all constraints further below.
  | Found free-atom valence shell :  2 s   2.000
  | Found free-atom valence shell :  2 p   4.000
  | No ionic wave fns used. Skipping ion_occ.
  | No ionic wave fns used. Skipping ion_occ.
  | Found hydrogenic basis function :  2 p   1.800
  | Found hydrogenic basis function :  3 d   7.600
  | Found hydrogenic basis function :  3 s   6.400
  Species O                   : Missing cutoff potential type.
  Defaulting to exp(1/x)/(1-x)^2 type cutoff potential.
  Species O : No 'logarithmic' tag. Using default grid for free atom:
  | Default logarithmic grid data [bohr] : 0.1000E-03 0.1000E+03 0.1012E+01
  Species O : On-site basis accuracy parameter (for Gram-Schmidt orthonormalisation) not specified.
  Using default value basis_acc =  0.1000000E-03.
  Species O                   : Using default innermost maximum threshold i_radial=  2 for radial functions.
  Species O                   : Default cutoff onset for free atom density etc. : 0.35000000E+01 AA.
  Species O                   : Basic radial grid will be enhanced according to radial_multiplier =   1, to contain    36 grid points.
 
  Finished reading input file 'control.in'. Consistency checks are next.
 
  MPI_IN_PLACE appears to work with this MPI implementation.
  | Keeping use_mpi_in_place .true. (see manual).
  Target number of points in a grid batch is not set. Defaulting to  100
  Method for grid partitioning is not set. Defaulting to parallel hash+maxmin partitioning.
  Batch size limit is not set. Defaulting to    200
  By default, will store active basis functions for each batch.
  If in need of memory, prune_basis_once .false. can be used to disable this option.
  communication_type for Hartree potential was not specified.
  Defaulting to calc_hartree .
  Pulay mixer: Number of initial linear mixing iterations not set.
  Defaulting to    0 iterations.
  Work space size for distributed Hartree potential not set.
  Defaulting to   0.200000E+03 MB.
  Algorithm-dependent basis array size parameters:
  | n_max_pulay                         :       10
  Presetting      1001 iterations before the initial mixing cycle
  is restarted anyway using the sc_init_iter criterion / keyword.
  Presetting a factor      1.000 between actual scf density residual
  and density convergence criterion sc_accuracy_rho below which sc_init_iter
  takes no effect.
  Calculation of forces was not defined in control.in. No forces will be calculated.
  Geometry relaxation not requested: no relaxation will be performed.
  No accuracy limit for integral partition fn. given. Defaulting to  0.1000E-14.
  No threshold value for u(r) in integrations given. Defaulting to  0.1000E-05.
  No accuracy for occupation numbers given. Defaulting to  0.1000E-12.
  No threshold value for occupation numbers given. Defaulting to  0.0000E+00.
  No accuracy for fermi level given. Defaulting to  0.1000E-19.
  Maximum # of iterations to find E_F not set. Defaulting to  200.
  Preferred method for the eigenvalue solver ('KS_method') not specified in 'control.in'.
  Calling BLACS routine to test compilation state
  Since ScaLAPACK support is enabled, defaulting to ELPA (via ELSI).
  Will not use alltoall communication since running on < 1024 CPUs.
  Threshold for basis singularities not set.
  Default threshold for basis singularities:  0.1000E-04
  partition_type (choice of integration weights) for integrals was not specified.
  | Using a version of the partition function of Stratmann and coworkers ('stratmann_sparse').
  | At each grid point, the set of atoms used to build the partition table is smoothly restricted to
  | only those atoms whose free-atom density would be non-zero at that grid point.
  Partitioning for Hartree potential was not defined. Using partition_type for integrals.
  | Adjusted default value of keyword multip_moments_threshold to:       0.10000000E-11
  | This value may affect high angular momentum components of the Hartree potential in periodic systems.
  No q(lm)/r^(l+1) cutoff set for long-range Hartree potential.
  | Using default value of  0.100000E-09 .
  | Verify using the multipole_threshold keyword.
  Defaulting to new monopole extrapolation.
  Density update method: automatic selection selected.
  Charge integration errors on the 3D integration grid will be compensated
  by explicit normalization and distribution of residual charges.
  Use the "compensate_multipole_errors" flag to change this behaviour.
------------------------------------------------------------


------------------------------------------------------------
          Reading geometry description geometry.in.
------------------------------------------------------------
  Input structure read successfully.
  The structure contains        3 atoms,  and a total of         10.000 electrons.

  Input geometry:
  | No unit cell requested.
  | Atomic structure:
  |       Atom                x [A]            y [A]            z [A]
  |    1: Species O             0.00000000       -0.07313571        0.00000000
  |    2: Species H             0.76748093       -0.67043214        0.00000000
  |    3: Species H            -0.76748093       -0.67043214        0.00000000
  | The smallest distance between any two atoms is         0.97251735 AA.
  | The first atom of this pair is atom number                      1 .
  | The second atom of this pair is atom number                     2 .

  Number of empty states per atom not set in control.in - providing a guess from actual geometry.
  | Total number of empty states used during s.c.f. cycle:        6
  If you use a very high smearing, use empty_states (per atom!) in control.in to increase this value.

  Structure-dependent array size parameters: 
  | Maximum number of distinct radial functions  :        9
  | Maximum number of basis functions            :       24
  | Number of Kohn-Sham states (occupied + empty):       11
------------------------------------------------------------

------------------------------------------------------------
          Preparing all fixed parts of the calculation.
------------------------------------------------------------
  Determining machine precision:
    2.225073858507201E-308
  Setting up grids for atomic and cluster calculations.

  Creating wave function, potential, and density for free atoms.

  Species: H

  List of occupied orbitals and eigenvalues:
    n    l              occ      energy [Ha]    energy [eV]
    1    0           1.0000        -0.237589        -6.4651


  Species: O

  List of occupied orbitals and eigenvalues:
    n    l              occ      energy [Ha]    energy [eV]
    1    0           2.0000       -18.898188      -514.2459
    2    0           2.0000        -0.878505       -23.9053
    2    1           4.0000        -0.331779        -9.0282

  Creating fixed part of basis set: Ionic, confined, hydrogenic.
 
  H                    hydrogenic:
 
  List of hydrogenic basis orbitals: 
    n    l      effective z      eigenvalue [eV]  inner max. [A]     outer max. [A]     outer radius [A]   
    2    0         2.100000       -14.9728           0.193243           1.317208           4.583499
    2    1         3.500000       -41.6669           0.602369           0.602369           3.723403
 
 
  O                    hydrogenic:
 
  List of hydrogenic basis orbitals: 
    n    l      effective z      eigenvalue [eV]  inner max. [A]     outer max. [A]     outer radius [A]   
    2    1         1.800000       -10.9749           1.164242           1.164242           4.578029
    3    2         7.600000       -87.3180           0.624125           0.624125           3.251020
    3    0         6.400000       -61.9207           0.061167           1.081902           4.001998
 

  Adding cutoff potential to free-atom effective potential.
  Creating atomic-like basis functions for current effective potential.

  Species H                   :

  List of atomic basis orbitals and eigenvalues:
    n    l      energy [Ha]    energy [eV]    outer radius [A]
    1    0        -0.237589        -6.4651       4.527807


  Species O                   :

  List of atomic basis orbitals and eigenvalues:
    n    l      energy [Ha]    energy [eV]    outer radius [A]
    1    0       -18.898188      -514.2459       1.415765
    2    0        -0.878505       -23.9053       4.413171
    2    1        -0.331779        -9.0282       4.522403

  Assembling full basis from fixed parts.
  | Species H :   atomic orbital   1 s accepted.
  | Species H :    hydro orbital   2 s accepted.
  | Species H :    hydro orbital   2 p accepted.
  | Species O :   atomic orbital   1 s accepted.
  | Species O :    hydro orbital   3 s accepted.
  | Species O :   atomic orbital   2 s accepted.
  | Species O :   atomic orbital   2 p accepted.
  | Species O :    hydro orbital   2 p accepted.
  | Species O :    hydro orbital   3 d accepted.
 
  Basis size parameters after reduction:
  | Total number of radial functions:        9
  | Total number of basis functions :       24
 
  Per-task memory consumption for arrays in subroutine allocate_ext:
  |           2.249332MB.
  Testing on-site integration grid accuracy.
  |  Species  Function  <phi|h_atom|phi> (log., in eV)  <phi|h_atom|phi> (rad., in eV)
           1        1                 -6.4663192853                 -6.4651273558
           1        2                 13.7111246313                 13.7170609718
           1        3                 25.2673269279                 25.2674696378
           2        4               -514.2458688638               -514.2457643834
           2        5                 15.1795651126                 15.1795290741
           2        6                -21.5359799773                -21.5360846185
           2        7                 -9.0283069236                 -9.0284644067
           2        8                  8.3027758563                  8.2834874195
           2        9                 45.8339351984                 45.8338762260

  Preparing densities etc. for the partition functions (integrals / Hartree potential).

  Preparations completed.
  max(cpu_time)          :      0.087 s.
  Wall clock time (cpu1) :      0.087 s.
------------------------------------------------------------

------------------------------------------------------------
          Begin self-consistency loop: Initialization.

          Date     :  20190817, Time     :  153141.208
------------------------------------------------------------

  Initializing index lists of integration centers etc. from given atomic structure:
  | Number of centers in hartree potential         :         3
  | Number of centers in hartree multipole         :         3
  | Number of centers in electron density summation:         3
  | Number of centers in basis integrals           :         3
  | Number of centers in integrals                 :         3
  | Number of centers in hamiltonian               :         3
  * Using 8 tasks for Scalapack Eigenvalue solver.
  Detailed listing of tasks and assigned k-points:
  (for non-periodic systems, the "k-point" denotes an internal label only)
   Task     0 k-point     1 on co1631
   Task     1 k-point     1 on co1631
   Task     2 k-point     1 on co1631
   Task     3 k-point     1 on co1631
   Task     4 k-point     1 on co1631
   Task     5 k-point     1 on co1631
   Task     6 k-point     1 on co1631
   Task     7 k-point     1 on co1631
  Tasks:     8 split into      4 X      2 BLACS grid
  Calculating block size based on n_basis =           24  max_nprow =            4  max_npcol =            2
  ScaLAPACK block size set to:            4
  Allocating        0.001 MB for ovlp
  Allocating        0.001 MB for ham
  Allocating        0.001 MB for eigenvec
  Required Scalapack workspace - INTEGER:            1  REAL:             1
  Partitioning the integration grid into batches with parallel hashing+maxmin method.
  | Number of batches:      247
  | Maximal batch size:     104
  | Minimal batch size:      49
  | Average batch size:      64.470
  | Standard deviation of batch sizes:       9.597

  Integration load balanced across     8 MPI tasks.
  Work distribution over tasks is as follows:
  Task     0 has       1961 integration points.
  Task     1 has       1996 integration points.
  Task     2 has       2037 integration points.
  Task     3 has       2002 integration points.
  Task     4 has       1982 integration points.
  Task     5 has       1994 integration points.
  Task     6 has       1988 integration points.
  Task     7 has       1964 integration points.
  Initializing partition tables, free-atom densities, potentials, etc. across the integration grid (initialize_grid_storage).
  | initialize_grid_storage: Actual outermost partition radius vs. multipole_radius_free
  | (-- VB: in principle, multipole_radius_free should be larger, hence this output)
  | Species        1: Confinement radius =              4.999999999999999 AA, multipole_radius_free =              5.054417573612229 AA.
  | Species        1: outer_partition_radius set to              5.054417573612229 AA .
  | Species        2: Confinement radius =              4.999999999999999 AA, multipole_radius_free =              5.048384829883283 AA.
  | Species        2: outer_partition_radius set to              5.048384829883283 AA .
  | The sparse table of interatomic distances needs          0.09 kbyte instead of         0.07 kbyte of memory.
  | Using the partition_type stratmann_smoother will reduce your memory usage.
  | Net number of integration points:    15924
  | of which are non-zero points    :    14544
  Renormalizing the initial density to the exact electron count on the 3D integration grid.
  | Initial density: Formal number of electrons (from input files) :      10.0000000000
  | Integrated number of electrons on 3D grid     :       9.9999463253
  | Charge integration error                      :      -0.0000536747
  | Normalization factor for density and gradient :       1.0000053675
  Renormalizing the free-atom superposition density to the exact electron count on the 3D integration grid.
  | Formal number of electrons (from input files) :      10.0000000000
  | Integrated number of electrons on 3D grid     :       9.9999463253
  | Charge integration error                      :      -0.0000536747
  | Normalization factor for density and gradient :       1.0000053675
  Obtaining max. number of non-zero basis functions in each batch (get_n_compute_maxes).
  | Maximal number of non-zero basis functions:       24 in task     0
  | Maximal number of non-zero basis functions:       24 in task     1
  | Maximal number of non-zero basis functions:       24 in task     2
  | Maximal number of non-zero basis functions:       24 in task     3
  | Maximal number of non-zero basis functions:       24 in task     4
  | Maximal number of non-zero basis functions:       24 in task     5
  | Maximal number of non-zero basis functions:       24 in task     6
  | Maximal number of non-zero basis functions:       24 in task     7
  Selecting the method for density update.
  Loop over occupied states selected for charge density update.
  Allocating        0.002 MB for KS_eigenvector
  Integrating Hamiltonian matrix: batch-based integration.
  Time summed over all CPUs for integration: real work        0.035 s, elapsed        0.037 s
  Integrating overlap matrix.
  Time summed over all CPUs for integration: real work        0.011 s, elapsed        0.012 s
  Deallocating overlap matrix.

  Updating Kohn-Sham eigenvalues and eigenvectors using ELSI and the ELPA eigensolver.
  Overlap matrix is not singular
  | Lowest and highest eigenvalues :  0.1660E-01,  0.2705E+01
  Finished singularity check of overlap matrix
  | Time :     0.001 s
  Starting ELPA eigensolver
  Finished Cholesky decomposition
  | Time :     0.001 s
  Finished transformation to standard eigenproblem
  | Time :     0.000 s
  Finished solving standard eigenproblem
  | Time :     0.000 s
  Finished back-transformation of eigenvectors
  | Time :     0.000 s

  Obtaining occupation numbers and chemical potential using ELSI.
  | Chemical potential (Fermi level):    -2.82550634 eV
  Writing Kohn-Sham eigenvalues.

  State    Occupation    Eigenvalue [Ha]    Eigenvalue [eV]
      1       2.00000         -19.002470         -517.08352
      2       2.00000          -1.092398          -29.72566
      3       2.00000          -0.623827          -16.97519
      4       2.00000          -0.507523          -13.81039
      5       2.00000          -0.434960          -11.83586
      6       0.00000          -0.049676           -1.35177
      7       0.00000           0.031879            0.86748
      8       0.00000           0.215975            5.87698
      9       0.00000           0.249412            6.78683
     10       0.00000           0.302870            8.24151
     11       0.00000           0.505798           13.76346

  Highest occupied state (VBM) at    -11.83585962 eV
  | Occupation number:      2.00000000

  Lowest unoccupied state (CBM) at    -1.35176562 eV
  | Occupation number:      0.00000000

  Overall HOMO-LUMO gap:     10.48409400 eV.
  Calculating total energy contributions from superposition of free atom densities.

  Total energy components:
  | Sum of eigenvalues            :         -43.32235444 Ha       -1178.86124398 eV
  | XC energy correction          :          -9.01272410 Ha        -245.24870088 eV
  | XC potential correction       :          11.58837182 Ha         315.33564139 eV
  | Free-atom electrostatic energy:         -35.71003035 Ha        -971.71936649 eV
  | Hartree energy correction     :           0.00000000 Ha           0.00000000 eV
  | Entropy correction            :           0.00000000 Ha           0.00000000 eV
  | ---------------------------
  | Total energy                  :         -76.45673707 Ha       -2080.49366995 eV
  | Total energy, T -> 0          :         -76.45673707 Ha       -2080.49366995 eV  <-- do not rely on this value for anything but (periodic) metals
  | Electronic free energy        :         -76.45673707 Ha       -2080.49366995 eV

  Derived energy quantities:
  | Kinetic energy                :          75.52975287 Ha        2055.26914649 eV
  | Electrostatic energy          :        -142.97376584 Ha       -3890.51411557 eV
  | Energy correction for multipole
  | error in Hartree potential    :           0.00000000 Ha           0.00000000 eV
  | Sum of eigenvalues per atom                           :        -392.95374799 eV
  | Total energy (T->0) per atom                          :        -693.49788998 eV  <-- do not rely on this value for anything but (periodic) metals
  | Electronic free energy per atom                       :        -693.49788998 eV
  Initialize hartree_potential_storage
  Max. number of atoms included in rho_multipole:            3

  End scf initialization - timings             :  max(cpu_time)    wall_clock(cpu1)
  | Time for scf. initialization               :        0.019 s           0.019 s
  | Boundary condition initialization          :        0.000 s           0.000 s
  | Integration                                :        0.006 s           0.006 s
  | Solution of K.-S. eqns.                    :        0.002 s           0.003 s
  | Grid partitioning                          :        0.004 s           0.004 s
  | Preloading free-atom quantities on grid    :        0.001 s           0.001 s
  | Free-atom superposition energy             :        0.002 s           0.002 s
  | Total energy evaluation                    :        0.000 s           0.000 s

  Partial memory accounting:
  | Current value for overall tracked memory usage:
  |   Minimum:        0.006 MB (on task 4)
  |   Maximum:        0.007 MB (on task 0)
  |   Average:        0.006 MB
  | Peak value for overall tracked memory usage:
  |   Minimum:        0.070 MB (on task 4 after allocating wave)
  |   Maximum:        0.083 MB (on task 0 after allocating wave)
  |   Average:        0.074 MB
  | Largest tracked array allocation so far:
  |   Minimum:        0.037 MB (all_coords on task 7)
  |   Maximum:        0.054 MB (all_coords on task 0)
  |   Average:        0.046 MB
  Note:  These values currently only include a subset of arrays which are explicitly tracked.
  The "true" memory usage will be greater.
------------------------------------------------------------

------------------------------------------------------------
          Begin self-consistency iteration #    1

  Date     :  20190817, Time     :  153141.227
------------------------------------------------------------
  Evaluating new KS density.
  Integration grid: deviation in total charge (<rho> - N_e) =  -3.552714E-15
  Pulay mixing of updated and previous charge densities.
  Renormalizing the density to the exact electron count on the 3D integration grid.
  | Formal number of electrons (from input files) :      10.0000000000
  | Integrated number of electrons on 3D grid     :      10.0000000000
  | Charge integration error                      :      -0.0000000000
  | Normalization factor for density and gradient :       1.0000000000

  Evaluating partitioned Hartree potential by multipole expansion.
  | Original multipole sum: apparent total charge =  -0.595265E-14
  | Sum of charges compensated after spline to logarithmic grids =   0.121984E-03
  | Analytical far-field extrapolation by fixed multipoles:
  | Hartree multipole sum: apparent total charge =  -0.523932E-14
  Summing up the Hartree potential.
  Time summed over all CPUs for potential: real work        0.027 s, elapsed        0.028 s
  | RMS charge density error from multipole expansion :   0.350707E-02

  Integrating Hamiltonian matrix: batch-based integration.
  Time summed over all CPUs for integration: real work        0.033 s, elapsed        0.035 s

  Updating Kohn-Sham eigenvalues and eigenvectors using ELSI and the ELPA eigensolver.
  Starting ELPA eigensolver
  Finished transformation to standard eigenproblem
  | Time :     0.000 s
  Finished solving standard eigenproblem
  | Time :     0.000 s
  Finished back-transformation of eigenvectors
  | Time :     0.000 s

  Obtaining occupation numbers and chemical potential using ELSI.
  | Chemical potential (Fermi level):    -0.98248276 eV
  Writing Kohn-Sham eigenvalues.

  State    Occupation    Eigenvalue [Ha]    Eigenvalue [eV]
      1       2.00000         -18.613175         -506.49025
      2       2.00000          -0.907309          -24.68914
      3       2.00000          -0.469966          -12.78842
      4       2.00000          -0.320951           -8.73352
      5       2.00000          -0.241215           -6.56379
      6       0.00000          -0.001720           -0.04679
      7       0.00000           0.099803            2.71577
      8       0.00000           0.306970            8.35307
      9       0.00000           0.347280            9.44996
     10       0.00000           0.363202            9.88323
     11       0.00000           0.563155           15.32422

  Highest occupied state (VBM) at     -6.56378942 eV
  | Occupation number:      2.00000000

  Lowest unoccupied state (CBM) at    -0.04679191 eV
  | Occupation number:      0.00000000

  Overall HOMO-LUMO gap:      6.51699751 eV.

  Total energy components:
  | Sum of eigenvalues            :         -41.10523075 Ha       -1118.53023894 eV
  | XC energy correction          :          -9.27728984 Ha        -252.44790086 eV
  | XC potential correction       :          11.93518122 Ha         324.77280538 eV
  | Free-atom electrostatic energy:         -35.71003035 Ha        -971.71936649 eV
  | Hartree energy correction     :          -2.23934946 Ha         -60.93579925 eV
  | Entropy correction            :           0.00000000 Ha           0.00000000 eV
  | ---------------------------
  | Total energy                  :         -76.39671918 Ha       -2078.86050015 eV
  | Total energy, T -> 0          :         -76.39671918 Ha       -2078.86050015 eV  <-- do not rely on this value for anything but (periodic) metals
  | Electronic free energy        :         -76.39671918 Ha       -2078.86050015 eV

  Derived energy quantities:
  | Kinetic energy                :          76.92620240 Ha        2093.26847153 eV
  | Electrostatic energy          :        -144.04563174 Ha       -3919.68107082 eV
  | Energy correction for multipole
  | error in Hartree potential    :           0.00107195 Ha           0.02916932 eV
  | Sum of eigenvalues per atom                           :        -372.84341298 eV
  | Total energy (T->0) per atom                          :        -692.95350005 eV  <-- do not rely on this value for anything but (periodic) metals
  | Electronic free energy per atom                       :        -692.95350005 eV

  Self-consistency convergence accuracy:
  | Change of charge density      :  0.3060E+00
  | Change of sum of eigenvalues  :  0.6033E+02 eV
  | Change of total energy        :  0.1633E+01 eV

  End self-consistency iteration #     1       :  max(cpu_time)    wall_clock(cpu1)
  | Time for this iteration                    :        0.014 s           0.014 s
  | Charge density update                      :        0.003 s           0.003 s
  | Density mixing                             :        0.000 s           0.001 s
  | Hartree multipole update                   :        0.001 s           0.001 s
  | Hartree multipole summation                :        0.004 s           0.003 s
  | Integration                                :        0.004 s           0.005 s
  | Solution of K.-S. eqns.                    :        0.001 s           0.001 s
  | Total energy evaluation                    :        0.000 s           0.000 s

  Partial memory accounting:
  | Current value for overall tracked memory usage:
  |   Minimum:        0.006 MB (on task 4)
  |   Maximum:        0.007 MB (on task 0)
  |   Average:        0.006 MB
  | Peak value for overall tracked memory usage:
  |   Minimum:        0.082 MB (on task 4 after allocating gradient_basis_wave)
  |   Maximum:        0.083 MB (on task 0 after allocating gradient_basis_wave)
  |   Average:        0.082 MB
  | Largest tracked array allocation so far:
  |   Minimum:        0.057 MB (gradient_basis_wave on task 0)
  |   Maximum:        0.057 MB (gradient_basis_wave on task 0)
  |   Average:        0.057 MB
  Note:  These values currently only include a subset of arrays which are explicitly tracked.
  The "true" memory usage will be greater.
------------------------------------------------------------

------------------------------------------------------------
          Begin self-consistency iteration #    2

  Date     :  20190817, Time     :  153141.241
------------------------------------------------------------
  Evaluating new KS density.
  Integration grid: deviation in total charge (<rho> - N_e) =   5.329071E-15
  Pulay mixing of updated and previous charge densities.
  Renormalizing the density to the exact electron count on the 3D integration grid.
  | Formal number of electrons (from input files) :      10.0000000000
  | Integrated number of electrons on 3D grid     :      10.0000000000
  | Charge integration error                      :       0.0000000000
  | Normalization factor for density and gradient :       1.0000000000

  Evaluating partitioned Hartree potential by multipole expansion.
  | Original multipole sum: apparent total charge =  -0.764990E-14
  | Sum of charges compensated after spline to logarithmic grids =   0.119151E-03
  | Analytical far-field extrapolation by fixed multipoles:
  | Hartree multipole sum: apparent total charge =  -0.796967E-14
  Summing up the Hartree potential.
  Time summed over all CPUs for potential: real work        0.027 s, elapsed        0.027 s
  | RMS charge density error from multipole expansion :   0.410067E-02

  Integrating Hamiltonian matrix: batch-based integration.
  Time summed over all CPUs for integration: real work        0.033 s, elapsed        0.034 s

  Updating Kohn-Sham eigenvalues and eigenvectors using ELSI and the ELPA eigensolver.
  Starting ELPA eigensolver
  Finished transformation to standard eigenproblem
  | Time :     0.000 s
  Finished solving standard eigenproblem
  | Time :     0.001 s
  Finished back-transformation of eigenvectors
  | Time :     0.000 s

  Obtaining occupation numbers and chemical potential using ELSI.
  | Chemical potential (Fermi level):    -1.18363882 eV
  Highest occupied state (VBM) at     -7.51866070 eV
  | Occupation number:      2.00000000

  Lowest unoccupied state (CBM) at    -0.19983448 eV
  | Occupation number:      0.00000000

  Overall HOMO-LUMO gap:      7.31882621 eV.

  Checking to see if s.c.f. parameters should be adjusted.

  Total energy components:
  | Sum of eigenvalues            :         -41.60276026 Ha       -1132.06870563 eV
  | XC energy correction          :          -9.21516997 Ha        -250.75753334 eV
  | XC potential correction       :          11.85342867 Ha         322.54820511 eV
  | Free-atom electrostatic energy:         -35.71003035 Ha        -971.71936649 eV
  | Hartree energy correction     :          -1.71009873 Ha         -46.53415401 eV
  | Entropy correction            :           0.00000000 Ha           0.00000000 eV
  | ---------------------------
  | Total energy                  :         -76.38463064 Ha       -2078.53155435 eV
  | Total energy, T -> 0          :         -76.38463064 Ha       -2078.53155435 eV  <-- do not rely on this value for anything but (periodic) metals
  | Electronic free energy        :         -76.38463064 Ha       -2078.53155435 eV

  Derived energy quantities:
  | Kinetic energy                :          76.36564575 Ha        2078.01494909 eV
  | Electrostatic energy          :        -143.53510642 Ha       -3905.78897010 eV
  | Energy correction for multipole
  | error in Hartree potential    :          -0.00098620 Ha          -0.02683577 eV
  | Sum of eigenvalues per atom                           :        -377.35623521 eV
  | Total energy (T->0) per atom                          :        -692.84385145 eV  <-- do not rely on this value for anything but (periodic) metals
  | Electronic free energy per atom                       :        -692.84385145 eV

  Self-consistency convergence accuracy:
  | Change of charge density      :  0.2078E+00
  | Change of sum of eigenvalues  : -0.1354E+02 eV
  | Change of total energy        :  0.3289E+00 eV

  End self-consistency iteration #     2       :  max(cpu_time)    wall_clock(cpu1)
  | Time for this iteration                    :        0.013 s           0.013 s
  | Charge density update                      :        0.003 s           0.003 s
  | Density mixing                             :        0.000 s           0.000 s
  | Hartree multipole update                   :        0.001 s           0.001 s
  | Hartree multipole summation                :        0.004 s           0.004 s
  | Integration                                :        0.004 s           0.004 s
  | Solution of K.-S. eqns.                    :        0.001 s           0.001 s
  | Total energy evaluation                    :        0.000 s           0.000 s

  Partial memory accounting:
  | Current value for overall tracked memory usage:
  |   Minimum:        0.007 MB (on task 4)
  |   Maximum:        0.008 MB (on task 0)
  |   Average:        0.007 MB
  | Peak value for overall tracked memory usage:
  |   Minimum:        0.082 MB (on task 4 after allocating gradient_basis_wave)
  |   Maximum:        0.083 MB (on task 0 after allocating gradient_basis_wave)
  |   Average:        0.082 MB
  | Largest tracked array allocation so far:
  |   Minimum:        0.057 MB (gradient_basis_wave on task 0)
  |   Maximum:        0.057 MB (gradient_basis_wave on task 0)
  |   Average:        0.057 MB
  Note:  These values currently only include a subset of arrays which are explicitly tracked.
  The "true" memory usage will be greater.
------------------------------------------------------------

------------------------------------------------------------
          Begin self-consistency iteration #    3

  Date     :  20190817, Time     :  153141.254
------------------------------------------------------------
  Evaluating new KS density.
  Integration grid: deviation in total charge (<rho> - N_e) =   3.552714E-15
  Pulay mixing of updated and previous charge densities.
  Renormalizing the density to the exact electron count on the 3D integration grid.
  | Formal number of electrons (from input files) :      10.0000000000
  | Integrated number of electrons on 3D grid     :      10.0000000000
  | Charge integration error                      :       0.0000000000
  | Normalization factor for density and gradient :       1.0000000000

  Evaluating partitioned Hartree potential by multipole expansion.
  | Original multipole sum: apparent total charge =  -0.592805E-14
  | Sum of charges compensated after spline to logarithmic grids =   0.167495E-03
  | Analytical far-field extrapolation by fixed multipoles:
  | Hartree multipole sum: apparent total charge =  -0.573127E-14
  Summing up the Hartree potential.
  Time summed over all CPUs for potential: real work        0.027 s, elapsed        0.027 s
  | RMS charge density error from multipole expansion :   0.658220E-02

  Integrating Hamiltonian matrix: batch-based integration.
  Time summed over all CPUs for integration: real work        0.032 s, elapsed        0.034 s

  Updating Kohn-Sham eigenvalues and eigenvectors using ELSI and the ELPA eigensolver.
  Starting ELPA eigensolver
  Finished transformation to standard eigenproblem
  | Time :     0.000 s
  Finished solving standard eigenproblem
  | Time :     0.000 s
  Finished back-transformation of eigenvectors
  | Time :     0.000 s

  Obtaining occupation numbers and chemical potential using ELSI.
  | Chemical potential (Fermi level):    -0.72835585 eV
  Highest occupied state (VBM) at     -6.95571356 eV
  | Occupation number:      2.00000000

  Lowest unoccupied state (CBM) at     0.11715337 eV
  | Occupation number:      0.00000000

  Overall HOMO-LUMO gap:      7.07286693 eV.

  Total energy components:
  | Sum of eigenvalues            :         -41.47064334 Ha       -1128.47362141 eV
  | XC energy correction          :          -9.23708101 Ha        -251.35376292 eV
  | XC potential correction       :          11.88195536 Ha         323.32445583 eV
  | Free-atom electrostatic energy:         -35.71003035 Ha        -971.71936649 eV
  | Hartree energy correction     :          -1.84759780 Ha         -50.27569403 eV
  | Entropy correction            :           0.00000000 Ha           0.00000000 eV
  | ---------------------------
  | Total energy                  :         -76.38339714 Ha       -2078.49798901 eV
  | Total energy, T -> 0          :         -76.38339714 Ha       -2078.49798901 eV  <-- do not rely on this value for anything but (periodic) metals
  | Electronic free energy        :         -76.38339714 Ha       -2078.49798901 eV

  Derived energy quantities:
  | Kinetic energy                :          76.10454504 Ha        2070.91003738 eV
  | Electrostatic energy          :        -143.25086118 Ha       -3898.05426347 eV
  | Energy correction for multipole
  | error in Hartree potential    :          -0.00335944 Ha          -0.09141495 eV
  | Sum of eigenvalues per atom                           :        -376.15787380 eV
  | Total energy (T->0) per atom                          :        -692.83266300 eV  <-- do not rely on this value for anything but (periodic) metals
  | Electronic free energy per atom                       :        -692.83266300 eV

  Self-consistency convergence accuracy:
  | Change of charge density      :  0.7128E-01
  | Change of sum of eigenvalues  :  0.3595E+01 eV
  | Change of total energy        :  0.3357E-01 eV

  End self-consistency iteration #     3       :  max(cpu_time)    wall_clock(cpu1)
  | Time for this iteration                    :        0.013 s           0.013 s
  | Charge density update                      :        0.003 s           0.002 s
  | Density mixing                             :        0.000 s           0.001 s
  | Hartree multipole update                   :        0.001 s           0.000 s
  | Hartree multipole summation                :        0.004 s           0.003 s
  | Integration                                :        0.004 s           0.004 s
  | Solution of K.-S. eqns.                    :        0.001 s           0.001 s
  | Total energy evaluation                    :        0.000 s           0.000 s

  Partial memory accounting:
  | Current value for overall tracked memory usage:
  |   Minimum:        0.007 MB (on task 4)
  |   Maximum:        0.008 MB (on task 0)
  |   Average:        0.007 MB
  | Peak value for overall tracked memory usage:
  |   Minimum:        0.083 MB (on task 4 after allocating gradient_basis_wave)
  |   Maximum:        0.084 MB (on task 0 after allocating gradient_basis_wave)
  |   Average:        0.083 MB
  | Largest tracked array allocation so far:
  |   Minimum:        0.057 MB (gradient_basis_wave on task 0)
  |   Maximum:        0.057 MB (gradient_basis_wave on task 0)
  |   Average:        0.057 MB
  Note:  These values currently only include a subset of arrays which are explicitly tracked.
  The "true" memory usage will be greater.
------------------------------------------------------------

------------------------------------------------------------
          Begin self-consistency iteration #    4

  Date     :  20190817, Time     :  153141.268
------------------------------------------------------------
  Evaluating new KS density.
  Integration grid: deviation in total charge (<rho> - N_e) =  -3.552714E-15
  Pulay mixing of updated and previous charge densities.
  Renormalizing the density to the exact electron count on the 3D integration grid.
  | Formal number of electrons (from input files) :      10.0000000000
  | Integrated number of electrons on 3D grid     :      10.0000000000
  | Charge integration error                      :      -0.0000000000
  | Normalization factor for density and gradient :       1.0000000000

  Evaluating partitioned Hartree potential by multipole expansion.
  | Original multipole sum: apparent total charge =  -0.769909E-14
  | Sum of charges compensated after spline to logarithmic grids =   0.162617E-03
  | Analytical far-field extrapolation by fixed multipoles:
  | Hartree multipole sum: apparent total charge =  -0.868300E-14
  Summing up the Hartree potential.
  Time summed over all CPUs for potential: real work        0.026 s, elapsed        0.026 s
  | RMS charge density error from multipole expansion :   0.643539E-02

  Integrating Hamiltonian matrix: batch-based integration.
  Time summed over all CPUs for integration: real work        0.031 s, elapsed        0.032 s

  Updating Kohn-Sham eigenvalues and eigenvectors using ELSI and the ELPA eigensolver.
  Starting ELPA eigensolver
  Finished transformation to standard eigenproblem
  | Time :     0.000 s
  Finished solving standard eigenproblem
  | Time :     0.001 s
  Finished back-transformation of eigenvectors
  | Time :     0.000 s

  Obtaining occupation numbers and chemical potential using ELSI.
  | Chemical potential (Fermi level):    -0.79670946 eV
  Highest occupied state (VBM) at     -7.08105281 eV
  | Occupation number:      2.00000000

  Lowest unoccupied state (CBM) at     0.07009812 eV
  | Occupation number:      0.00000000

  Overall HOMO-LUMO gap:      7.15115093 eV.

  Total energy components:
  | Sum of eigenvalues            :         -41.52091048 Ha       -1129.84145973 eV
  | XC energy correction          :          -9.23008961 Ha        -251.16351745 eV
  | XC potential correction       :          11.87280848 Ha         323.07555660 eV
  | Free-atom electrostatic energy:         -35.71003035 Ha        -971.71936649 eV
  | Hartree energy correction     :          -1.79511898 Ha         -48.84767278 eV
  | Entropy correction            :           0.00000000 Ha           0.00000000 eV
  | ---------------------------
  | Total energy                  :         -76.38334095 Ha       -2078.49645986 eV
  | Total energy, T -> 0          :         -76.38334095 Ha       -2078.49645986 eV  <-- do not rely on this value for anything but (periodic) metals
  | Electronic free energy        :         -76.38334095 Ha       -2078.49645986 eV

  Derived energy quantities:
  | Kinetic energy                :          76.08669931 Ha        2070.42443016 eV
  | Electrostatic energy          :        -143.23995064 Ha       -3897.75737257 eV
  | Energy correction for multipole
  | error in Hartree potential    :          -0.00332853 Ha          -0.09057386 eV
  | Sum of eigenvalues per atom                           :        -376.61381991 eV
  | Total energy (T->0) per atom                          :        -692.83215329 eV  <-- do not rely on this value for anything but (periodic) metals
  | Electronic free energy per atom                       :        -692.83215329 eV

  Self-consistency convergence accuracy:
  | Change of charge density      :  0.9422E-02
  | Change of sum of eigenvalues  : -0.1368E+01 eV
  | Change of total energy        :  0.1529E-02 eV

  End self-consistency iteration #     4       :  max(cpu_time)    wall_clock(cpu1)
  | Time for this iteration                    :        0.012 s           0.012 s
  | Charge density update                      :        0.003 s           0.002 s
  | Density mixing                             :        0.000 s           0.001 s
  | Hartree multipole update                   :        0.001 s           0.001 s
  | Hartree multipole summation                :        0.003 s           0.003 s
  | Integration                                :        0.004 s           0.004 s
  | Solution of K.-S. eqns.                    :        0.001 s           0.001 s
  | Total energy evaluation                    :        0.000 s           0.000 s

  Partial memory accounting:
  | Current value for overall tracked memory usage:
  |   Minimum:        0.007 MB (on task 4)
  |   Maximum:        0.008 MB (on task 0)
  |   Average:        0.007 MB
  | Peak value for overall tracked memory usage:
  |   Minimum:        0.083 MB (on task 4 after allocating gradient_basis_wave)
  |   Maximum:        0.084 MB (on task 0 after allocating gradient_basis_wave)
  |   Average:        0.083 MB
  | Largest tracked array allocation so far:
  |   Minimum:        0.057 MB (gradient_basis_wave on task 0)
  |   Maximum:        0.057 MB (gradient_basis_wave on task 0)
  |   Average:        0.057 MB
  Note:  These values currently only include a subset of arrays which are explicitly tracked.
  The "true" memory usage will be greater.
------------------------------------------------------------

------------------------------------------------------------
          Begin self-consistency iteration #    5

  Date     :  20190817, Time     :  153141.280
------------------------------------------------------------
  Evaluating new KS density.
  Integration grid: deviation in total charge (<rho> - N_e) =   0.000000E+00
  Pulay mixing of updated and previous charge densities.
  Renormalizing the density to the exact electron count on the 3D integration grid.
  | Formal number of electrons (from input files) :      10.0000000000
  | Integrated number of electrons on 3D grid     :      10.0000000000
  | Charge integration error                      :      -0.0000000000
  | Normalization factor for density and gradient :       1.0000000000

  Evaluating partitioned Hartree potential by multipole expansion.
  | Original multipole sum: apparent total charge =  -0.106508E-13
  | Sum of charges compensated after spline to logarithmic grids =   0.163052E-03
  | Analytical far-field extrapolation by fixed multipoles:
  | Hartree multipole sum: apparent total charge =  -0.115855E-13
  Summing up the Hartree potential.
  Time summed over all CPUs for potential: real work        0.026 s, elapsed        0.027 s
  | RMS charge density error from multipole expansion :   0.646676E-02

  Integrating Hamiltonian matrix: batch-based integration.
  Time summed over all CPUs for integration: real work        0.033 s, elapsed        0.035 s

  Updating Kohn-Sham eigenvalues and eigenvectors using ELSI and the ELPA eigensolver.
  Starting ELPA eigensolver
  Finished transformation to standard eigenproblem
  | Time :     0.000 s
  Finished solving standard eigenproblem
  | Time :     0.001 s
  Finished back-transformation of eigenvectors
  | Time :     0.000 s

  Obtaining occupation numbers and chemical potential using ELSI.
  | Chemical potential (Fermi level):    -0.79533717 eV
  Highest occupied state (VBM) at     -7.07476067 eV
  | Occupation number:      2.00000000

  Lowest unoccupied state (CBM) at     0.07328172 eV
  | Occupation number:      0.00000000

  Overall HOMO-LUMO gap:      7.14804239 eV.

  Total energy components:
  | Sum of eigenvalues            :         -41.52007710 Ha       -1129.81878252 eV
  | XC energy correction          :          -9.23012538 Ha        -251.16449066 eV
  | XC potential correction       :          11.87287050 Ha         323.07724417 eV
  | Free-atom electrostatic energy:         -35.71003035 Ha        -971.71936649 eV
  | Hartree energy correction     :          -1.79597887 Ha         -48.87107161 eV
  | Entropy correction            :           0.00000000 Ha           0.00000000 eV
  | ---------------------------
  | Total energy                  :         -76.38334121 Ha       -2078.49646710 eV
  | Total energy, T -> 0          :         -76.38334121 Ha       -2078.49646710 eV  <-- do not rely on this value for anything but (periodic) metals
  | Electronic free energy        :         -76.38334121 Ha       -2078.49646710 eV

  Derived energy quantities:
  | Kinetic energy                :          76.08302982 Ha        2070.32457823 eV
  | Electrostatic energy          :        -143.23624565 Ha       -3897.65655468 eV
  | Energy correction for multipole
  | error in Hartree potential    :          -0.00338616 Ha          -0.09214223 eV
  | Sum of eigenvalues per atom                           :        -376.60626084 eV
  | Total energy (T->0) per atom                          :        -692.83215570 eV  <-- do not rely on this value for anything but (periodic) metals
  | Electronic free energy per atom                       :        -692.83215570 eV

  Self-consistency convergence accuracy:
  | Change of charge density      :  0.7852E-03
  | Change of sum of eigenvalues  :  0.2268E-01 eV
  | Change of total energy        : -0.7249E-05 eV

  End self-consistency iteration #     5       :  max(cpu_time)    wall_clock(cpu1)
  | Time for this iteration                    :        0.013 s           0.013 s
  | Charge density update                      :        0.003 s           0.003 s
  | Density mixing                             :        0.000 s           0.000 s
  | Hartree multipole update                   :        0.001 s           0.001 s
  | Hartree multipole summation                :        0.003 s           0.004 s
  | Integration                                :        0.004 s           0.004 s
  | Solution of K.-S. eqns.                    :        0.001 s           0.001 s
  | Total energy evaluation                    :        0.000 s           0.000 s

  Partial memory accounting:
  | Current value for overall tracked memory usage:
  |   Minimum:        0.007 MB (on task 4)
  |   Maximum:        0.008 MB (on task 0)
  |   Average:        0.007 MB
  | Peak value for overall tracked memory usage:
  |   Minimum:        0.083 MB (on task 4 after allocating gradient_basis_wave)
  |   Maximum:        0.084 MB (on task 0 after allocating gradient_basis_wave)
  |   Average:        0.083 MB
  | Largest tracked array allocation so far:
  |   Minimum:        0.057 MB (gradient_basis_wave on task 0)
  |   Maximum:        0.057 MB (gradient_basis_wave on task 0)
  |   Average:        0.057 MB
  Note:  These values currently only include a subset of arrays which are explicitly tracked.
  The "true" memory usage will be greater.
------------------------------------------------------------

------------------------------------------------------------
          Begin self-consistency iteration #    6

  Date     :  20190817, Time     :  153141.293
------------------------------------------------------------
  Evaluating new KS density.
  Integration grid: deviation in total charge (<rho> - N_e) =   1.776357E-15
  Pulay mixing of updated and previous charge densities.
  Renormalizing the density to the exact electron count on the 3D integration grid.
  | Formal number of electrons (from input files) :      10.0000000000
  | Integrated number of electrons on 3D grid     :      10.0000000000
  | Charge integration error                      :      -0.0000000000
  | Normalization factor for density and gradient :       1.0000000000

  Evaluating partitioned Hartree potential by multipole expansion.
  | Original multipole sum: apparent total charge =  -0.124957E-13
  | Sum of charges compensated after spline to logarithmic grids =   0.163103E-03
  | Analytical far-field extrapolation by fixed multipoles:
  | Hartree multipole sum: apparent total charge =  -0.133566E-13
  Summing up the Hartree potential.
  Time summed over all CPUs for potential: real work        0.026 s, elapsed        0.027 s
  | RMS charge density error from multipole expansion :   0.647007E-02

  Integrating Hamiltonian matrix: batch-based integration.
  Time summed over all CPUs for integration: real work        0.032 s, elapsed        0.033 s

  Updating Kohn-Sham eigenvalues and eigenvectors using ELSI and the ELPA eigensolver.
  Starting ELPA eigensolver
  Finished transformation to standard eigenproblem
  | Time :     0.000 s
  Finished solving standard eigenproblem
  | Time :     0.001 s
  Finished back-transformation of eigenvectors
  | Time :     0.000 s

  Obtaining occupation numbers and chemical potential using ELSI.
  | Chemical potential (Fermi level):    -0.79460263 eV
  Highest occupied state (VBM) at     -7.07392213 eV
  | Occupation number:      2.00000000

  Lowest unoccupied state (CBM) at     0.07395666 eV
  | Occupation number:      0.00000000

  Overall HOMO-LUMO gap:      7.14787879 eV.

  Total energy components:
  | Sum of eigenvalues            :         -41.51981808 Ha       -1129.81173421 eV
  | XC energy correction          :          -9.23017021 Ha        -251.16571047 eV
  | XC potential correction       :          11.87292995 Ha         323.07886197 eV
  | Free-atom electrostatic energy:         -35.71003035 Ha        -971.71936649 eV
  | Hartree energy correction     :          -1.79625256 Ha         -48.87851897 eV
  | Entropy correction            :           0.00000000 Ha           0.00000000 eV
  | ---------------------------
  | Total energy                  :         -76.38334125 Ha       -2078.49646817 eV
  | Total energy, T -> 0          :         -76.38334125 Ha       -2078.49646817 eV  <-- do not rely on this value for anything but (periodic) metals
  | Electronic free energy        :         -76.38334125 Ha       -2078.49646817 eV

  Derived energy quantities:
  | Kinetic energy                :          76.08314540 Ha        2070.32772358 eV
  | Electrostatic energy          :        -143.23631645 Ha       -3897.65848128 eV
  | Energy correction for multipole
  | error in Hartree potential    :          -0.00339041 Ha          -0.09225780 eV
  | Sum of eigenvalues per atom                           :        -376.60391140 eV
  | Total energy (T->0) per atom                          :        -692.83215606 eV  <-- do not rely on this value for anything but (periodic) metals
  | Electronic free energy per atom                       :        -692.83215606 eV

  Self-consistency convergence accuracy:
  | Change of charge density      :  0.9769E-04
  | Change of sum of eigenvalues  :  0.7048E-02 eV
  | Change of total energy        : -0.1070E-05 eV

  End self-consistency iteration #     6       :  max(cpu_time)    wall_clock(cpu1)
  | Time for this iteration                    :        0.013 s           0.013 s
  | Charge density update                      :        0.003 s           0.003 s
  | Density mixing                             :        0.001 s           0.001 s
  | Hartree multipole update                   :        0.001 s           0.000 s
  | Hartree multipole summation                :        0.003 s           0.003 s
  | Integration                                :        0.004 s           0.004 s
  | Solution of K.-S. eqns.                    :        0.001 s           0.001 s
  | Total energy evaluation                    :        0.000 s           0.000 s

  Partial memory accounting:
  | Current value for overall tracked memory usage:
  |   Minimum:        0.007 MB (on task 4)
  |   Maximum:        0.008 MB (on task 0)
  |   Average:        0.007 MB
  | Peak value for overall tracked memory usage:
  |   Minimum:        0.083 MB (on task 4 after allocating gradient_basis_wave)
  |   Maximum:        0.084 MB (on task 0 after allocating gradient_basis_wave)
  |   Average:        0.083 MB
  | Largest tracked array allocation so far:
  |   Minimum:        0.057 MB (gradient_basis_wave on task 0)
  |   Maximum:        0.057 MB (gradient_basis_wave on task 0)
  |   Average:        0.057 MB
  Note:  These values currently only include a subset of arrays which are explicitly tracked.
  The "true" memory usage will be greater.
------------------------------------------------------------

------------------------------------------------------------
          Begin self-consistency iteration #    7

  Date     :  20190817, Time     :  153141.306
------------------------------------------------------------
  Evaluating new KS density.
  Integration grid: deviation in total charge (<rho> - N_e) =  -3.552714E-15
  Pulay mixing of updated and previous charge densities.
  Renormalizing the density to the exact electron count on the 3D integration grid.
  | Formal number of electrons (from input files) :      10.0000000000
  | Integrated number of electrons on 3D grid     :      10.0000000000
  | Charge integration error                      :       0.0000000000
  | Normalization factor for density and gradient :       1.0000000000

  Evaluating partitioned Hartree potential by multipole expansion.
  | Original multipole sum: apparent total charge =  -0.595265E-14
  | Sum of charges compensated after spline to logarithmic grids =   0.163104E-03
  | Analytical far-field extrapolation by fixed multipoles:
  | Hartree multipole sum: apparent total charge =  -0.642001E-14
  Summing up the Hartree potential.
  Time summed over all CPUs for potential: real work        0.027 s, elapsed        0.027 s
  | RMS charge density error from multipole expansion :   0.646981E-02

  Integrating Hamiltonian matrix: batch-based integration.
  Time summed over all CPUs for integration: real work        0.032 s, elapsed        0.034 s

  Updating Kohn-Sham eigenvalues and eigenvectors using ELSI and the ELPA eigensolver.
  Starting ELPA eigensolver
  Finished transformation to standard eigenproblem
  | Time :     0.001 s
  Finished solving standard eigenproblem
  | Time :     0.000 s
  Finished back-transformation of eigenvectors
  | Time :     0.000 s

  Obtaining occupation numbers and chemical potential using ELSI.
  | Chemical potential (Fermi level):    -0.79442075 eV
  Highest occupied state (VBM) at     -7.07375674 eV
  | Occupation number:      2.00000000

  Lowest unoccupied state (CBM) at     0.07404041 eV
  | Occupation number:      0.00000000

  Overall HOMO-LUMO gap:      7.14779714 eV.

  Total energy components:
  | Sum of eigenvalues            :         -41.51969424 Ha       -1129.80836435 eV
  | XC energy correction          :          -9.23019279 Ha        -251.16632506 eV
  | XC potential correction       :          11.87295909 Ha         323.07965491 eV
  | Free-atom electrostatic energy:         -35.71003035 Ha        -971.71936649 eV
  | Hartree energy correction     :          -1.79638294 Ha         -48.88206679 eV
  | Entropy correction            :           0.00000000 Ha           0.00000000 eV
  | ---------------------------
  | Total energy                  :         -76.38334124 Ha       -2078.49646779 eV
  | Total energy, T -> 0          :         -76.38334124 Ha       -2078.49646779 eV  <-- do not rely on this value for anything but (periodic) metals
  | Electronic free energy        :         -76.38334124 Ha       -2078.49646779 eV

  Derived energy quantities:
  | Kinetic energy                :          76.08337708 Ha        2070.33402769 eV
  | Electrostatic energy          :        -143.23652552 Ha       -3897.66417042 eV
  | Energy correction for multipole
  | error in Hartree potential    :          -0.00338901 Ha          -0.09221953 eV
  | Sum of eigenvalues per atom                           :        -376.60278812 eV
  | Total energy (T->0) per atom                          :        -692.83215593 eV  <-- do not rely on this value for anything but (periodic) metals
  | Electronic free energy per atom                       :        -692.83215593 eV

  Self-consistency convergence accuracy:
  | Change of charge density      :  0.2547E-04
  | Change of sum of eigenvalues  :  0.3370E-02 eV
  | Change of total energy        :  0.3797E-06 eV

  End self-consistency iteration #     7       :  max(cpu_time)    wall_clock(cpu1)
  | Time for this iteration                    :        0.013 s           0.013 s
  | Charge density update                      :        0.003 s           0.003 s
  | Density mixing                             :        0.001 s           0.001 s
  | Hartree multipole update                   :        0.001 s           0.000 s
  | Hartree multipole summation                :        0.004 s           0.004 s
  | Integration                                :        0.004 s           0.004 s
  | Solution of K.-S. eqns.                    :        0.001 s           0.001 s
  | Total energy evaluation                    :        0.000 s           0.000 s

  Partial memory accounting:
  | Current value for overall tracked memory usage:
  |   Minimum:        0.007 MB (on task 4)
  |   Maximum:        0.008 MB (on task 0)
  |   Average:        0.007 MB
  | Peak value for overall tracked memory usage:
  |   Minimum:        0.083 MB (on task 4 after allocating gradient_basis_wave)
  |   Maximum:        0.084 MB (on task 0 after allocating gradient_basis_wave)
  |   Average:        0.083 MB
  | Largest tracked array allocation so far:
  |   Minimum:        0.057 MB (gradient_basis_wave on task 0)
  |   Maximum:        0.057 MB (gradient_basis_wave on task 0)
  |   Average:        0.057 MB
  Note:  These values currently only include a subset of arrays which are explicitly tracked.
  The "true" memory usage will be greater.
------------------------------------------------------------

------------------------------------------------------------
          Begin self-consistency iteration #    8

  Date     :  20190817, Time     :  153141.320
------------------------------------------------------------
  Evaluating new KS density.
  Integration grid: deviation in total charge (<rho> - N_e) =   3.552714E-15
  Pulay mixing of updated and previous charge densities.
  Renormalizing the density to the exact electron count on the 3D integration grid.
  | Formal number of electrons (from input files) :      10.0000000000
  | Integrated number of electrons on 3D grid     :      10.0000000000
  | Charge integration error                      :      -0.0000000000
  | Normalization factor for density and gradient :       1.0000000000

  Evaluating partitioned Hartree potential by multipole expansion.
  | Original multipole sum: apparent total charge =  -0.110936E-13
  | Sum of charges compensated after spline to logarithmic grids =   0.163098E-03
  | Analytical far-field extrapolation by fixed multipoles:
  | Hartree multipole sum: apparent total charge =  -0.110690E-13
  Summing up the Hartree potential.
  Time summed over all CPUs for potential: real work        0.027 s, elapsed        0.027 s
  | RMS charge density error from multipole expansion :   0.646973E-02

  Integrating Hamiltonian matrix: batch-based integration.
  Time summed over all CPUs for integration: real work        0.032 s, elapsed        0.034 s

  Updating Kohn-Sham eigenvalues and eigenvectors using ELSI and the ELPA eigensolver.
  Starting ELPA eigensolver
  Finished transformation to standard eigenproblem
  | Time :     0.000 s
  Finished solving standard eigenproblem
  | Time :     0.000 s
  Finished back-transformation of eigenvectors
  | Time :     0.000 s

  Obtaining occupation numbers and chemical potential using ELSI.
  | Chemical potential (Fermi level):    -0.79455095 eV
  Highest occupied state (VBM) at     -7.07397249 eV
  | Occupation number:      2.00000000

  Lowest unoccupied state (CBM) at     0.07396447 eV
  | Occupation number:      0.00000000

  Overall HOMO-LUMO gap:      7.14793696 eV.

  Total energy components:
  | Sum of eigenvalues            :         -41.51979147 Ha       -1129.81100994 eV
  | XC energy correction          :          -9.23017895 Ha        -251.16594850 eV
  | XC potential correction       :          11.87294106 Ha         323.07916431 eV
  | Free-atom electrostatic energy:         -35.71003035 Ha        -971.71936649 eV
  | Hartree energy correction     :          -1.79628152 Ha         -48.87930713 eV
  | Entropy correction            :           0.00000000 Ha           0.00000000 eV
  | ---------------------------
  | Total energy                  :         -76.38334124 Ha       -2078.49646776 eV
  | Total energy, T -> 0          :         -76.38334124 Ha       -2078.49646776 eV  <-- do not rely on this value for anything but (periodic) metals
  | Electronic free energy        :         -76.38334124 Ha       -2078.49646776 eV

  Derived energy quantities:
  | Kinetic energy                :          76.08331127 Ha        2070.33223711 eV
  | Electrostatic energy          :        -143.23647356 Ha       -3897.66275637 eV
  | Energy correction for multipole
  | error in Hartree potential    :          -0.00338928 Ha          -0.09222701 eV
  | Sum of eigenvalues per atom                           :        -376.60366998 eV
  | Total energy (T->0) per atom                          :        -692.83215592 eV  <-- do not rely on this value for anything but (periodic) metals
  | Electronic free energy per atom                       :        -692.83215592 eV

  Self-consistency convergence accuracy:
  | Change of charge density      :  0.2046E-04
  | Change of sum of eigenvalues  : -0.2646E-02 eV
  | Change of total energy        :  0.3906E-07 eV

  End self-consistency iteration #     8       :  max(cpu_time)    wall_clock(cpu1)
  | Time for this iteration                    :        0.013 s           0.013 s
  | Charge density update                      :        0.003 s           0.002 s
  | Density mixing                             :        0.001 s           0.001 s
  | Hartree multipole update                   :        0.001 s           0.001 s
  | Hartree multipole summation                :        0.004 s           0.003 s
  | Integration                                :        0.004 s           0.005 s
  | Solution of K.-S. eqns.                    :        0.001 s           0.000 s
  | Total energy evaluation                    :        0.000 s           0.000 s

  Partial memory accounting:
  | Current value for overall tracked memory usage:
  |   Minimum:        0.007 MB (on task 4)
  |   Maximum:        0.008 MB (on task 0)
  |   Average:        0.007 MB
  | Peak value for overall tracked memory usage:
  |   Minimum:        0.083 MB (on task 4 after allocating gradient_basis_wave)
  |   Maximum:        0.084 MB (on task 0 after allocating gradient_basis_wave)
  |   Average:        0.083 MB
  | Largest tracked array allocation so far:
  |   Minimum:        0.057 MB (gradient_basis_wave on task 0)
  |   Maximum:        0.057 MB (gradient_basis_wave on task 0)
  |   Average:        0.057 MB
  Note:  These values currently only include a subset of arrays which are explicitly tracked.
  The "true" memory usage will be greater.
------------------------------------------------------------

------------------------------------------------------------
          Begin self-consistency iteration #    9

  Date     :  20190817, Time     :  153141.333
------------------------------------------------------------
  Evaluating new KS density.
  Integration grid: deviation in total charge (<rho> - N_e) =   8.881784E-15
  Pulay mixing of updated and previous charge densities.
  Renormalizing the density to the exact electron count on the 3D integration grid.
  | Formal number of electrons (from input files) :      10.0000000000
  | Integrated number of electrons on 3D grid     :      10.0000000000
  | Charge integration error                      :       0.0000000000
  | Normalization factor for density and gradient :       1.0000000000

  Evaluating partitioned Hartree potential by multipole expansion.
  | Original multipole sum: apparent total charge =  -0.122989E-13
  | Sum of charges compensated after spline to logarithmic grids =   0.163098E-03
  | Analytical far-field extrapolation by fixed multipoles:
  | Hartree multipole sum: apparent total charge =  -0.116347E-13
  Summing up the Hartree potential.
  Time summed over all CPUs for potential: real work        0.026 s, elapsed        0.026 s
  | RMS charge density error from multipole expansion :   0.646975E-02

  Integrating Hamiltonian matrix: batch-based integration.
  Time summed over all CPUs for integration: real work        0.033 s, elapsed        0.034 s

  Updating Kohn-Sham eigenvalues and eigenvectors using ELSI and the ELPA eigensolver.
  Starting ELPA eigensolver
  Finished transformation to standard eigenproblem
  | Time :     0.000 s
  Finished solving standard eigenproblem
  | Time :     0.000 s
  Finished back-transformation of eigenvectors
  | Time :     0.000 s

  Obtaining occupation numbers and chemical potential using ELSI.
  | Chemical potential (Fermi level):    -0.79455110 eV
  Highest occupied state (VBM) at     -7.07397416 eV
  | Occupation number:      2.00000000

  Lowest unoccupied state (CBM) at     0.07396625 eV
  | Occupation number:      0.00000000

  Overall HOMO-LUMO gap:      7.14794040 eV.

  Total energy components:
  | Sum of eigenvalues            :         -41.51979277 Ha       -1129.81104533 eV
  | XC energy correction          :          -9.23017882 Ha        -251.16594478 eV
  | XC potential correction       :          11.87294088 Ha         323.07915952 eV
  | Free-atom electrostatic energy:         -35.71003035 Ha        -971.71936649 eV
  | Hartree energy correction     :          -1.79628018 Ha         -48.87927069 eV
  | Entropy correction            :           0.00000000 Ha           0.00000000 eV
  | ---------------------------
  | Total energy                  :         -76.38334124 Ha       -2078.49646778 eV
  | Total energy, T -> 0          :         -76.38334124 Ha       -2078.49646778 eV  <-- do not rely on this value for anything but (periodic) metals
  | Electronic free energy        :         -76.38334124 Ha       -2078.49646778 eV

  Derived energy quantities:
  | Kinetic energy                :          76.08330841 Ha        2070.33215922 eV
  | Electrostatic energy          :        -143.23647083 Ha       -3897.66268222 eV
  | Energy correction for multipole
  | error in Hartree potential    :          -0.00338930 Ha          -0.09222767 eV
  | Sum of eigenvalues per atom                           :        -376.60368178 eV
  | Total energy (T->0) per atom                          :        -692.83215593 eV  <-- do not rely on this value for anything but (periodic) metals
  | Electronic free energy per atom                       :        -692.83215593 eV

  Self-consistency convergence accuracy:
  | Change of charge density      :  0.8663E-06
  | Change of sum of eigenvalues  : -0.3539E-04 eV
  | Change of total energy        : -0.2146E-07 eV

  Writing Kohn-Sham eigenvalues.

  State    Occupation    Eigenvalue [Ha]    Eigenvalue [eV]
      1       2.00000         -18.759557         -510.47353
      2       2.00000          -0.923681          -25.13465
      3       2.00000          -0.478525          -13.02134
      4       2.00000          -0.338168           -9.20202
      5       2.00000          -0.259964           -7.07397
      6       0.00000           0.002718            0.07397
      7       0.00000           0.100362            2.73098
      8       0.00000           0.298241            8.11556
      9       0.00000           0.334196            9.09394
     10       0.00000           0.369644           10.05854
     11       0.00000           0.575006           15.64671

  Highest occupied state (VBM) at     -7.07397416 eV
  | Occupation number:      2.00000000

  Lowest unoccupied state (CBM) at     0.07396625 eV
  | Occupation number:      0.00000000

  Overall HOMO-LUMO gap:      7.14794040 eV.

  Self-consistency cycle converged.

  End self-consistency iteration #     9       :  max(cpu_time)    wall_clock(cpu1)
  | Time for this iteration                    :        0.013 s           0.013 s
  | Charge density update                      :        0.003 s           0.002 s
  | Density mixing                             :        0.001 s           0.000 s
  | Hartree multipole update                   :        0.001 s           0.001 s
  | Hartree multipole summation                :        0.003 s           0.003 s
  | Integration                                :        0.004 s           0.005 s
  | Solution of K.-S. eqns.                    :        0.001 s           0.000 s
  | Total energy evaluation                    :        0.000 s           0.001 s

  Partial memory accounting:
  | Current value for overall tracked memory usage:
  |   Minimum:        0.007 MB (on task 4)
  |   Maximum:        0.008 MB (on task 0)
  |   Average:        0.007 MB
  | Peak value for overall tracked memory usage:
  |   Minimum:        0.083 MB (on task 4 after allocating gradient_basis_wave)
  |   Maximum:        0.084 MB (on task 0 after allocating gradient_basis_wave)
  |   Average:        0.083 MB
  | Largest tracked array allocation so far:
  |   Minimum:        0.057 MB (gradient_basis_wave on task 0)
  |   Maximum:        0.057 MB (gradient_basis_wave on task 0)
  |   Average:        0.057 MB
  Note:  These values currently only include a subset of arrays which are explicitly tracked.
  The "true" memory usage will be greater.
------------------------------------------------------------

  Energy and forces in a compact form:
  | Total energy uncorrected      :         -0.207849646777710E+04 eV
  | Total energy corrected        :         -0.207849646777710E+04 eV  <-- do not rely on this value for anything but (periodic) metals
  | Electronic free energy        :         -0.207849646777710E+04 eV

  ------------------------------------ 
  Start decomposition of the XC Energy 
  ------------------------------------ 
  X and C from original XC functional choice 
  Hartree-Fock Energy :          0.000000000 Ha              0.000000000 eV
  X Energy            :         -8.905138431 Ha           -242.321145885 eV
  C Energy            :         -0.325040385 Ha             -8.844798899 eV
  Total XC Energy     :         -9.230178817 Ha           -251.165944784 eV
  ------------------------------------ 
  LDA X and C from self-consistent density 
  X Energy LDA        :         -8.090499804 Ha           -220.153700954 eV
  C Energy LDA        :         -0.659237978 Ha            -17.938778090 eV
  ------------------------------------ 
  End decomposition of the XC Energy 
  ------------------------------------ 

------------------------------------------------------------
   
  ESP charge fitting starts.
  | Calculation :  00000001  of  00000001
  | Transistion Eigenstate i -> j:  00000004 00000006
  | Spin:  00000001
  | k-point:  00000001
  Computing density for Cluster case.
  Computing multipole expansion for transition density.
  | Original multipole sum: apparent total charge =   0.122989E-16
  | Sum of charges compensated after spline to logarithmic grids =  -0.185433E-04
  Generating points for esp charges.
  Partitioning the integration grid into batches with parallel hashing+maxmin method.
  | Number of batches:     8244
  | Maximal batch size:     120
  | Minimal batch size:      59
  | Average batch size:     117.951
  | Standard deviation of batch sizes:       6.633

  Integration load balanced across     8 MPI tasks.
  Work distribution over tasks is as follows:
  Summing up potential from multipole expanded  density.
  Summing up the Hartree potential.
  Time summed over all CPUs for potential: real work        0.655 s, elapsed        0.663 s
  Fitting esp charges to potential.
  |
  | ESP charges fitted to the electrostatic potential :
  |
  | Atom         1: O, ESP charge:      0.51722673
  |
  | Atom         2: H, ESP charge:     -0.25863103
  |
  | Atom         3: H, ESP charge:     -0.25859570

  Dipole matrix element:       0.00005123    -0.58380760     0.00000000
  RRMS:       0.05757534

  Done.
  |------------------------------------------------------
  | Final ELSI Output
  |------------------------------------------------------
  |
  | Physical Properties
  |   Number of electrons       :        0.10000000E+02
  |   Number of spins           :                     1
  |   Number of k-points        :                     1
  |   Number of states          :                    11
  |
  | Matrix Properties
  |   Matrix format             :           BLACS_DENSE
  |   Number of basis functions :                    24
  |   Matrix sparsity           :        0.45833333E+00
  |
  | Computational Details
  |   Parallel mode             :            MULTI_PROC
  |   Number of MPI tasks       :                     8
  |   Solver requested          :                  ELPA
  |   Number of ELSI calls      :                    10
  |
  |------------------------------------------------------
  | ELSI Project (c)  elsi-interchange.org
  |------------------------------------------------------

------------------------------------------------------------------------------
  Final output of selected total energy values:

  The following output summarizes some interesting total energy values
  at the end of a run (AFTER all relaxation, molecular dynamics, etc.).

  | Total energy of the DFT / Hartree-Fock s.c.f. calculation      :          -2078.496467777 eV
  | Final zero-broadening corrected energy (caution - metals only) :          -2078.496467777 eV
  | For reference only, the value of 1 Hartree used in FHI-aims is :             27.211384500 eV

  Before relying on these values, please be sure to understand exactly which
  total energy value is referred to by a given number. Different objects may
  all carry the same name 'total energy'. Definitions:

  Total energy of the DFT / Hartree-Fock s.c.f. calculation:
  | Note that this energy does not include ANY quantities calculated after the
  | s.c.f. cycle, in particular not ANY RPA, MP2, etc. many-body perturbation terms.

  Final zero-broadening corrected energy:
  | For metallic systems only, a broadening of the occupation numbers at the Fermi
  | level can be extrapolated back to zero broadening by an electron-gas inspired
  | formula. For all systems that are not real metals, this value can be
  | meaningless and should be avoided.

------------------------------------------------------------------------------
  Methods described in the following list of references were used in this FHI-aims run.
  If you publish the results, please make sure to cite these reference if they apply.
  FHI-aims is an academic code, and for our developers (often, Ph.D. students
  and postdocs), scientific credit in the community is essential.
  Thank you for helping us!

  For any use of FHI-aims, please cite:

    Volker Blum, Ralf Gehrke, Felix Hanke, Paula Havu, Ville Havu,
    Xinguo Ren, Karsten Reuter, and Matthias Scheffler
    'Ab initio molecular simulations with numeric atom-centered orbitals'
    Computer Physics Communications 180, 2175-2196 (2009)
    http://dx.doi.org/10.1016/j.cpc.2009.06.022


  The ELSI infrastructure was used in your run to solve the Kohn-Sham electronic structure.
  Please check out http://elsi-interchange.org to learn more.
  If scalability is important for your project, please acknowledge ELSI by citing:

    V. W-z. Yu, F. Corsetti, A. Garcia, W. P. Huhn, M. Jacquelin, W. Jia,
    B. Lange, L. Lin, J. Lu, W. Mi, A. Seifitokaldani, A. Vazquez-Mayagoitia,
    C. Yang, H. Yang, and V. Blum
    'ELSI: A unified software interface for Kohn-Sham electronic structure solvers'
    Computer Physics Communications 222, 267-285 (2018).
    http://dx.doi.org/10.1016/j.cpc.2017.09.007


  For the real-space grid partitioning and parallelization used in this calculation, please cite:

    Ville Havu, Volker Blum, Paula Havu, and Matthias Scheffler,
    'Efficient O(N) integration for all-electron electronic structure calculation'
    'using numerically tabulated basis functions'
    Journal of Computational Physics 228, 8367-8379 (2009).
    http://dx.doi.org/10.1016/j.jcp.2009.08.008

  Of course, there are many other important community references, e.g., those cited in the
  above references. Our list is limited to references that describe implementations in the
  FHI-aims code. The reason is purely practical (length of this list) - please credit others as well.

------------------------------------------------------------
          Leaving FHI-aims.
          Date     :  20190817, Time     :  153141.886

          Computational steps:
          | Number of self-consistency cycles          :            9
          | Number of SCF (re)initializations          :            1

          Detailed time accounting                     :  max(cpu_time)    wall_clock(cpu1)
          | Total time                                 :        0.804 s           0.808 s
          | Preparation time                           :        0.087 s           0.087 s
          | Boundary condition initalization           :        0.000 s           0.000 s
          | Grid partitioning                          :        0.004 s           0.004 s
          | Preloading free-atom quantities on grid    :        0.001 s           0.001 s
          | Free-atom superposition energy             :        0.002 s           0.002 s
          | Total time for integrations                :        0.046 s           0.045 s
          | Total time for solution of K.-S. equations :        0.007 s           0.010 s
          | Total time for density update              :        0.025 s           0.023 s
          | Total time for mixing                      :        0.004 s           0.006 s
          | Total time for Hartree multipole update    :        0.008 s           0.006 s
          | Total time for Hartree multipole sum       :        0.032 s           0.030 s
          | Total time for total energy evaluation     :        0.002 s           0.001 s

          Partial memory accounting:
          | Residual value for overall tracked memory usage across tasks:     0.000000 MB (should be 0.000000 MB)
          | Peak values for overall tracked memory usage:
          |   Minimum:        0.083 MB (on task 4 after allocating gradient_basis_wave)
          |   Maximum:        0.084 MB (on task 0 after allocating gradient_basis_wave)
          |   Average:        0.083 MB
          | Largest tracked array allocation:
          |   Minimum:        0.057 MB (gradient_basis_wave on task 0)
          |   Maximum:        0.057 MB (gradient_basis_wave on task 0)
          |   Average:        0.057 MB
          Note:  These values currently only include a subset of arrays which are explicitly tracked.
          The "true" memory usage will be greater.

          Have a nice day.
------------------------------------------------------------
