  MPI-parallelism will be employed.
------------------------------------------------------------
          Invoking FHI-aims ...
          Version 180101-
          Git rev. (modified): fa29f3a Merge branch master of fhiaims.rzberlin.mp[...]
          Compiled on 2018/01/19 at 14:47:46 on host theobook132.

          When using FHI-aims, please cite the following reference:

          Volker Blum, Ralf Gehrke, Felix Hanke, Paula Havu,
          Ville Havu, Xinguo Ren, Karsten Reuter, and Matthias Scheffler,
          'Ab Initio Molecular Simulations with Numeric Atom-Centered Orbitals',
          Computer Physics Communications 180, 2175-2196 (2009)

          For any questions about FHI-aims, please visit the aimsclub website
          with its forums and wiki. Contributions to both the forums and the
          wiki are warmly encouraged - they are for you, and everyone is welcome there.

------------------------------------------------------------



  Date     :  20180214, Time     :  162544.800
  Time zero on CPU 1             :   0.400000000000000E-01  s.
  Internal wall clock time zero  :           287857544.800  s.

  FHI-aims created a unique identifier for this run for later identification
  aims_uuid : 54882D26-4F97-4638-A8C1-796DD8902475

  Using        8 parallel tasks.
  Task        0 on host theobook132 reporting.
  Task        1 on host theobook132 reporting.
  Task        2 on host theobook132 reporting.
  Task        3 on host theobook132 reporting.
  Task        4 on host theobook132 reporting.
  Task        5 on host theobook132 reporting.
  Task        6 on host theobook132 reporting.
  Task        7 on host theobook132 reporting.

  Performing system and environment tests:
  *** Environment variable OMP_NUM_THREADS is not set
  *** For performance reasons you might want to set it to 1
  | Stacksize not measured: no C compiler
  | Checking for scalapack...
  | No scalapack compiled in.

  Obtaining array dimensions for all initial allocations:
  
  -----------------------------------------------------------------------
  Parsing control.in (first pass over file, find array dimensions only).
  The contents of control.in will be repeated verbatim below
  unless switched off by setting 'verbatim_writeout .false.' .
  in the first line of control.in .
  -----------------------------------------------------------------------
  
  ################################################################################
  #
  #		Control.in generated by mkcontrol
  #
  ################################################################################
  xc			pbe
  vdw_correction_hirshfeld
  charge			-1.0
  relativistic		atomic_zora scalar
  sc_accuracy_rho		1E-5
  sc_accuracy_eev		1E-3
  sc_accuracy_etot	1E-6
  sc_iter_limit		1000	
  
  compute_forces .true.
  final_forces_cleaned .true.
  
  
  ################################################################################
  #
  #  FHI-aims code project
  # Volker Blum, Fritz Haber Institute Berlin, 2009
  #
  #  Suggested "tight" defaults for H atom (to be pasted into control.in file)
  #
  ################################################################################
    species        H
  #     global species definitions
      nucleus             1
      mass                1.00794
  #
      l_hartree           6
  #
      cut_pot             4.0  2.0  1.0
      basis_dep_cutoff    1e-4
  #
      radial_base         24 7.0
      radial_multiplier   2
      angular_grids       specified
        division   0.1930   50
        division   0.3175  110
        division   0.4293  194
        division   0.5066  302
        division   0.5626  434
  #      division   0.5922  590
  #      division   0.6227  974
  #      division   0.6868 1202
  #      outer_grid  770
        outer_grid  434
  ################################################################################
  #
  #  Definition of "minimal" basis
  #
  ################################################################################
  #     valence basis states
      valence      1  s   1.
  #     ion occupancy
      ion_occ      1  s   0.5
  ################################################################################
  #
  #  Suggested additional basis functions. For production calculations,
  #  uncomment them one after another (the most important basis functions are
  #  listed first).
  #
  #  Basis constructed for dimers: 0.5 A, 0.7 A, 1.0 A, 1.5 A, 2.5 A
  #
  ################################################################################
  #  "First tier" - improvements: -1014.90 meV to -62.69 meV
       hydro 2 s 2.1
       hydro 2 p 3.5
  #  "Second tier" - improvements: -12.89 meV to -1.83 meV
       hydro 1 s 0.85
       hydro 2 p 3.7
       hydro 2 s 1.2
       hydro 3 d 7
  #  "Third tier" - improvements: -0.25 meV to -0.12 meV
  #     hydro 4 f 11.2
  #     hydro 3 p 4.8
  #     hydro 4 d 9
  #     hydro 3 s 3.2
  
  
  
  ################################################################################
  #
  #  FHI-aims code project
  # Volker Blum, Fritz Haber Institute Berlin, 2009
  #
  #  Suggested "tight" defaults for C atom (to be pasted into control.in file)
  #
  ################################################################################
    species        C
  #     global species definitions
      nucleus             6
      mass                12.0107
  #
      l_hartree           6
  #
      cut_pot             4.0  2.0  1.0
      basis_dep_cutoff    1e-4
  #
      radial_base         34 7.0
      radial_multiplier   2
      angular_grids specified
        division   0.2187   50
        division   0.4416  110
        division   0.6335  194
        division   0.7727  302
        division   0.8772  434
  #      division   0.9334  590
  #      division   0.9924  770
  #      division   1.0230  974
  #      division   1.5020 1202
  #     outer_grid  974
        outer_grid  434
  ################################################################################
  #
  #  Definition of "minimal" basis
  #
  ################################################################################
  #     valence basis states
      valence      2  s   2.
      valence      2  p   2.
  #     ion occupancy
      ion_occ      2  s   1.
      ion_occ      2  p   1.
  ################################################################################
  #
  #  Suggested additional basis functions. For production calculations,
  #  uncomment them one after another (the most important basis functions are
  #  listed first).
  #
  #  Constructed for dimers: 1.0 A, 1.25 A, 1.5 A, 2.0 A, 3.0 A
  #
  ################################################################################
  #  "First tier" - improvements: -1214.57 meV to -155.61 meV
       hydro 2 p 1.7
       hydro 3 d 6
       hydro 2 s 4.9
  #  "Second tier" - improvements: -67.75 meV to -5.23 meV
       hydro 4 f 9.8
       hydro 3 p 5.2
       hydro 3 s 4.3
       hydro 5 g 14.4
       hydro 3 d 6.2
  #  "Third tier" - improvements: -2.43 meV to -0.60 meV
  #     hydro 2 p 5.6
  #     hydro 2 s 1.4
  #     hydro 3 d 4.9
  #     hydro 4 f 11.2
  #  "Fourth tier" - improvements: -0.39 meV to -0.18 meV
  #     hydro 2 p 2.1
  #     hydro 5 g 16.4
  #     hydro 4 d 13.2
  #     hydro 3 s 13.6
  #     hydro 4 f 17.6
  #  Further basis functions - improvements: -0.08 meV and below
  #     hydro 3 s 2
  #     hydro 3 p 6
  #     hydro 4 d 20
  
  ################################################################################
  #
  #  FHI-aims code project
  #  VB, Fritz-Haber Institut, 2009
  #
  #  Suggested "light" defaults for Cl atom (to be pasted into control.in file)
  #  Be sure to double-check any results obtained with these settings for
  #post-processing,
  #  e.g., with the "tight" defaults and larger basis sets.
  #
  ################################################################################
    species        Cl
  #     global species definitions
      nucleus             17
      mass                35.453
  #
      l_hartree           4
  #
      cut_pot             3.5          1.5  1.0
      basis_dep_cutoff    1e-4
  #
      radial_base         45 5.0
      radial_multiplier   1
      angular_grids       specified
        division   0.4412  110
        division   0.5489  194
        division   0.6734  302
  #      division   0.7794  434
  #      division   0.9402  590
  #      division   1.0779  770
  #      division   1.1792  974
  #      outer_grid  974
        outer_grid  302
  ################################################################################
  #
  #  Definition of "minimal" basis
  #
  ################################################################################
  #     valence basis states
      valence      3  s   2.
      valence      3  p   5.
  #     ion occupancy
      ion_occ      3  s   1.
      ion_occ      3  p   4.
  ################################################################################
  #
  #  Suggested additional basis functions. For production calculations,
  #  uncomment them one after another (the most important basis functions are
  #  listed first).
  #
  #  Constructed for dimers: 1.65 A, 2.0 A, 2.5 A, 3.25 A, 4.0 A
  #
  ################################################################################
  #  "First tier" - improvements: -429.57 meV to -15.03 meV
       ionic 3 d auto
       hydro 2 p 1.9
  #     hydro 4 f 7.4
       ionic 3 s auto
  #     hydro 5 g 10.4
  #  "Second tier" - improvements: -7.84 meV to -0.48 meV
  #     hydro 3 d 3.3
  #     hydro 5 f 9.8
  #     hydro 1 s 0.75
  #     hydro 5 g 11.2
  #     hydro 4 p 10.4
  #  "Third tier" - improvements: -1.00 meV to -0.12 meV
  #     hydro 4 d 12.8
  #     hydro 4 f 4.6
  #     hydro 4 d 10.8
  #     hydro 2 s 1.8
  #     hydro 3 p 3
  #  Further functions that fell out - improvements: -0.10 meV and below
  #     hydro 5 f 14.4
  #     hydro 4 s 12.8
  #     hydro 3 d 11.6
  #     hydro 4 s 4.1
  
  -----------------------------------------------------------------------
  Completed first pass over input file control.in .
  -----------------------------------------------------------------------
  
  
  -----------------------------------------------------------------------
  Parsing geometry.in (first pass over file, find array dimensions only).
  The contents of geometry.in will be repeated verbatim below
  unless switched off by setting 'verbatim_writeout .false.' .
  in the first line of geometry.in .
  -----------------------------------------------------------------------
  
  #=======================================#
  # iterations/iteration0044/aims-chain-node-0.71429/geometry.in
  #=======================================#
  atom 0.0000000000000000 0.0000000000000000 0.0000000000000000 Cl
  constrain_relaxation .true.
  atom 2.1135681878422785 0.0000000000000000 0.0000000000027149 C
  constrain_relaxation y
  atom 4.7413037511265888 0.0000000000000000 -0.0000000000034008 Cl
  constrain_relaxation y
  atom 2.3174898962282660 1.0631564436329299 0.0000000000024120 H
  atom 2.3175147927657078 -0.5315839208893929 0.9207078253407304 H
  atom 2.3175147927588284 -0.5315839208894719 -0.9207078253360443 H
  
  -----------------------------------------------------------------------
  Completed first pass over input file geometry.in .
  -----------------------------------------------------------------------
  

  Basic array size parameters:
  | Number of species                 :        3
  | Number of atoms                   :        6
  | Max. basis fn. angular momentum   :        4
  | Max. atomic/ionic basis occupied n:        3
  | Max. number of basis fn. types    :        3
  | Max. radial fns per species/type  :        8
  | Max. logarithmic grid size        :     1362
  | Max. radial integration grid size :       69
  | Max. angular integration grid size:      434
  | Max. angular grid division number :        8
  | Radial grid for Hartree potential :     1362
  | Number of spin channels           :        1

------------------------------------------------------------
          Reading file control.in.
------------------------------------------------------------
  XC: Using PBE gradient-corrected functionals.
  Charged system requested: Charge =  -0.100000E+01.
  Scalar relativistic treatment of kinetic energy: on-site free-atom approximation to ZORA.
  Convergence accuracy of self-consistent charge density:  0.1000E-04
  Convergence accuracy of sum of eigenvalues:  0.1000E-02
  Convergence accuracy of total energy:  0.1000E-05
  Maximum number of s.-c. iterations  :  1000
  Forces will be computed.
  Cleaning forces before final output.
 
  Reading configuration options for species H                   .
  | Found nuclear charge :   1.0000
  | Found atomic mass :    1.00794000000000      amu
  | Found l_max for Hartree potential  :   6
  | Found cutoff potl. onset [A], width [A], scale factor :    4.00000    2.00000    1.00000
  | Threshold for basis-dependent cutoff potential is   0.100000E-03
  | Found data for basic radial integration grid :    24 points, outermost radius =    7.000 A
  | Found multiplier for basic radial grid :   2
  | Found angular grid specification: user-specified.
  | Specified grid contains     6 separate shells.
  | Check grid settings after all constraints further below.
  | Found free-atom valence shell :  1 s   1.000
  | Found free-ion valence shell :  1 s   0.500
  | Found hydrogenic basis function :  2 s   2.100
  | Found hydrogenic basis function :  2 p   3.500
  | Found hydrogenic basis function :  1 s   0.850
  | Found hydrogenic basis function :  2 p   3.700
  | Found hydrogenic basis function :  2 s   1.200
  | Found hydrogenic basis function :  3 d   7.000
  Species H                   : Missing cutoff potential type.
  Defaulting to exp(1/x)/(1-x)^2 type cutoff potential.
  Species H : No 'logarithmic' tag. Using default grid for free atom:
  | Default logarithmic grid data [bohr] : 0.1000E-03 0.1000E+03 0.1012E+01
  Species H : On-site basis accuracy parameter (for Gram-Schmidt orthonormalisation) not specified.
  Using default value basis_acc =  0.1000000E-03.
  Species H                   : Using default innermost maximum threshold i_radial=  2 for radial functions.
  Species H                   : Default cutoff onset for free atom density etc. : 0.40000000E+01 AA.
  Species H                   : Basic radial grid will be enhanced according to radial_multiplier =   2, to contain    49 grid points.
 
  Reading configuration options for species C                   .
  | Found nuclear charge :   6.0000
  | Found atomic mass :    12.0107000000000      amu
  | Found l_max for Hartree potential  :   6
  | Found cutoff potl. onset [A], width [A], scale factor :    4.00000    2.00000    1.00000
  | Threshold for basis-dependent cutoff potential is   0.100000E-03
  | Found data for basic radial integration grid :    34 points, outermost radius =    7.000 A
  | Found multiplier for basic radial grid :   2
  | Found angular grid specification: user-specified.
  | Specified grid contains     6 separate shells.
  | Check grid settings after all constraints further below.
  | Found free-atom valence shell :  2 s   2.000
  | Found free-atom valence shell :  2 p   2.000
  | Found free-ion valence shell :  2 s   1.000
  | Found free-ion valence shell :  2 p   1.000
  | Found hydrogenic basis function :  2 p   1.700
  | Found hydrogenic basis function :  3 d   6.000
  | Found hydrogenic basis function :  2 s   4.900
  | Found hydrogenic basis function :  4 f   9.800
  | Found hydrogenic basis function :  3 p   5.200
  | Found hydrogenic basis function :  3 s   4.300
  | Found hydrogenic basis function :  5 g  14.400
  | Found hydrogenic basis function :  3 d   6.200
  Species C                   : Missing cutoff potential type.
  Defaulting to exp(1/x)/(1-x)^2 type cutoff potential.
  Species C : No 'logarithmic' tag. Using default grid for free atom:
  | Default logarithmic grid data [bohr] : 0.1000E-03 0.1000E+03 0.1012E+01
  Species C : On-site basis accuracy parameter (for Gram-Schmidt orthonormalisation) not specified.
  Using default value basis_acc =  0.1000000E-03.
  Species C                   : Using default innermost maximum threshold i_radial=  2 for radial functions.
  Species C                   : Default cutoff onset for free atom density etc. : 0.40000000E+01 AA.
  Species C                   : Basic radial grid will be enhanced according to radial_multiplier =   2, to contain    69 grid points.
 
  Reading configuration options for species Cl                  .
  | Found nuclear charge :  17.0000
  | Found atomic mass :    35.4530000000000      amu
  | Found l_max for Hartree potential  :   4
  | Found cutoff potl. onset [A], width [A], scale factor :    3.50000    1.50000    1.00000
  | Threshold for basis-dependent cutoff potential is   0.100000E-03
  | Found data for basic radial integration grid :    45 points, outermost radius =    5.000 A
  | Found multiplier for basic radial grid :   1
  | Found angular grid specification: user-specified.
  | Specified grid contains     4 separate shells.
  | Check grid settings after all constraints further below.
  | Found free-atom valence shell :  3 s   2.000
  | Found free-atom valence shell :  3 p   5.000
  | Found free-ion valence shell :  3 s   1.000
  | Found free-ion valence shell :  3 p   4.000
  | Found ionic basis function :  3 d , default cutoff radius.
  | Found hydrogenic basis function :  2 p   1.900
  | Found ionic basis function :  3 s , default cutoff radius.
  Species Cl                  : Missing cutoff potential type.
  Defaulting to exp(1/x)/(1-x)^2 type cutoff potential.
  Species Cl: No 'logarithmic' tag. Using default grid for free atom:
  | Default logarithmic grid data [bohr] : 0.1000E-03 0.1000E+03 0.1012E+01
  | Will include ionic basis functions of  2.0-fold positive Cl                   ion.
  Species Cl: On-site basis accuracy parameter (for Gram-Schmidt orthonormalisation) not specified.
  Using default value basis_acc =  0.1000000E-03.
  Species Cl                  : Using default innermost maximum threshold i_radial=  2 for radial functions.
  Species Cl                  : Default cutoff onset for free atom density etc. : 0.35000000E+01 AA.
  Species Cl                  : Basic radial grid will be enhanced according to radial_multiplier =   1, to contain    45 grid points.
 
  Finished reading input file 'control.in'. Consistency checks are next.
 
  MPI_IN_PLACE appears to work with this MPI implementation.
  | Keeping use_mpi_in_place .true. (see manual).
  Target number of points in a grid batch is not set. Defaulting to  100
  Method for grid partitioning is not set. Defaulting to parallel hash+maxmin partitioning.
  Batch size limit is not set. Defaulting to    200
  By default, will store active basis functions for each batch.
  If in need of memory, prune_basis_once .false. can be used to disable this option.
  communication_type for Hartree potential was not specified.
  Defaulting to calc_hartree .
  Defaulting to Pulay charge density mixer.
  Pulay mixer: Number of relevant iterations not set.
  Defaulting to    8 iterations.
  Pulay mixer: Number of initial linear mixing iterations not set.
  Defaulting to    0 iterations.
  Work space size for distributed Hartree potential not set.
  Defaulting to   0.200000E+03 MB.
  Mixing parameter for charge density mixing has not been set.
  Using default: charge_mix_param =     0.0500.
  The mixing parameter will be adjusted in iteration number     2 of the first full s.c.f. cycle only.
  Algorithm-dependent basis array size parameters:
  | n_max_pulay                         :        8
  Presetting        40 iterations before the initial mixing cycle
  is restarted anyway using the sc_init_iter criterion / keyword.
  Presetting a factor      1.000 between actual scf density residual
  and density convergence criterion sc_accuracy_rho below which sc_init_iter
  takes no effect.
  Geometry relaxation not requested: no relaxation will be performed.
  Force calculation: scf convergence accuracy of forces not set.
  Defaulting to 'sc_accuracy_forces not_checked'.
  Handling of forces: Unphysical translation and rotation will be removed from forces.
  No accuracy limit for integral partition fn. given. Defaulting to  0.1000E-14.
  No threshold value for u(r) in integrations given. Defaulting to  0.1000E-05.
  No occupation type (smearing scheme) given. Defaulting to Gaussian broadening, width =  0.1000E-01 eV.
  The width will be adjusted in iteration number     2 of the first full s.c.f. cycle only.
  S.C.F. convergence parameters will be adjusted in iteration number     2 of the first full s.c.f. cycle only.
  No accuracy for occupation numbers given. Defaulting to  0.1000E-12.
  No threshold value for occupation numbers given. Defaulting to  0.0000E+00.
  No accuracy for fermi level given. Defaulting to  0.1000E-19.
  Maximum # of iterations to find E_F not set. Defaulting to  200.
  Preferred method for the eigenvalue solver ('KS_method') not specified in 'control.in'.
  Calling BLACS routine to test compilation state
  The best choice would be 'elsi', but your version of FHI-aims is compiled without ScaLAPACK support.
  Defaulting to 'lapack_fast' instead (serial solution, time will not improve with more CPUs).
  Will not use alltoall communication since running on < 1024 CPUs.
  Threshold for basis singularities not set.
  Default threshold for basis singularities:  0.1000E-04
  partition_type (choice of integration weights) for integrals was not specified.
  | Using a version of the partition function of Stratmann and coworkers ('stratmann_smoother').
  | At each grid point, the set of atoms used to build the partition table is smoothly restricted to
  | only those atoms whose free-atom density would be non-zero at that grid point.
  Partitioning for Hartree potential was not defined. Using partition_type for integrals.
  | Adjusted default value of keyword multip_moments_threshold to:       0.10000000E-11
  | This value may affect high angular momentum components of the Hartree potential in periodic systems.
  Spin handling was not defined in control.in. Defaulting to unpolarized case.
  No q(lm)/r^(l+1) cutoff set for long-range Hartree potential.
  | Using default value of  0.100000E-09 .
  | Verify using the multipole_threshold keyword.
  Defaulting to new monopole extrapolation.
  Density update method: automatic selection selected.
------------------------------------------------------------


------------------------------------------------------------
          Reading geometry description geometry.in.
------------------------------------------------------------
 No relaxation requested - ignoring relaxation constraint.
 No relaxation requested - ignoring relaxation constraint.
 No relaxation requested - ignoring relaxation constraint.
 * Warning: Initial charge and total charge of the system are inconsistent.
 * Selected charge in control.in:    -1.0000* Sum of initial charges in geometry.in:     0.0000
  Input structure read successfully.
  The structure contains        6 atoms,  and a total of         44.000 electrons.

  Input geometry:
  | No unit cell requested.
  | Atomic structure:
  |       Atom                x [A]            y [A]            z [A]
  |    1: Species Cl            0.00000000        0.00000000        0.00000000
  |    2: Species C             2.11356819        0.00000000        0.00000000
  |    3: Species Cl            4.74130375        0.00000000       -0.00000000
  |    4: Species H             2.31748990        1.06315644        0.00000000
  |    5: Species H             2.31751479       -0.53158392        0.92070783
  |    6: Species H             2.31751479       -0.53158392       -0.92070783
  |

  | The smallest distance between any two atoms is         1.08253341 AA.
  |
  | The first atom of this pair is atom number                      2 .
  | The second atom of this pair is atom number                     6 .

  Number of empty states per atom not set in control.in - providing a guess from actual geometry.
  | Total number of empty states used during s.c.f. cycle:       14
  If you use a very high smearing, use empty_states (per atom!) in control.in to increase this value.

  Structure-dependent array size parameters: 
  | Maximum number of distinct radial functions  :       26
  | Maximum number of basis functions            :      120
  | Number of Kohn-Sham states (occupied + empty):       36
------------------------------------------------------------

------------------------------------------------------------
          Preparing all fixed parts of the calculation.
------------------------------------------------------------
  Determining machine precision:
    2.225073858507201E-308
  Setting up grids for atomic and cluster calculations.

  Creating wave function, potential, and density for free atoms.

  Species: H

  List of occupied orbitals and eigenvalues:
    n    l              occ      energy [Ha]    energy [eV]
    1    0           1.0000        -0.238386        -6.4868


  Species: C

  List of occupied orbitals and eigenvalues:
    n    l              occ      energy [Ha]    energy [eV]
    1    0           2.0000       -10.049212      -273.4530
    2    0           2.0000        -0.504761       -13.7352
    2    1           2.0000        -0.193631        -5.2690


  Species: Cl

  List of occupied orbitals and eigenvalues:
    n    l              occ      energy [Ha]    energy [eV]
    1    0           2.0000      -101.451673     -2760.6405
    2    0           2.0000        -9.288282      -252.7470
    3    0           2.0000        -0.759332       -20.6625
    2    1           6.0000        -7.042657      -191.6405
    3    1           5.0000        -0.314806        -8.5663

  Creating fixed part of basis set: Ionic, confined, hydrogenic.
 
  H                    hydrogenic:
 
  List of hydrogenic basis orbitals: 
    n    l      effective z      eigenvalue [eV]  inner max. [A]     outer max. [A]     outer radius [A]   
    2    0         2.100000       -14.9965           0.193243           1.317208           5.373006
    2    1         3.500000       -41.6672           0.602369           0.602369           4.056063
    1    0         0.850000        -9.8292           0.624871           0.624871           5.373006
    2    1         3.700000       -46.5653           0.573622           0.573622           3.910002
    2    0         1.200000        -4.5995           0.334980           2.228188           5.505995
    3    2         7.000000       -74.0753           0.680699           0.680699           3.769201
 
 
  C                    hydrogenic:
 
  List of hydrogenic basis orbitals: 
    n    l      effective z      eigenvalue [eV]  inner max. [A]     outer max. [A]     outer radius [A]   
    2    1         1.700000        -9.8152           1.245706           1.245706           5.401630
    3    2         6.000000       -54.4226           0.792453           0.792453           4.178599
    2    0         4.900000       -81.6681           0.082559           0.562749           3.353238
    4    3         9.800000       -81.6681           0.863254           0.863254           4.028125
    3    1         5.200000       -40.8774           0.305389           1.215618           4.898362
    3    0         4.300000       -27.9508           0.091041           1.610311           5.401630
    5    4        14.400000      -112.8510           0.917666           0.917666           3.883070
    3    2         6.200000       -58.1113           0.763917           0.763917           4.077671
 
 
  Cl                   ion:

  List of free ionic orbitals and eigenvalues:
    n    l      energy [Ha]    energy [eV]
    1    0      -102.554413     -2790.6476
    2    0       -10.359555      -281.8978
    3    0        -1.672516       -45.5115
    2    1        -8.116241      -220.8542
    3    1        -1.184158       -32.2226


  List of ionic basis orbitals and eigenvalues:
    n    l      energy [Ha]    energy [eV]    outer radius [A]
    3    2        -0.527851       -14.3636       4.541334
    3    0        -1.672502       -45.5111       3.428237

 
  Cl                   hydrogenic:
 
  List of hydrogenic basis orbitals: 
    n    l      effective z      eigenvalue [eV]  inner max. [A]     outer max. [A]     outer radius [A]   
    2    1         1.900000       -12.2492           1.113321           1.113321           4.597192
 

  Adding cutoff potential to free-atom effective potential.
  Creating atomic-like basis functions for current effective potential.

  Species H                   :

  List of atomic basis orbitals and eigenvalues:
    n    l      energy [Ha]    energy [eV]    outer radius [A]
    1    0        -0.238386        -6.4868       5.373006


  Species C                   :

  List of atomic basis orbitals and eigenvalues:
    n    l      energy [Ha]    energy [eV]    outer radius [A]
    1    0       -10.049212      -273.4530       1.934409
    2    0        -0.504761       -13.7352       5.271162
    2    1        -0.193631        -5.2690       5.401630


  Species Cl                  :

  List of atomic basis orbitals and eigenvalues:
    n    l      energy [Ha]    energy [eV]    outer radius [A]
    1    0      -101.451673     -2760.6405       0.642251
    2    0        -9.288282      -252.7470       2.102331
    3    0        -0.759332       -20.6625       4.431645
    2    1        -7.042657      -191.6405       2.346844
    3    1        -0.314806        -8.5663       4.541334

  Assembling full basis from fixed parts.
  | Species H :   atomic orbital   1 s accepted.
  | Species H :    hydro orbital   2 s accepted.
  | Species H :    hydro orbital   1 s accepted.
  | Species H :    hydro orbital   2 s accepted.
  | Species H :    hydro orbital   2 p accepted.
  | Species H :    hydro orbital   2 p accepted.
  | Species H :    hydro orbital   3 d accepted.
  | Species C :   atomic orbital   1 s accepted.
  | Species C :    hydro orbital   2 s accepted.
  | Species C :   atomic orbital   2 s accepted.
  | Species C :    hydro orbital   3 s accepted.
  | Species C :    hydro orbital   3 p accepted.
  | Species C :   atomic orbital   2 p accepted.
  | Species C :    hydro orbital   2 p accepted.
  | Species C :    hydro orbital   3 d accepted.
  | Species C :    hydro orbital   3 d accepted.
  | Species C :    hydro orbital   4 f accepted.
  | Species C :    hydro orbital   5 g accepted.
  | Species Cl :   atomic orbital   1 s accepted.
  | Species Cl :   atomic orbital   2 s accepted.
  | Species Cl :    ionic orbital   3 s accepted.
  | Species Cl :   atomic orbital   3 s accepted.
  | Species Cl :   atomic orbital   2 p accepted.
  | Species Cl :   atomic orbital   3 p accepted.
  | Species Cl :    hydro orbital   2 p accepted.
  | Species Cl :    ionic orbital   3 d accepted.
 
  Basis size parameters after reduction:
  | Total number of radial functions:       26
  | Total number of basis functions :      120
 
  Per-task memory consumption for arrays in subroutine allocate_ext:
  |           9.070220MB.
  Testing on-site integration grid accuracy.
  |  Species  Function  <phi|h_atom|phi> (log., in eV)  <phi|h_atom|phi> (rad., in eV)
           1        1                 -6.4870767962                 -6.4871688290
           1        2                 13.5032046589                 13.5028982997
           1        3                 32.8195184817                 32.8119941656
           1        4                 33.8513856511                 33.7670005767 ***
           1        5                 28.8544614965                 28.8544615203
           1        6                 59.6326952547                 59.6327656460
           1        7                 60.2719308513                 60.2719305949
           2        8               -273.4529726040               -273.4529710510
           2        9                -10.7721037319                -10.7721022091
           2       10                 17.6044132601                 17.6044162068
           2       11                 53.7706460658                 53.7706913775
           2       12                 15.0973290362                 15.0973256023
           2       13                  3.8545134692                  3.8545724671
           2       14                 12.1156992592                 12.1182024429
           2       15                 29.4352039302                 29.4352041819
           2       16                 54.8741144708                 54.8740268730
           2       17                 59.3556032049                 59.3556031384
           2       18                 93.4551837154                 93.4551838010
           3       19              -2760.6404887023              -2760.6391663390
           3       20               -252.7470135404               -252.7470033792
           3       21                -20.4099766545                -20.4099452961
           3       22                  8.9880683035                  8.9931146792
           3       23               -191.6404587283               -191.6404582884
           3       24                 -8.5668684731                 -8.5677140829
           3       25                  8.1442214099                  8.1082388447 ***
           3       26                  7.0580434359                  7.0555511342
 * Note: Onsite integrals marked "***" above are less accurate than
 * onsite_accuracy_threshold =    0.03000 eV. Usually, this is harmless.
 * When in doubt, tighten the "radial" and/or "radial_multiplier" flags to check.

  Preparing densities etc. for the partition functions (integrals / Hartree potential).

  Preparations completed.
  max(cpu_time)          :      0.384 s.
  Wall clock time (cpu1) :      0.397 s.
------------------------------------------------------------

------------------------------------------------------------
          Begin self-consistency loop: Initialization.

          Date     :  20180214, Time     :  162545.209
------------------------------------------------------------

  Initializing index lists of integration centers etc. from given atomic structure:
  | Number of centers in hartree potential         :         6
  | Number of centers in hartree multipole         :         6
  | Number of centers in electron density summation:         6
  | Number of centers in basis integrals           :         6
  | Number of centers in integrals                 :         6
  | Number of centers in hamiltonian               :         6
  Partitioning the integration grid into batches with parallel hashing+maxmin method.
  | Number of batches:     1006
  | Maximal batch size:     192
  | Minimal batch size:      49
  | Average batch size:      79.252
  | Standard deviation of batch sizes:      25.474

  Integration load balanced across     8 MPI tasks.
  Work distribution over tasks is as follows:
  Task     0 has       9993 integration points.
  Task     1 has      10000 integration points.
  Task     2 has      10019 integration points.
  Task     3 has       9934 integration points.
  Task     4 has       9909 integration points.
  Task     5 has       9939 integration points.
  Task     6 has       9934 integration points.
  Task     7 has      10000 integration points.
  Initializing partition tables, free-atom densities, potentials, etc. across the integration grid (initialize_grid_storage).
  | initialize_grid_storage: Actual outermost partition radius vs. multipole_radius_free
  | (-- VB: in principle, multipole_radius_free should be larger, hence this output)
  | Species        1: Confinement radius =              6.000000000000000 AA, multipole_radius_free =              6.071692442739658 AA.
  | Species        1: outer_partition_radius set to              6.071692442739658 AA .
  | Species        2: Confinement radius =              6.000000000000000 AA, multipole_radius_free =              6.029870734432609 AA.
  | Species        2: outer_partition_radius set to              6.029870734432609 AA .
  | Species        3: Confinement radius =              4.999999999999999 AA, multipole_radius_free =              5.007919576009533 AA.
  | Species        3: outer_partition_radius set to              5.007919576009533 AA .
  | Original list of interatomic distances with           6 x          6 entries is created.
  | Net number of integration points:    79728
  | of which are non-zero points    :    69277
  Renormalizing the initial density to the exact electron count on the 3D integration grid.
  | Initial density: Formal number of electrons (from input files) :      43.0000000000
  | Integrated number of electrons on 3D grid     :      42.9999418824
  | Charge integration error                      :      -0.0000581176
  | Normalization factor for density and gradient :       1.0000013516
  Obtaining max. number of non-zero basis functions in each batch (get_n_compute_maxes).
  | Maximal number of non-zero basis functions:      118 in task     0
  | Maximal number of non-zero basis functions:      118 in task     1
  | Maximal number of non-zero basis functions:      118 in task     2
  | Maximal number of non-zero basis functions:      118 in task     3
  | Maximal number of non-zero basis functions:      118 in task     4
  | Maximal number of non-zero basis functions:      118 in task     5
  | Maximal number of non-zero basis functions:      118 in task     6
  | Maximal number of non-zero basis functions:      117 in task     7
  Selecting the method for density update.
  Loop over occupied states selected for charge density update.
  Allocating        0.035 MB for KS_eigenvector
  Integrating Hamiltonian matrix: batch-based integration.
  Time summed over all CPUs for integration: real work        1.994 s, elapsed        2.069 s
  Integrating overlap matrix.
  Time summed over all CPUs for integration: real work        0.781 s, elapsed        0.958 s

  Updating Kohn-Sham eigenvalues, eigenvectors, occupation numbers, and Fermi level.
  Solving generalized eigenproblem
  Updating Kohn-Sham eigenvalues and eigenfunctions.
  Transforming overlap matrix and checking for singularities.
  Overlap matrix is nonsingular:
  | Lowest eigenvalue:  0.206716E-03
  Solving real generalised eigenvalue problem by standard LAPACK (fast)

  Obtaining occupation numbers and chemical potential using ELSI.
  | Chemical potential (Fermi level):    -6.71968584eV
  Writing Kohn-Sham eigenvalues.

  State    Occupation    Eigenvalue [Ha]    Eigenvalue [eV]
      1       2.00000        -101.455461        -2760.74356
      2       2.00000        -101.452734        -2760.66936
      3       2.00000         -10.161570         -276.51039
      4       2.00000          -9.292511         -252.86208
      5       2.00000          -9.289469         -252.77932
      6       2.00000          -7.047232         -191.76494
      7       2.00000          -7.046632         -191.74862
      8       2.00000          -7.046632         -191.74862
      9       2.00000          -7.043930         -191.67508
     10       2.00000          -7.043781         -191.67103
     11       2.00000          -7.043781         -191.67103
     12       2.00000          -0.822275          -22.37524
     13       2.00000          -0.768354          -20.90797
     14       2.00000          -0.739417          -20.12055
     15       2.00000          -0.538761          -14.66043
     16       2.00000          -0.538757          -14.66034
     17       2.00000          -0.418343          -11.38368
     18       2.00000          -0.322169           -8.76666
     19       2.00000          -0.322169           -8.76666
     20       2.00000          -0.316025           -8.59947
     21       2.00000          -0.316025           -8.59947
     22       2.00000          -0.315190           -8.57675
     23       0.00000          -0.173379           -4.71789
     24       0.00000          -0.045529           -1.23892
     25       0.00000           0.006828            0.18579
     26       0.00000           0.006830            0.18585
     27       0.00000           0.058703            1.59738
     28       0.00000           0.058706            1.59748
     29       0.00000           0.110057            2.99480
     30       0.00000           0.124791            3.39574
     31       0.00000           0.172282            4.68804
     32       0.00000           0.172284            4.68809
     33       0.00000           0.189992            5.16996
     34       0.00000           0.189994            5.17001
     35       0.00000           0.232110            6.31602
     36       0.00000           0.249663            6.79368

  Highest occupied state (VBM) at     -8.57674880 eV
  | Occupation number:      2.00000000

  Lowest unoccupied state (CBM) at    -4.71788535 eV
  | Occupation number:      0.00000000

  Overall HOMO-LUMO gap:      3.85886345 eV.
  Calculating total energy contributions from superposition of free atom densities.

  Total energy components:
  | Sum of eigenvalues            :        -558.68243409 Ha      -15202.52252747 eV
  | XC energy correction          :         -62.44247010 Ha       -1699.14606311 eV
  | XC potential correction       :          80.67350858 Ha        2195.23786082 eV
  | Free-atom electrostatic energy:        -424.30493751 Ha      -11545.92479979 eV
  | Hartree energy correction     :           0.00000000 Ha           0.00000000 eV
  | vdW energy correction         :           0.00000000 Ha           0.00000000 eV
  | Entropy correction            :           0.00000000 Ha           0.00000000 eV
  | ---------------------------
  | Total energy                  :        -964.75633313 Ha      -26252.35552956 eV
  | Total energy, T -> 0          :        -964.75633313 Ha      -26252.35552956 eV  <-- do not rely on this value for anything but (periodic) metals
  | Electronic free energy        :        -964.75633313 Ha      -26252.35552956 eV

  Derived energy quantities:
  | Kinetic energy                :         967.20143126 Ha       26318.89003506 eV
  | Electrostatic energy          :       -1869.51529429 Ha      -50872.09950150 eV
  | Energy correction for multipole
  | error in Hartree potential    :           0.00000000 Ha           0.00000000 eV
  | Sum of eigenvalues per atom                           :       -2533.75375458 eV
  | Total energy (T->0) per atom                          :       -4375.39258826 eV  <-- do not rely on this value for anything but (periodic) metals
  | Electronic free energy per atom                       :       -4375.39258826 eV
  Initialize hartree_potential_storage
  Max. number of atoms included in rho_multipole:            6

  End scf initialization - timings             :  max(cpu_time)    wall_clock(cpu1)
  | Time for scf. initialization               :        0.600 s           0.603 s
  | Boundary condition initialization          :        0.000 s           0.000 s
  | Integration                                :        0.376 s           0.374 s
  | Solution of K.-S. eqns.                    :        0.016 s           0.015 s
  | Grid partitioning                          :        0.096 s           0.096 s
  | Preloading free-atom quantities on grid    :        0.024 s           0.021 s
  | Free-atom superposition energy             :        0.024 s           0.022 s
  | Total energy evaluation                    :        0.000 s           0.001 s

  Partial memory accounting:
  | Current value for overall tracked memory usage on task 0  :           0.267 MB
  | Peak value for overall tracked memory usage on task 0     :           0.810 MB after allocating wave
  | Largest tracked array allocation on task 0 so far         :           0.181 MB  when allocating H_times_psi
  Note:  These values currently only include a subset of arrays which are explicitly tracked.
  The "true" memory usage will be greater.
------------------------------------------------------------

------------------------------------------------------------
          Begin self-consistency iteration #    1

  Date     :  20180214, Time     :  162545.812
------------------------------------------------------------
  Evaluating new KS density.
  Integration grid: deviation in total charge (<rho> - N_e) =   2.131628E-14
  Pulay mixing of updated and previous charge densities.

  Evaluating partitioned Hartree potential by multipole expansion.
  | Analytical far-field extrapolation by fixed multipoles:
  | Hartree multipole sum: apparent total charge =  -0.500575E-01
  Summing up the Hartree potential.
  Time summed over all CPUs for potential: real work        1.331 s, elapsed        1.421 s
  | RMS charge density error from multipole expansion :   0.247866E-03

  Integrating Hamiltonian matrix: batch-based integration.
  Time summed over all CPUs for integration: real work        2.030 s, elapsed        2.242 s

  Updating Kohn-Sham eigenvalues, eigenvectors, occupation numbers, and Fermi level.
  Solving generalized eigenproblem
  Updating Kohn-Sham eigenvalues and eigenfunctions.
  Solving real generalised eigenvalue problem by standard LAPACK (fast)

  Obtaining occupation numbers and chemical potential using ELSI.
  | Chemical potential (Fermi level):    -6.29436363eV
  Writing Kohn-Sham eigenvalues.

  State    Occupation    Eigenvalue [Ha]    Eigenvalue [eV]
      1       2.00000        -101.443541        -2760.41920
      2       2.00000        -101.420227        -2759.78480
      3       2.00000         -10.123235         -275.46725
      4       2.00000          -9.280978         -252.54827
      5       2.00000          -9.259644         -251.96773
      6       2.00000          -7.036150         -191.46338
      7       2.00000          -7.034818         -191.42714
      8       2.00000          -7.034818         -191.42714
      9       2.00000          -7.013903         -190.85800
     10       2.00000          -7.013661         -190.85143
     11       2.00000          -7.013661         -190.85143
     12       2.00000          -0.803301          -21.85893
     13       2.00000          -0.748191          -20.35931
     14       2.00000          -0.719766          -19.58584
     15       2.00000          -0.515454          -14.02621
     16       2.00000          -0.515450          -14.02611
     17       2.00000          -0.401215          -10.91760
     18       2.00000          -0.310490           -8.44885
     19       2.00000          -0.310489           -8.44885
     20       2.00000          -0.295669           -8.04555
     21       2.00000          -0.295669           -8.04555
     22       2.00000          -0.294900           -8.02464
     23       0.00000          -0.154585           -4.20648
     24       0.00000          -0.033251           -0.90479
     25       0.00000           0.019237            0.52348
     26       0.00000           0.019240            0.52354
     27       0.00000           0.070909            1.92954
     28       0.00000           0.070913            1.92964
     29       0.00000           0.121572            3.30813
     30       0.00000           0.137350            3.73749
     31       0.00000           0.187164            5.09300
     32       0.00000           0.187166            5.09306
     33       0.00000           0.202573            5.51230
     34       0.00000           0.202575            5.51234
     35       0.00000           0.246417            6.70536
     36       0.00000           0.265312            7.21950

  Highest occupied state (VBM) at     -8.02464327 eV
  | Occupation number:      2.00000000

  Lowest unoccupied state (CBM) at    -4.20648337 eV
  | Occupation number:      0.00000000

  Overall HOMO-LUMO gap:      3.81815990 eV.

  Total energy components:
  | Sum of eigenvalues            :        -557.77045920 Ha      -15177.70642791 eV
  | XC energy correction          :         -62.49038449 Ha       -1700.44987983 eV
  | XC potential correction       :          80.73593331 Ha        2196.93652414 eV
  | Free-atom electrostatic energy:        -424.30493751 Ha      -11545.92479979 eV
  | Hartree energy correction     :          -0.89334419 Ha         -24.30913237 eV
  | vdW energy correction         :           0.00000000 Ha           0.00000000 eV
  | Entropy correction            :           0.00000000 Ha           0.00000000 eV
  | ---------------------------
  | Total energy                  :        -964.72319208 Ha      -26251.45371576 eV
  | Total energy, T -> 0          :        -964.72319208 Ha      -26251.45371576 eV  <-- do not rely on this value for anything but (periodic) metals
  | Electronic free energy        :        -964.72319208 Ha      -26251.45371576 eV

  Derived energy quantities:
  | Kinetic energy                :         967.45646974 Ha       26325.82998519 eV
  | Electrostatic energy          :       -1869.68927734 Ha      -50876.83382113 eV
  | Energy correction for multipole
  | error in Hartree potential    :          -0.00015459 Ha          -0.00420657 eV
  | Sum of eigenvalues per atom                           :       -2529.61773798 eV
  | Total energy (T->0) per atom                          :       -4375.24228596 eV  <-- do not rely on this value for anything but (periodic) metals
  | Electronic free energy per atom                       :       -4375.24228596 eV

  Self-consistency convergence accuracy:
  | Change of charge density      :  0.3257E+00
  | Change of sum of eigenvalues  :  0.2482E+02 eV
  | Change of total energy        :  0.9018E+00 eV

  End self-consistency iteration #     1       :  max(cpu_time)    wall_clock(cpu1)
  | Time for this iteration                    :        0.736 s           0.738 s
  | Charge density update                      :        0.264 s           0.262 s
  | Density mixing                             :        0.004 s           0.002 s
  | Hartree multipole update                   :        0.016 s           0.016 s
  | Hartree multipole summation                :        0.176 s           0.176 s
  | Integration                                :        0.276 s           0.278 s
  | Solution of K.-S. eqns.                    :        0.004 s           0.003 s
  | Total energy evaluation                    :        0.000 s           0.001 s

  Partial memory accounting:
  | Current value for overall tracked memory usage on task 0  :           0.267 MB
  | Peak value for overall tracked memory usage on task 0     :           0.992 MB after allocating gradient_basis_wave
  | Largest tracked array allocation on task 0 so far         :           0.544 MB  when allocating gradient_basis_wave
  Note:  These values currently only include a subset of arrays which are explicitly tracked.
  The "true" memory usage will be greater.
------------------------------------------------------------

------------------------------------------------------------
          Begin self-consistency iteration #    2

  Date     :  20180214, Time     :  162546.551
------------------------------------------------------------
  Evaluating new KS density.
  Integration grid: deviation in total charge (<rho> - N_e) =   1.421085E-14
  Pulay mixing of updated and previous charge densities.

  Evaluating partitioned Hartree potential by multipole expansion.
  | Analytical far-field extrapolation by fixed multipoles:
  | Hartree multipole sum: apparent total charge =  -0.373883E+00
  Summing up the Hartree potential.
  Time summed over all CPUs for potential: real work        1.328 s, elapsed        1.415 s
  | RMS charge density error from multipole expansion :   0.182027E-02

  Integrating Hamiltonian matrix: batch-based integration.
  Time summed over all CPUs for integration: real work        1.982 s, elapsed        2.080 s

  Updating Kohn-Sham eigenvalues, eigenvectors, occupation numbers, and Fermi level.
  Solving generalized eigenproblem
  Updating Kohn-Sham eigenvalues and eigenfunctions.
  Solving real generalised eigenvalue problem by standard LAPACK (fast)

  Obtaining occupation numbers and chemical potential using ELSI.
  | Chemical potential (Fermi level):    -1.40609720eV
  Highest occupied state (VBM) at     -4.49076106 eV
  | Occupation number:      2.00000000

  Lowest unoccupied state (CBM) at    -0.88620862 eV
  | Occupation number:      0.00000000

  Overall HOMO-LUMO gap:      3.60455244 eV.

  Checking to see if s.c.f. parameters should be adjusted.
  The system likely has a gap. Increased the default Pulay mixing parameter (charge_mix_param). Value:   0.200000 .
  Kept the default occupation width. Value:   0.010000 eV.

  Total energy components:
  | Sum of eigenvalues            :        -552.07793177 Ha      -15022.80487536 eV
  | XC energy correction          :         -62.79589512 Ha       -1708.76324700 eV
  | XC potential correction       :          81.13371833 Ha        2207.76080533 eV
  | Free-atom electrostatic energy:        -424.30493751 Ha      -11545.92479979 eV
  | Hartree energy correction     :          -6.55017939 Ha        -178.23944998 eV
  | vdW energy correction         :           0.00000000 Ha           0.00000000 eV
  | Entropy correction            :           0.00000000 Ha           0.00000000 eV
  | ---------------------------
  | Total energy                  :        -964.59522546 Ha      -26247.97156679 eV
  | Total energy, T -> 0          :        -964.59522546 Ha      -26247.97156679 eV  <-- do not rely on this value for anything but (periodic) metals
  | Electronic free energy        :        -964.59522546 Ha      -26247.97156679 eV

  Derived energy quantities:
  | Kinetic energy                :         968.86812486 Ha       26364.24307549 eV
  | Electrostatic energy          :       -1870.66745521 Ha      -50903.45139528 eV
  | Energy correction for multipole
  | error in Hartree potential    :          -0.00112069 Ha          -0.03049544 eV
  | Sum of eigenvalues per atom                           :       -2503.80081256 eV
  | Total energy (T->0) per atom                          :       -4374.66192780 eV  <-- do not rely on this value for anything but (periodic) metals
  | Electronic free energy per atom                       :       -4374.66192780 eV

  Self-consistency convergence accuracy:
  | Change of charge density      :  0.2955E+00
  | Change of sum of eigenvalues  :  0.1549E+03 eV
  | Change of total energy        :  0.3482E+01 eV

  End self-consistency iteration #     2       :  max(cpu_time)    wall_clock(cpu1)
  | Time for this iteration                    :        0.716 s           0.717 s
  | Charge density update                      :        0.260 s           0.259 s
  | Density mixing                             :        0.004 s           0.004 s
  | Hartree multipole update                   :        0.016 s           0.016 s
  | Hartree multipole summation                :        0.176 s           0.176 s
  | Integration                                :        0.260 s           0.257 s
  | Solution of K.-S. eqns.                    :        0.004 s           0.003 s
  | Total energy evaluation                    :        0.004 s           0.000 s

  Partial memory accounting:
  | Current value for overall tracked memory usage on task 0  :           0.268 MB
  | Peak value for overall tracked memory usage on task 0     :           0.992 MB after allocating gradient_basis_wave
  | Largest tracked array allocation on task 0 so far         :           0.544 MB  when allocating gradient_basis_wave
  Note:  These values currently only include a subset of arrays which are explicitly tracked.
  The "true" memory usage will be greater.
------------------------------------------------------------

------------------------------------------------------------
          Begin self-consistency iteration #    3

  Date     :  20180214, Time     :  162547.268
------------------------------------------------------------
  Evaluating new KS density.
  Integration grid: deviation in total charge (<rho> - N_e) =  -7.105427E-15
  Pulay mixing of updated and previous charge densities.

  Evaluating partitioned Hartree potential by multipole expansion.
  | Analytical far-field extrapolation by fixed multipoles:
  | Hartree multipole sum: apparent total charge =  -0.671259E+00
  Summing up the Hartree potential.
  Time summed over all CPUs for potential: real work        1.336 s, elapsed        1.412 s
  | RMS charge density error from multipole expansion :   0.313382E-02

  Integrating Hamiltonian matrix: batch-based integration.
  Time summed over all CPUs for integration: real work        1.999 s, elapsed        2.055 s

  Updating Kohn-Sham eigenvalues, eigenvectors, occupation numbers, and Fermi level.
  Solving generalized eigenproblem
  Updating Kohn-Sham eigenvalues and eigenfunctions.
  Solving real generalised eigenvalue problem by standard LAPACK (fast)

  Obtaining occupation numbers and chemical potential using ELSI.
  | Chemical potential (Fermi level):     0.42134998eV
  Highest occupied state (VBM) at     -2.34150036 eV
  | Occupation number:      2.00000000

  Lowest unoccupied state (CBM) at     1.28316527 eV
  | Occupation number:      0.00000000

  Overall HOMO-LUMO gap:      3.62466564 eV.

  Total energy components:
  | Sum of eigenvalues            :        -548.49638396 Ha      -14925.34600067 eV
  | XC energy correction          :         -62.96284758 Ha       -1713.30625474 eV
  | XC potential correction       :          81.34994378 Ha        2213.64459913 eV
  | Free-atom electrostatic energy:        -424.30493751 Ha      -11545.92479979 eV
  | Hartree energy correction     :         -10.14331461 Ha        -276.01363389 eV
  | vdW energy correction         :           0.00000000 Ha           0.00000000 eV
  | Entropy correction            :           0.00000000 Ha           0.00000000 eV
  | ---------------------------
  | Total energy                  :        -964.55753988 Ha      -26246.94608997 eV
  | Total energy, T -> 0          :        -964.55753988 Ha      -26246.94608997 eV  <-- do not rely on this value for anything but (periodic) metals
  | Electronic free energy        :        -964.55753988 Ha      -26246.94608997 eV

  Derived energy quantities:
  | Kinetic energy                :         969.11021129 Ha       26370.83058223 eV
  | Electrostatic energy          :       -1870.70490358 Ha      -50904.47041745 eV
  | Energy correction for multipole
  | error in Hartree potential    :          -0.00185527 Ha          -0.05048434 eV
  | Sum of eigenvalues per atom                           :       -2487.55766678 eV
  | Total energy (T->0) per atom                          :       -4374.49101500 eV  <-- do not rely on this value for anything but (periodic) metals
  | Electronic free energy per atom                       :       -4374.49101500 eV

  Self-consistency convergence accuracy:
  | Change of charge density      :  0.1658E+00
  | Change of sum of eigenvalues  :  0.9746E+02 eV
  | Change of total energy        :  0.1025E+01 eV

  End self-consistency iteration #     3       :  max(cpu_time)    wall_clock(cpu1)
  | Time for this iteration                    :        0.716 s           0.715 s
  | Charge density update                      :        0.256 s           0.257 s
  | Density mixing                             :        0.008 s           0.006 s
  | Hartree multipole update                   :        0.016 s           0.018 s
  | Hartree multipole summation                :        0.176 s           0.175 s
  | Integration                                :        0.256 s           0.254 s
  | Solution of K.-S. eqns.                    :        0.004 s           0.003 s
  | Total energy evaluation                    :        0.000 s           0.001 s

  Partial memory accounting:
  | Current value for overall tracked memory usage on task 0  :           0.268 MB
  | Peak value for overall tracked memory usage on task 0     :           0.993 MB after allocating gradient_basis_wave
  | Largest tracked array allocation on task 0 so far         :           0.544 MB  when allocating gradient_basis_wave
  Note:  These values currently only include a subset of arrays which are explicitly tracked.
  The "true" memory usage will be greater.
------------------------------------------------------------

------------------------------------------------------------
          Begin self-consistency iteration #    4

  Date     :  20180214, Time     :  162547.985
------------------------------------------------------------
  Evaluating new KS density.
  Integration grid: deviation in total charge (<rho> - N_e) =  -7.105427E-15
  Pulay mixing of updated and previous charge densities.

  Evaluating partitioned Hartree potential by multipole expansion.
  | Analytical far-field extrapolation by fixed multipoles:
  | Hartree multipole sum: apparent total charge =  -0.918460E+00
  Summing up the Hartree potential.
  Time summed over all CPUs for potential: real work        1.331 s, elapsed        1.421 s
  | RMS charge density error from multipole expansion :   0.429902E-02

  Integrating Hamiltonian matrix: batch-based integration.
  Time summed over all CPUs for integration: real work        2.046 s, elapsed        2.160 s

  Updating Kohn-Sham eigenvalues, eigenvectors, occupation numbers, and Fermi level.
  Solving generalized eigenproblem
  Updating Kohn-Sham eigenvalues and eigenfunctions.
  Solving real generalised eigenvalue problem by standard LAPACK (fast)

  Obtaining occupation numbers and chemical potential using ELSI.
  | Chemical potential (Fermi level):     1.77980989eV
  Highest occupied state (VBM) at     -1.21002714 eV
  | Occupation number:      2.00000000

  Lowest unoccupied state (CBM) at     2.41478081 eV
  | Occupation number:      0.00000000

  Overall HOMO-LUMO gap:      3.62480795 eV.

  Total energy components:
  | Sum of eigenvalues            :        -546.71745065 Ha      -14876.93876240 eV
  | XC energy correction          :         -63.01381485 Ha       -1714.69314476 eV
  | XC potential correction       :          81.41463406 Ha        2215.40491144 eV
  | Free-atom electrostatic energy:        -424.30493751 Ha      -11545.92479979 eV
  | Hartree energy correction     :         -11.92194646 Ha        -324.41266898 eV
  | vdW energy correction         :           0.00000000 Ha           0.00000000 eV
  | Entropy correction            :           0.00000000 Ha           0.00000000 eV
  | ---------------------------
  | Total energy                  :        -964.54351540 Ha      -26246.56446450 eV
  | Total energy, T -> 0          :        -964.54351540 Ha      -26246.56446450 eV  <-- do not rely on this value for anything but (periodic) metals
  | Electronic free energy        :        -964.54351540 Ha      -26246.56446450 eV

  Derived energy quantities:
  | Kinetic energy                :         968.57735400 Ha       26356.33079767 eV
  | Electrostatic energy          :       -1870.10705455 Ha      -50888.20211741 eV
  | Energy correction for multipole
  | error in Hartree potential    :          -0.00232286 Ha          -0.06320817 eV
  | Sum of eigenvalues per atom                           :       -2479.48979373 eV
  | Total energy (T->0) per atom                          :       -4374.42741075 eV  <-- do not rely on this value for anything but (periodic) metals
  | Electronic free energy per atom                       :       -4374.42741075 eV

  Self-consistency convergence accuracy:
  | Change of charge density      :  0.1046E+00
  | Change of sum of eigenvalues  :  0.4841E+02 eV
  | Change of total energy        :  0.3816E+00 eV

  End self-consistency iteration #     4       :  max(cpu_time)    wall_clock(cpu1)
  | Time for this iteration                    :        0.752 s           0.750 s
  | Charge density update                      :        0.276 s           0.275 s
  | Density mixing                             :        0.012 s           0.010 s
  | Hartree multipole update                   :        0.020 s           0.017 s
  | Hartree multipole summation                :        0.176 s           0.177 s
  | Integration                                :        0.268 s           0.267 s
  | Solution of K.-S. eqns.                    :        0.004 s           0.003 s
  | Total energy evaluation                    :        0.000 s           0.001 s

  Partial memory accounting:
  | Current value for overall tracked memory usage on task 0  :           0.268 MB
  | Peak value for overall tracked memory usage on task 0     :           0.993 MB after allocating gradient_basis_wave
  | Largest tracked array allocation on task 0 so far         :           0.544 MB  when allocating gradient_basis_wave
  Note:  These values currently only include a subset of arrays which are explicitly tracked.
  The "true" memory usage will be greater.
------------------------------------------------------------

------------------------------------------------------------
          Begin self-consistency iteration #    5

  Date     :  20180214, Time     :  162548.736
------------------------------------------------------------
  Evaluating new KS density.
  Integration grid: deviation in total charge (<rho> - N_e) =   1.421085E-14
  Pulay mixing of updated and previous charge densities.

  Evaluating partitioned Hartree potential by multipole expansion.
  | Analytical far-field extrapolation by fixed multipoles:
  | Hartree multipole sum: apparent total charge =  -0.976511E+00
  Summing up the Hartree potential.
  Time summed over all CPUs for potential: real work        1.378 s, elapsed        1.511 s
  | RMS charge density error from multipole expansion :   0.460315E-02

  Integrating Hamiltonian matrix: batch-based integration.
  Time summed over all CPUs for integration: real work        2.027 s, elapsed        2.249 s

  Updating Kohn-Sham eigenvalues, eigenvectors, occupation numbers, and Fermi level.
  Solving generalized eigenproblem
  Updating Kohn-Sham eigenvalues and eigenfunctions.
  Solving real generalised eigenvalue problem by standard LAPACK (fast)

  Obtaining occupation numbers and chemical potential using ELSI.
  | Chemical potential (Fermi level):     2.04048534eV
  Highest occupied state (VBM) at     -0.88308638 eV
  | Occupation number:      2.00000000

  Lowest unoccupied state (CBM) at     2.65354133 eV
  | Occupation number:      0.00000000

  Overall HOMO-LUMO gap:      3.53662771 eV.

  Total energy components:
  | Sum of eigenvalues            :        -546.37475198 Ha      -14867.61345712 eV
  | XC energy correction          :         -63.01725690 Ha       -1714.78680777 eV
  | XC potential correction       :          81.41880073 Ha        2215.51829223 eV
  | Free-atom electrostatic energy:        -424.30493751 Ha      -11545.92479979 eV
  | Hartree energy correction     :         -12.26454818 Ha        -333.73533613 eV
  | vdW energy correction         :           0.00000000 Ha           0.00000000 eV
  | Entropy correction            :           0.00000000 Ha           0.00000000 eV
  | ---------------------------
  | Total energy                  :        -964.54269383 Ha      -26246.54210859 eV
  | Total energy, T -> 0          :        -964.54269383 Ha      -26246.54210859 eV  <-- do not rely on this value for anything but (periodic) metals
  | Electronic free energy        :        -964.54269383 Ha      -26246.54210859 eV

  Derived energy quantities:
  | Kinetic energy                :         968.38326417 Ha       26351.04934479 eV
  | Electrostatic energy          :       -1869.90870110 Ha      -50882.80464561 eV
  | Energy correction for multipole
  | error in Hartree potential    :          -0.00237114 Ha          -0.06452210 eV
  | Sum of eigenvalues per atom                           :       -2477.93557619 eV
  | Total energy (T->0) per atom                          :       -4374.42368476 eV  <-- do not rely on this value for anything but (periodic) metals
  | Electronic free energy per atom                       :       -4374.42368476 eV

  Self-consistency convergence accuracy:
  | Change of charge density      :  0.3203E-01
  | Change of sum of eigenvalues  :  0.9325E+01 eV
  | Change of total energy        :  0.2236E-01 eV

  End self-consistency iteration #     5       :  max(cpu_time)    wall_clock(cpu1)
  | Time for this iteration                    :        0.768 s           0.767 s
  | Charge density update                      :        0.268 s           0.268 s
  | Density mixing                             :        0.012 s           0.012 s
  | Hartree multipole update                   :        0.020 s           0.017 s
  | Hartree multipole summation                :        0.188 s           0.187 s
  | Integration                                :        0.280 s           0.278 s
  | Solution of K.-S. eqns.                    :        0.004 s           0.003 s
  | Total energy evaluation                    :        0.000 s           0.001 s

  Partial memory accounting:
  | Current value for overall tracked memory usage on task 0  :           0.268 MB
  | Peak value for overall tracked memory usage on task 0     :           0.993 MB after allocating gradient_basis_wave
  | Largest tracked array allocation on task 0 so far         :           0.544 MB  when allocating gradient_basis_wave
  Note:  These values currently only include a subset of arrays which are explicitly tracked.
  The "true" memory usage will be greater.
------------------------------------------------------------

------------------------------------------------------------
          Begin self-consistency iteration #    6

  Date     :  20180214, Time     :  162549.504
------------------------------------------------------------
  Evaluating new KS density.
  Integration grid: deviation in total charge (<rho> - N_e) =   2.842171E-14
  Pulay mixing of updated and previous charge densities.

  Evaluating partitioned Hartree potential by multipole expansion.
  | Analytical far-field extrapolation by fixed multipoles:
  | Hartree multipole sum: apparent total charge =  -0.991624E+00
  Summing up the Hartree potential.
  Time summed over all CPUs for potential: real work        1.324 s, elapsed        1.397 s
  | RMS charge density error from multipole expansion :   0.469476E-02

  Integrating Hamiltonian matrix: batch-based integration.
  Time summed over all CPUs for integration: real work        2.028 s, elapsed        2.152 s

  Updating Kohn-Sham eigenvalues, eigenvectors, occupation numbers, and Fermi level.
  Solving generalized eigenproblem
  Updating Kohn-Sham eigenvalues and eigenfunctions.
  Solving real generalised eigenvalue problem by standard LAPACK (fast)

  Obtaining occupation numbers and chemical potential using ELSI.
  | Chemical potential (Fermi level):     2.11353277eV
  Highest occupied state (VBM) at     -0.84637311 eV
  | Occupation number:      2.00000000

  Lowest unoccupied state (CBM) at     2.71003876 eV
  | Occupation number:      0.00000000

  Overall HOMO-LUMO gap:      3.55641187 eV.

  Total energy components:
  | Sum of eigenvalues            :        -546.33815926 Ha      -14866.61771855 eV
  | XC energy correction          :         -63.01334628 Ha       -1714.68039425 eV
  | XC potential correction       :          81.41365078 Ha        2215.37815491 eV
  | Free-atom electrostatic energy:        -424.30493751 Ha      -11545.92479979 eV
  | Hartree energy correction     :         -12.29979627 Ha        -334.69448566 eV
  | vdW energy correction         :           0.00000000 Ha           0.00000000 eV
  | Entropy correction            :           0.00000000 Ha           0.00000000 eV
  | ---------------------------
  | Total energy                  :        -964.54258854 Ha      -26246.53924335 eV
  | Total energy, T -> 0          :        -964.54258854 Ha      -26246.53924335 eV  <-- do not rely on this value for anything but (periodic) metals
  | Electronic free energy        :        -964.54258854 Ha      -26246.53924335 eV

  Derived energy quantities:
  | Kinetic energy                :         968.30361209 Ha       26348.88190129 eV
  | Electrostatic energy          :       -1869.83285435 Ha      -50880.74075038 eV
  | Energy correction for multipole
  | error in Hartree potential    :          -0.00235759 Ha          -0.06415332 eV
  | Sum of eigenvalues per atom                           :       -2477.76961976 eV
  | Total energy (T->0) per atom                          :       -4374.42320722 eV  <-- do not rely on this value for anything but (periodic) metals
  | Electronic free energy per atom                       :       -4374.42320722 eV

  Self-consistency convergence accuracy:
  | Change of charge density      :  0.1458E-01
  | Change of sum of eigenvalues  :  0.9957E+00 eV
  | Change of total energy        :  0.2865E-02 eV

  End self-consistency iteration #     6       :  max(cpu_time)    wall_clock(cpu1)
  | Time for this iteration                    :        0.732 s           0.733 s
  | Charge density update                      :        0.260 s           0.260 s
  | Density mixing                             :        0.012 s           0.012 s
  | Hartree multipole update                   :        0.016 s           0.017 s
  | Hartree multipole summation                :        0.176 s           0.173 s
  | Integration                                :        0.268 s           0.266 s
  | Solution of K.-S. eqns.                    :        0.004 s           0.003 s
  | Total energy evaluation                    :        0.004 s           0.001 s

  Partial memory accounting:
  | Current value for overall tracked memory usage on task 0  :           0.268 MB
  | Peak value for overall tracked memory usage on task 0     :           0.993 MB after allocating gradient_basis_wave
  | Largest tracked array allocation on task 0 so far         :           0.544 MB  when allocating gradient_basis_wave
  Note:  These values currently only include a subset of arrays which are explicitly tracked.
  The "true" memory usage will be greater.
------------------------------------------------------------

------------------------------------------------------------
          Begin self-consistency iteration #    7

  Date     :  20180214, Time     :  162550.237
------------------------------------------------------------
  Evaluating new KS density.
  Integration grid: deviation in total charge (<rho> - N_e) =   0.000000E+00
  Pulay mixing of updated and previous charge densities.

  Evaluating partitioned Hartree potential by multipole expansion.
  | Analytical far-field extrapolation by fixed multipoles:
  | Hartree multipole sum: apparent total charge =  -0.999118E+00
  Summing up the Hartree potential.
  Time summed over all CPUs for potential: real work        1.332 s, elapsed        1.404 s
  | RMS charge density error from multipole expansion :   0.473995E-02

  Integrating Hamiltonian matrix: batch-based integration.
  Time summed over all CPUs for integration: real work        2.038 s, elapsed        2.159 s

  Updating Kohn-Sham eigenvalues, eigenvectors, occupation numbers, and Fermi level.
  Solving generalized eigenproblem
  Updating Kohn-Sham eigenvalues and eigenfunctions.
  Solving real generalised eigenvalue problem by standard LAPACK (fast)

  Obtaining occupation numbers and chemical potential using ELSI.
  | Chemical potential (Fermi level):     2.16273777eV
  Highest occupied state (VBM) at     -0.80979958 eV
  | Occupation number:      2.00000000

  Lowest unoccupied state (CBM) at     2.76696680 eV
  | Occupation number:      0.00000000

  Overall HOMO-LUMO gap:      3.57676638 eV.

  Total energy components:
  | Sum of eigenvalues            :        -546.25515899 Ha      -14864.35916625 eV
  | XC energy correction          :         -63.01703297 Ha       -1714.78071422 eV
  | XC potential correction       :          81.41846008 Ha        2215.50902275 eV
  | Free-atom electrostatic energy:        -424.30493751 Ha      -11545.92479979 eV
  | Hartree energy correction     :         -12.38390446 Ha        -336.98318574 eV
  | vdW energy correction         :           0.00000000 Ha           0.00000000 eV
  | Entropy correction            :           0.00000000 Ha           0.00000000 eV
  | ---------------------------
  | Total energy                  :        -964.54257384 Ha      -26246.53884326 eV
  | Total energy, T -> 0          :        -964.54257384 Ha      -26246.53884326 eV  <-- do not rely on this value for anything but (periodic) metals
  | Electronic free energy        :        -964.54257384 Ha      -26246.53884326 eV

  Derived energy quantities:
  | Kinetic energy                :         968.31043415 Ha       26349.06753907 eV
  | Electrostatic energy          :       -1869.83597502 Ha      -50880.82566811 eV
  | Energy correction for multipole
  | error in Hartree potential    :          -0.00235829 Ha          -0.06417231 eV
  | Sum of eigenvalues per atom                           :       -2477.39319438 eV
  | Total energy (T->0) per atom                          :       -4374.42314054 eV  <-- do not rely on this value for anything but (periodic) metals
  | Electronic free energy per atom                       :       -4374.42314054 eV

  Self-consistency convergence accuracy:
  | Change of charge density      :  0.7320E-02
  | Change of sum of eigenvalues  :  0.2259E+01 eV
  | Change of total energy        :  0.4001E-03 eV

  End self-consistency iteration #     7       :  max(cpu_time)    wall_clock(cpu1)
  | Time for this iteration                    :        0.740 s           0.739 s
  | Charge density update                      :        0.260 s           0.259 s
  | Density mixing                             :        0.016 s           0.017 s
  | Hartree multipole update                   :        0.016 s           0.016 s
  | Hartree multipole summation                :        0.176 s           0.174 s
  | Integration                                :        0.268 s           0.267 s
  | Solution of K.-S. eqns.                    :        0.004 s           0.003 s
  | Total energy evaluation                    :        0.004 s           0.000 s

  Partial memory accounting:
  | Current value for overall tracked memory usage on task 0  :           0.268 MB
  | Peak value for overall tracked memory usage on task 0     :           0.993 MB after allocating gradient_basis_wave
  | Largest tracked array allocation on task 0 so far         :           0.544 MB  when allocating gradient_basis_wave
  Note:  These values currently only include a subset of arrays which are explicitly tracked.
  The "true" memory usage will be greater.
------------------------------------------------------------

------------------------------------------------------------
          Begin self-consistency iteration #    8

  Date     :  20180214, Time     :  162550.977
------------------------------------------------------------
  Evaluating new KS density.
  Integration grid: deviation in total charge (<rho> - N_e) =   2.131628E-14
  Pulay mixing of updated and previous charge densities.

  Evaluating partitioned Hartree potential by multipole expansion.
  | Analytical far-field extrapolation by fixed multipoles:
  | Hartree multipole sum: apparent total charge =  -0.100142E+01
  Summing up the Hartree potential.
  Time summed over all CPUs for potential: real work        1.333 s, elapsed        1.419 s
  | RMS charge density error from multipole expansion :   0.476228E-02

  Integrating Hamiltonian matrix: batch-based integration.
  Time summed over all CPUs for integration: real work        2.039 s, elapsed        2.199 s

  Updating Kohn-Sham eigenvalues, eigenvectors, occupation numbers, and Fermi level.
[...]
     10       2.00000          -6.726023         -183.02440
     11       2.00000          -6.726023         -183.02440
     12       2.00000          -0.559991          -15.23812
     13       2.00000          -0.475752          -12.94588
     14       2.00000          -0.441717          -12.01973
     15       2.00000          -0.230936           -6.28408
     16       2.00000          -0.230932           -6.28399
     17       2.00000          -0.162514           -4.42222
     18       2.00000          -0.092012           -2.50378
     19       2.00000          -0.092012           -2.50377
     20       2.00000          -0.035454           -0.96474
     21       2.00000          -0.029945           -0.81485
     22       2.00000          -0.029945           -0.81485
     23       0.00000           0.101323            2.75713
     24       0.00000           0.140785            3.83097
     25       0.00000           0.178313            4.85214
     26       0.00000           0.178316            4.85223
     27       0.00000           0.266020            7.23877
     28       0.00000           0.266022            7.23884
     29       0.00000           0.304287            8.28008
     30       0.00000           0.329945            8.97825
     31       0.00000           0.384197           10.45454
     32       0.00000           0.384201           10.45465
     33       0.00000           0.421147           11.46000
     34       0.00000           0.421148           11.46001
     35       0.00000           0.443439           12.06659
     36       0.00000           0.476909           12.97735

  Highest occupied state (VBM) at     -0.81484913 eV
  | Occupation number:      2.00000000

  Lowest unoccupied state (CBM) at     2.75713203 eV
  | Occupation number:      0.00000000

  Overall HOMO-LUMO gap:      3.57198116 eV.

  Self-consistency cycle converged.

  End self-consistency iteration #    16       :  max(cpu_time)    wall_clock(cpu1)
  | Time for this iteration                    :        2.012 s           2.015 s
  | Charge density & force component update    :        1.096 s           1.096 s
  | Density mixing                             :        0.020 s           0.019 s
  | Hartree multipole update                   :        0.016 s           0.016 s
  | Hartree multipole summation                :        0.624 s           0.622 s
  | Integration                                :        0.256 s           0.253 s
  | Solution of K.-S. eqns.                    :        0.004 s           0.004 s
  | Total energy evaluation                    :        0.004 s           0.003 s

  Partial memory accounting:
  | Current value for overall tracked memory usage on task 0  :           0.268 MB
  | Peak value for overall tracked memory usage on task 0     :           2.265 MB after allocating hessian_basis_wave
  | Largest tracked array allocation on task 0 so far         :           1.087 MB  when allocating hessian_basis_wave
  Note:  These values currently only include a subset of arrays which are explicitly tracked.
  The "true" memory usage will be greater.
------------------------------------------------------------
  Obtaining max. number of non-zero basis functions in each batch .
  Evaluating KS electron density on previously omitted grid points.
  Evaluating non-empirical van der Waals correction (Tkatchenko/Scheffler 2009).
  Performing Hirshfeld analysis of fragment charges and moments.
  ----------------------------------------------------------------------
  | Atom     1: Cl
  |   Hirshfeld charge        :     -0.36112391
  |   Free atom volume        :     65.35447769
  |   Hirshfeld volume        :     72.23452018
  |   Hirshfeld dipole vector :      0.13288212       0.00000076      -0.00000000
  |   Hirshfeld dipole moment :      0.13288212
  |   Hirshfeld second moments:     -0.06026325       0.00000015       0.00000000
  |                                  0.00000015      -0.29586830       0.00000000
  |                                  0.00000000       0.00000000      -0.29587018
  ----------------------------------------------------------------------
  | Atom     2: C
  |   Hirshfeld charge        :     -0.08165691
  |   Free atom volume        :     38.37861207
  |   Hirshfeld volume        :     33.69192624
  |   Hirshfeld dipole vector :     -0.02004231      -0.00000323       0.00000000
  |   Hirshfeld dipole moment :      0.02004231
  |   Hirshfeld second moments:      0.06169062      -0.00000039      -0.00000000
  |                                 -0.00000039       0.11958758       0.00000000
  |                                 -0.00000000       0.00000000       0.11958824
  ----------------------------------------------------------------------
  | Atom     3: Cl
  |   Hirshfeld charge        :     -0.63773701
  |   Free atom volume        :     65.35447769
  |   Hirshfeld volume        :     80.44415574
  |   Hirshfeld dipole vector :     -0.16500816      -0.00000048       0.00000000
  |   Hirshfeld dipole moment :      0.16500816
  |   Hirshfeld second moments:     -0.29597107      -0.00000847      -0.00000000
  |                                 -0.00000847      -0.51288246      -0.00000000
  |                                 -0.00000000      -0.00000000      -0.51287817
  ----------------------------------------------------------------------
  | Atom     4: H
  |   Hirshfeld charge        :      0.02681401
  |   Free atom volume        :     10.31539447
  |   Hirshfeld volume        :      8.19347467
  |   Hirshfeld dipole vector :      0.00479845       0.08548984       0.00000000
  |   Hirshfeld dipole moment :      0.08562440
  |   Hirshfeld second moments:      0.02752090      -0.00484650       0.00000000
  |                                 -0.00484650       0.07838887       0.00000000
  |                                  0.00000000       0.00000000       0.09368616
  ----------------------------------------------------------------------
  | Atom     5: H
  |   Hirshfeld charge        :      0.02681056
  |   Free atom volume        :     10.31539447
  |   Hirshfeld volume        :      8.19340971
  |   Hirshfeld dipole vector :      0.00480220      -0.04274808       0.07403711
  |   Hirshfeld dipole moment :      0.08562683
  |   Hirshfeld second moments:      0.02751895       0.00242364      -0.00419929
  |                                  0.00242364       0.08986330       0.00662433
  |                                 -0.00419929       0.00662433       0.08221437
  ----------------------------------------------------------------------
  | Atom     6: H
  |   Hirshfeld charge        :      0.02681056
  |   Free atom volume        :     10.31539447
  |   Hirshfeld volume        :      8.19340971
  |   Hirshfeld dipole vector :      0.00480220      -0.04274808      -0.07403711
  |   Hirshfeld dipole moment :      0.08562683
  |   Hirshfeld second moments:      0.02751895       0.00242364       0.00419929
  |                                  0.00242364       0.08986330      -0.00662433
  |                                  0.00419929      -0.00662433       0.08221437
  ----------------------------------------------------------------------


  Total energy components:
  | Sum of eigenvalues            :        -546.26234095 Ha      -14864.55459741 eV
  | XC energy correction          :         -63.01650736 Ha       -1714.76641173 eV
  | XC potential correction       :          81.41776286 Ha        2215.49005040 eV
  | Free-atom electrostatic energy:        -424.30493751 Ha      -11545.92479979 eV
  | Hartree energy correction     :         -12.37654169 Ha        -336.78283462 eV
  | vdW energy correction         :          -0.00037008 Ha          -0.01007026 eV
  | Entropy correction            :           0.00000000 Ha           0.00000000 eV
  | ---------------------------
  | Total energy                  :        -964.54293472 Ha      -26246.54866341 eV
  | Total energy, T -> 0          :        -964.54293472 Ha      -26246.54866341 eV  <-- do not rely on this value for anything but (periodic) metals
  | Electronic free energy        :        -964.54293472 Ha      -26246.54866341 eV

  Derived energy quantities:
  | Kinetic energy                :         968.30583282 Ha       26348.94233036 eV
  | Electrostatic energy          :       -1869.83189010 Ha      -50880.71451178 eV
  | Energy correction for multipole
  | error in Hartree potential    :          -0.00233935 Ha          -0.06365703 eV
  | Sum of eigenvalues per atom                           :       -2477.42576623 eV
  | Total energy (T->0) per atom                          :       -4374.42477723 eV  <-- do not rely on this value for anything but (periodic) metals
  | Electronic free energy per atom                       :       -4374.42477723 eV

  atomic forces [eV/Ang]:
  -----------------------
  atom #    1
   Hellmann-Feynman              : -0.159581E+02 -0.751552E-04 -0.456987E-10
   Ionic forces                  :  0.000000E+00  0.000000E+00  0.000000E+00
   Multipole                     :  0.404300E-01  0.172523E-06 -0.101156E-11
   Pulay + GGA                   :  0.165156E+02  0.108521E-03  0.107946E-09
   Van der Waals                 :  0.368673E-02  0.538326E-07 -0.251445E-13
   ----------------------------------------------------------------
   Total forces(   1)            :  0.601636E+00  0.335924E-04  0.612103E-10
  atom #    2
   Hellmann-Feynman              :  0.180045E+01  0.982216E-03 -0.144311E-10
   Ionic forces                  :  0.000000E+00  0.000000E+00  0.000000E+00
   Multipole                     : -0.232985E+00  0.512532E-04  0.151348E-11
   Pulay + GGA                   : -0.222037E+01 -0.160381E-02  0.145851E-10
   Van der Waals                 : -0.100412E-02  0.302279E-11  0.332103E-14
   ----------------------------------------------------------------
   Total forces(   2)            : -0.653911E+00 -0.570344E-03  0.167080E-11
  atom #    3
   Hellmann-Feynman              :  0.419219E+01 -0.114446E-03 -0.180607E-10
   Ionic forces                  :  0.000000E+00  0.000000E+00  0.000000E+00
   Multipole                     : -0.773372E-01 -0.578608E-05  0.151095E-11
   Pulay + GGA                   : -0.391099E+01  0.354247E-03  0.975553E-10
   Van der Waals                 : -0.211577E-02 -0.438349E-07 -0.424446E-14
   ----------------------------------------------------------------
   Total forces(   3)            :  0.201745E+00  0.233971E-03  0.810014E-10
  atom #    4
   Hellmann-Feynman              : -0.497840E-01 -0.643630E-01 -0.214714E-11
   Ionic forces                  :  0.000000E+00  0.000000E+00  0.000000E+00
   Multipole                     : -0.170508E-01 -0.401967E-01  0.888811E-13
   Pulay + GGA                   :  0.176728E-01  0.777333E-01  0.140389E-12
   Van der Waals                 : -0.189121E-03  0.164474E-02  0.510985E-14
   ----------------------------------------------------------------
   Total forces(   4)            : -0.493511E-01 -0.251817E-01 -0.191276E-11
  atom #    5
   Hellmann-Feynman              : -0.498390E-01  0.321707E-01 -0.555428E-01
   Ionic forces                  :  0.000000E+00  0.000000E+00  0.000000E+00
   Multipole                     : -0.170611E-01  0.200999E-01 -0.348143E-01
   Pulay + GGA                   :  0.175491E-01 -0.388350E-01  0.672816E-01
   Van der Waals                 : -0.188863E-03 -0.822377E-03  0.142435E-02
   ----------------------------------------------------------------
   Total forces(   5)            : -0.495398E-01  0.126133E-01 -0.216511E-01
  atom #    6
   Hellmann-Feynman              : -0.498390E-01  0.321707E-01  0.555428E-01
   Ionic forces                  :  0.000000E+00  0.000000E+00  0.000000E+00
   Multipole                     : -0.170611E-01  0.200999E-01  0.348143E-01
   Pulay + GGA                   :  0.175491E-01 -0.388350E-01 -0.672816E-01
   Van der Waals                 : -0.188863E-03 -0.822377E-03 -0.142435E-02
   ----------------------------------------------------------------
   Total forces(   6)            : -0.495398E-01  0.126133E-01  0.216511E-01

  Timings for VdW correction (Tkatchenko-Scheffler 2009 or later):
  | CPU time:        0.052 s, Wall clock time:        0.052 s.
  Removing unitary transformations (pure translations, rotations) from forces on atoms.
  Atomic forces before filtering:
  | Net force on center of mass :   0.103885E-02 -0.257905E-03  0.129946E-09 eV/A
  | Net torque on center of mass:  -0.941282E-14 -0.811577E-10  0.400768E-03 eV
  Atomic forces after filtering:
  | Net force on center of mass :   0.446015E-16  0.278760E-17 -0.278760E-17 eV/A
  | Net torque on center of mass:   0.000000E+00  0.663809E-17  0.118011E-16 eV

  Energy and forces in a compact form:
  | Total energy uncorrected      :         -0.262465486634052E+05 eV
  | Total energy corrected        :         -0.262465486634052E+05 eV  <-- do not rely on this value for anything but (periodic) metals
  | Electronic free energy        :         -0.262465486634052E+05 eV
  Total atomic forces (unitary forces cleaned) [eV/Ang]:
  |   1          0.601462523925765E+00          0.147623003148876E-03          0.539398911018920E-10
  |   2         -0.654084009218870E+00         -0.521566341558474E-03         -0.188136402758850E-10
  |   3          0.201571607494078E+00          0.201621765304170E-03          0.440882684016193E-10
  |   4         -0.494913931160295E-01         -0.251391786083032E-01         -0.236692001195912E-10
  |   5         -0.497293645487950E-01          0.126557500930746E-01         -0.216510853740462E-01
  |   6         -0.497293645361487E-01          0.126557500883340E-01          0.216510853185008E-01

  ------------------------------------ 
  Start decomposition of the XC Energy 
  ------------------------------------ 
  X and C from original XC functional choice 
  Hartree-Fock Energy :          0.000000000 Ha              0.000000000 eV
  X Energy            :        -61.393113622 Ha          -1670.591620427 eV
  C Energy            :         -1.623393742 Ha            -44.174791303 eV
  Total XC Energy     :        -63.016507364 Ha          -1714.766411731 eV
  ------------------------------------ 
  LDA X and C from self-consistent density 
  X Energy LDA        :        -56.800343715 Ha          -1545.615992567 eV
  C Energy LDA        :         -3.247719911 Ha            -88.374955258 eV
  ------------------------------------ 
  End decomposition of the XC Energy 
  ------------------------------------ 

------------------------------------------------------------

------------------------------------------------------------------------------
  Final output of selected total energy values:

  The following output summarizes some interesting total energy values
  at the end of a run (AFTER all relaxation, molecular dynamics, etc.).

  | Total energy of the DFT / Hartree-Fock s.c.f. calculation      :         -26246.548663405 eV
  | Final zero-broadening corrected energy (caution - metals only) :         -26246.548663405 eV
  | For reference only, the value of 1 Hartree used in FHI-aims is :             27.211384500 eV

  Before relying on these values, please be sure to understand exactly which
  total energy value is referred to by a given number. Different objects may
  all carry the same name 'total energy'. Definitions:

  Total energy of the DFT / Hartree-Fock s.c.f. calculation:
  | Note that this energy does not include ANY quantities calculated after the
  | s.c.f. cycle, in particular not ANY RPA, MP2, etc. many-body perturbation terms.

  Final zero-broadening corrected energy:
  | For metallic systems only, a broadening of the occupation numbers at the Fermi
  | level can be extrapolated back to zero broadening by an electron-gas inspired
  | formula. For all systems that are not real metals, this value can be
  | meaningless and should be avoided.

------------------------------------------------------------------------------
  Methods described in the following list of references were used in this FHI-aims run.
  If you publish the results, please make sure to cite these reference if they apply.
  FHI-aims is an academic code, and for our developers (often, Ph.D. students
  and postdocs), scientific credit in the community is essential.
  Thank you for helping us!

  For any use of FHI-aims, please cite:

    Volker Blum, Ralf Gehrke, Felix Hanke, Paula Havu, Ville Havu,
    Xinguo Ren, Karsten Reuter, and Matthias Scheffler
    'Ab initio molecular simulations with numeric atom-centered orbitals'
    Computer Physics Communications 180, 2175-2196 (2009)
    http://dx.doi.org/10.1016/j.cpc.2009.06.022


  For the real-space grid partitioning and parallelization used in this calculation, please cite:

    Ville Havu, Volker Blum, Paula Havu, and Matthias Scheffler,
    'Efficient O(N) integration for all-electron electronic structure calculation'
    'using numerically tabulated basis functions'
    Journal of Computational Physics 228, 8367-8379 (2009).
    http://dx.doi.org/10.1016/j.jcp.2009.08.008

  Of course, there are many other important community references, e.g., those cited in the
  above references. Our list is limited to references that describe implementations in the
  FHI-aims code. The reason is purely practical (length of this list) - please credit others as well.

------------------------------------------------------------
          Leaving FHI-aims.
          Date     :  20180214, Time     :  162559.111

          Computational steps:
          | Number of self-consistency cycles          :           16
          | Number of SCF (re)initializations          :            1

          Detailed time accounting                     :  max(cpu_time)    wall_clock(cpu1)
          | Total time                                 :       14.252 s          14.311 s
          | Preparation time                           :        0.384 s           0.397 s
          | Boundary condition initalization           :        0.000 s           0.000 s
          | Grid partitioning                          :        0.096 s           0.096 s
          | Preloading free-atom quantities on grid    :        0.024 s           0.021 s
          | Free-atom superposition energy             :        0.024 s           0.022 s
          | Total time for integrations                :        4.644 s           4.626 s
          | Total time for solution of K.-S. equations :        0.080 s           0.063 s
          | Total time for density & force components  :        5.060 s           5.051 s
          | Total time for mixing                      :        0.252 s           0.232 s
          | Total time for Hartree multipole update    :        0.280 s           0.266 s
          | Total time for Hartree multipole sum       :        3.356 s           3.342 s
          | Total time for total energy evaluation     :        0.020 s           0.017 s
          | Total time for scaled ZORA corrections     :        0.000 s           0.000 s
          | Total time for vdW correction              :        0.052 s           0.052 s

          Partial memory accounting:
          | Residual value for overall tracked memory usage across tasks :           0.000 MB (should be 0.000 MB)
          | Peak values for overall tracked memory usage (after allocating hessian_basis_wave):
          |   Minimum:        2.249 MB (on task 8)
          |   Maximum:        2.265 MB (on task 1)
          |   Average:        2.263 MB
          | Largest tracked array allocation (hessian_basis_wave):
          |   Minimum:        1.078 MB (on task 8)
          |   Maximum:        1.087 MB (on task 1)
          |   Average:        1.086 MB
          Note:  These values currently only include a subset of arrays which are explicitly tracked.
          The "true" memory usage will be greater.

          Have a nice day.
------------------------------------------------------------
