  MPI-parallelism will be employed.
------------------------------------------------------------
          Invoking FHI-aims ...

          When using FHI-aims, please cite the following reference:

          Volker Blum, Ralf Gehrke, Felix Hanke, Paula Havu,
          Ville Havu, Xinguo Ren, Karsten Reuter, and Matthias Scheffler,
          'Ab Initio Molecular Simulations with Numeric Atom-Centered Orbitals',
          Computer Physics Communications 180, 2175-2196 (2009)

          For any questions about FHI-aims, please visit the aimsclub website
          with its forums and wiki. Contributions to both the forums and the
          wiki are warmly encouraged - they are for you, and everyone is welcome there.

------------------------------------------------------------



  Date     :  20190817, Time     :  154017.585
  Time zero on CPU 1             :   0.431060000000000E-01  s.
  Internal wall clock time zero  :           335288417.585  s.

  FHI-aims created a unique identifier for this run for later identification
  aims_uuid : BC31C873-1CA8-4979-AE0A-38630233230E

  Build configuration of the current instance of FHI-aims
  -------------------------------------------------------
  FHI-aims version      : 190813
  Commit number         : 3da7baeb3
  CMake host system     : Linux-4.4.180-94.97-default
  CMake version         : 3.5.2
  Fortran compiler      : /mpcdf/soft/SLE_12_SP3/packages/x86_64/intel_parallel_studio/2018.4/compilers_and_libraries_2018.5.274/linux/mpi/bin64/mpiifort (Intel) version 18.0.5.20180823
  Fortran compiler flags: -O3 -ip -fp-model precise
  C compiler            : /mpcdf/soft/SLE_12_SP3/packages/skylake/intel/18.0.5/bin/icc (Intel) version 18.0.5.20180823
  C compiler flags      : -O3 -ip -fp-model precise
  Architecture          :
  Using MPI
  Using Scalapack
  Using C files
  Using SPGlib
  Using i-PI
  Linking against: /mpcdf/soft/SLE_12_SP3/packages/x86_64/anaconda/3.5.1.0/lib/libmkl_intel_lp64.so
                   /mpcdf/soft/SLE_12_SP3/packages/x86_64/anaconda/3.5.1.0/lib/libmkl_sequential.so
                   /mpcdf/soft/SLE_12_SP3/packages/x86_64/anaconda/3.5.1.0/lib/libmkl_core.so
                   /mpcdf/soft/SLE_12_SP3/packages/x86_64/anaconda/3.5.1.0/lib/libmkl_blacs_intelmpi_lp64.so
                   /mpcdf/soft/SLE_12_SP3/packages/x86_64/anaconda/3.5.1.0/lib/libmkl_scalapack_lp64.so

  Using        8 parallel tasks.
  Task        0 on host co1631 reporting.
  Task        1 on host co1631 reporting.
  Task        2 on host co1631 reporting.
  Task        3 on host co1631 reporting.
  Task        4 on host co1631 reporting.
  Task        5 on host co1631 reporting.
  Task        6 on host co1631 reporting.
  Task        7 on host co1631 reporting.

  Performing system and environment tests:
  | Environment variable OMP_NUM_THREADS correctly set to 1.
  | Maximum stacksize for task 0: unlimited
  | Maximum stacksize for task 1: unlimited
  | Maximum stacksize for task 2: unlimited
  | Maximum stacksize for task 3: unlimited
  | Maximum stacksize for task 4: unlimited
  | Maximum stacksize for task 5: unlimited
  | Maximum stacksize for task 6: unlimited
  | Maximum stacksize for task 7: unlimited
  | Current stacksize for task 0: unlimited
  | Current stacksize for task 1: unlimited
  | Current stacksize for task 2: unlimited
  | Current stacksize for task 3: unlimited
  | Current stacksize for task 4: unlimited
  | Current stacksize for task 5: unlimited
  | Current stacksize for task 6: unlimited
  | Current stacksize for task 7: unlimited
  | Checking for scalapack...
  | Testing pdtran()...
  | All pdtran() tests passed.

  Obtaining array dimensions for all initial allocations:
  
  -----------------------------------------------------------------------
  Parsing control.in (first pass over file, find array dimensions only).
  The contents of control.in will be repeated verbatim below
  unless switched off by setting 'verbatim_writeout .false.' .
  in the first line of control.in .
  -----------------------------------------------------------------------
  
  #=====================================================
  #FHI-aims file: ./control.in
  #Created using the Atomic Simulation Environment (ASE)
  #
  #List of parameters used to initialize the calculator:
  #=====================================================
  sc_accuracy_rho                    1E-4
  relativistic                       none
  occupation_type                    gaussian 0.01
  n_max_pulay                        10
  mixer                              pulay
  sc_accuracy_etot                   1E-6
  sc_accuracy_eev                    1E-2
  charge                             0
  xc                                 blyp
  default_initial_moment             0
  spin                               none
  charge_mix_param                   0.5
  ##################
  KS_method elpa
  density_update_method density_matrix
  ##################
  restart                 h_kv
  ################################################################################
  #
  #  FHI-aims code project
  #  VB, Fritz-Haber Institut, 2009
  #
  #  Suggested "light" defaults for O atom (to be pasted into control.in file)
  #  Be sure to double-check any results obtained with these settings for post-processing,
  #  e.g., with the "tight" defaults and larger basis sets.
  #
  ################################################################################
    species        O
  #     global species definitions
      nucleus             8
      mass                15.9994
  #
      l_hartree           4
  #
      cut_pot             3.5  1.5  1.0
      basis_dep_cutoff    1e-4
  #
      radial_base         36 5.0
      radial_multiplier   1
       angular_grids specified
        division   0.2659   50
        division   0.4451  110
        division   0.6052  194
        division   0.7543  302
  #      division   0.8014  434
  #      division   0.8507  590
  #      division   0.8762  770
  #      division   0.9023  974
  #      division   1.2339 1202
  #      outer_grid 974
        outer_grid 302
  ################################################################################
  #
  #  Definition of "minimal" basis
  #
  ################################################################################
  #     valence basis states
      valence      2  s   2.
      valence      2  p   4.
  #     ion occupancy
      ion_occ      2  s   1.
      ion_occ      2  p   3.
  ################################################################################
  #
  #  Suggested additional basis functions. For production calculations,
  #  uncomment them one after another (the most important basis functions are
  #  listed first).
  #
  #  Constructed for dimers: 1.0 A, 1.208 A, 1.5 A, 2.0 A, 3.0 A
  #
  ################################################################################
  #  "First tier" - improvements: -699.05 meV to -159.38 meV
       hydro 2 p 1.8
       hydro 3 d 7.6
       hydro 3 s 6.4
  #  "Second tier" - improvements: -49.91 meV to -5.39 meV
  #     hydro 4 f 11.6
  #     hydro 3 p 6.2
  #     hydro 3 d 5.6
  #     hydro 5 g 17.6
  #     hydro 1 s 0.75
  #  "Third tier" - improvements: -2.83 meV to -0.50 meV
  #     ionic 2 p auto
  #     hydro 4 f 10.8
  #     hydro 4 d 4.7
  #     hydro 2 s 6.8
  #  "Fourth tier" - improvements: -0.40 meV to -0.12 meV
  #     hydro 3 p 5
  #     hydro 3 s 3.3
  #     hydro 5 g 15.6
  #     hydro 4 f 17.6
  #     hydro 4 d 14
  # Further basis functions - -0.08 meV and below
  #     hydro 3 s 2.1
  #     hydro 4 d 11.6
  #     hydro 3 p 16
  #     hydro 2 s 17.2
  ################################################################################
  #
  #  FHI-aims code project
  #  VB, Fritz-Haber Institut, 2009
  #
  #  Suggested "light" defaults for H atom (to be pasted into control.in file)
  #  Be sure to double-check any results obtained with these settings for post-processing,
  #  e.g., with the "tight" defaults and larger basis sets.
  #
  ################################################################################
    species        H
  #     global species definitions
      nucleus             1
      mass                1.00794
  #
      l_hartree           4
  #
      cut_pot             3.5  1.5  1.0
      basis_dep_cutoff    1e-4
  #
      radial_base         24 5.0
      radial_multiplier   1
      angular_grids       specified
        division   0.2421   50
        division   0.3822  110
        division   0.4799  194
        division   0.5341  302
  #      division   0.5626  434
  #      division   0.5922  590
  #      division   0.6542  770
  #      division   0.6868 1202
  #      outer_grid  770
        outer_grid  302
  ################################################################################
  #
  #  Definition of "minimal" basis
  #
  ################################################################################
  #     valence basis states
      valence      1  s   1.
  #     ion occupancy
      ion_occ      1  s   0.5
  ################################################################################
  #
  #  Suggested additional basis functions. For production calculations,
  #  uncomment them one after another (the most important basis functions are
  #  listed first).
  #
  #  Basis constructed for dimers: 0.5 A, 0.7 A, 1.0 A, 1.5 A, 2.5 A
  #
  ################################################################################
  #  "First tier" - improvements: -1014.90 meV to -62.69 meV
       hydro 2 s 2.1
       hydro 2 p 3.5
  #  "Second tier" - improvements: -12.89 meV to -1.83 meV
  #     hydro 1 s 0.85
  #     hydro 2 p 3.7
  #     hydro 2 s 1.2
  #     hydro 3 d 7
  #  "Third tier" - improvements: -0.25 meV to -0.12 meV
  #     hydro 4 f 11.2
  #     hydro 3 p 4.8
  #     hydro 4 d 9
  #     hydro 3 s 3.2
  
  -----------------------------------------------------------------------
  Completed first pass over input file control.in .
  -----------------------------------------------------------------------
  
  
  -----------------------------------------------------------------------
  Parsing geometry.in (first pass over file, find array dimensions only).
  The contents of geometry.in will be repeated verbatim below
  unless switched off by setting 'verbatim_writeout .false.' .
  in the first line of geometry.in .
  -----------------------------------------------------------------------
  
  #=======================================================
  #FHI-aims file: geometry.in
  #Created using the Atomic Simulation Environment (ASE)
  #=======================================================
  atom 5.7720502381397836 5.5083399083467111 5.7388999999999992 O
  atom 6.7400602381397832 5.5363999083467110 5.7019799999999989 H
  atom 5.4931102381397832 6.0699399083467114 5.0000000000000000 H
  
  -----------------------------------------------------------------------
  Completed first pass over input file geometry.in .
  -----------------------------------------------------------------------
  

  Basic array size parameters:
  | Number of species                 :        2
  | Number of atoms                   :        3
  | Max. basis fn. angular momentum   :        2
  | Max. atomic/ionic basis occupied n:        2
  | Max. number of basis fn. types    :        2
  | Max. radial fns per species/type  :        3
  | Max. logarithmic grid size        :     1301
  | Max. radial integration grid size :       36
  | Max. angular integration grid size:      302
  | Max. angular grid division number :        8
  | Radial grid for Hartree potential :     1301
  | Number of spin channels           :        1

------------------------------------------------------------
          Reading file control.in.
------------------------------------------------------------
  Convergence accuracy of self-consistent charge density:  0.1000E-03
  Non-relativistic treatment of kinetic energy.
  Occupation type: Gaussian broadening, width =   0.100000E-01 eV.
  Pulay mixing - number of memorized iterations:   10
  Using pulay charge density mixing.
  Convergence accuracy of total energy:  0.1000E-05
  Convergence accuracy of sum of eigenvalues:  0.1000E-01
  Charge =   0.000000E+00: Neutral system requested explicitly.
  XC: Using BLYP functional.
  Initial spin moment per atom:   0.0000
  Spin treatment: No spin polarisation.
  Charge density mixing - mixing parameter:     0.5000
  Kohn-Sham electronic structure solved by the ELSI library.
  Restart file specified as : h_kv
  | Reading information from existing file.
 
  Reading configuration options for species O                   .
  | Found nuclear charge :   8.0000
  | Found atomic mass :    15.9994000000000      amu
  | Found l_max for Hartree potential  :   4
  | Found cutoff potl. onset [A], width [A], scale factor :    3.50000    1.50000    1.00000
  | Threshold for basis-dependent cutoff potential is   0.100000E-03
  | Found data for basic radial integration grid :    36 points, outermost radius =    5.000 A
  | Found multiplier for basic radial grid :   1
  | Found angular grid specification: user-specified.
  | Specified grid contains     5 separate shells.
  | Check grid settings after all constraints further below.
  | Found free-atom valence shell :  2 s   2.000
  | Found free-atom valence shell :  2 p   4.000
  | No ionic wave fns used. Skipping ion_occ.
  | No ionic wave fns used. Skipping ion_occ.
  | Found hydrogenic basis function :  2 p   1.800
  | Found hydrogenic basis function :  3 d   7.600
  | Found hydrogenic basis function :  3 s   6.400
  Species O                   : Missing cutoff potential type.
  Defaulting to exp(1/x)/(1-x)^2 type cutoff potential.
  Species O : No 'logarithmic' tag. Using default grid for free atom:
  | Default logarithmic grid data [bohr] : 0.1000E-03 0.1000E+03 0.1012E+01
  Species O : On-site basis accuracy parameter (for Gram-Schmidt orthonormalisation) not specified.
  Using default value basis_acc =  0.1000000E-03.
  Species O                   : Using default innermost maximum threshold i_radial=  2 for radial functions.
  Species O                   : Default cutoff onset for free atom density etc. : 0.35000000E+01 AA.
  Species O                   : Basic radial grid will be enhanced according to radial_multiplier =   1, to contain    36 grid points.
 
  Reading configuration options for species H                   .
  | Found nuclear charge :   1.0000
  | Found atomic mass :    1.00794000000000      amu
  | Found l_max for Hartree potential  :   4
  | Found cutoff potl. onset [A], width [A], scale factor :    3.50000    1.50000    1.00000
  | Threshold for basis-dependent cutoff potential is   0.100000E-03
  | Found data for basic radial integration grid :    24 points, outermost radius =    5.000 A
  | Found multiplier for basic radial grid :   1
  | Found angular grid specification: user-specified.
  | Specified grid contains     5 separate shells.
  | Check grid settings after all constraints further below.
  | Found free-atom valence shell :  1 s   1.000
  | No ionic wave fns used. Skipping ion_occ.
  | Found hydrogenic basis function :  2 s   2.100
  | Found hydrogenic basis function :  2 p   3.500
  Species H                   : Missing cutoff potential type.
  Defaulting to exp(1/x)/(1-x)^2 type cutoff potential.
  Species H : No 'logarithmic' tag. Using default grid for free atom:
  | Default logarithmic grid data [bohr] : 0.1000E-03 0.1000E+03 0.1012E+01
  Species H : On-site basis accuracy parameter (for Gram-Schmidt orthonormalisation) not specified.
  Using default value basis_acc =  0.1000000E-03.
  Species H                   : Using default innermost maximum threshold i_radial=  2 for radial functions.
  Species H                   : Default cutoff onset for free atom density etc. : 0.35000000E+01 AA.
  Species H                   : Basic radial grid will be enhanced according to radial_multiplier =   1, to contain    24 grid points.
 
  Finished reading input file 'control.in'. Consistency checks are next.
 
  MPI_IN_PLACE appears to work with this MPI implementation.
  | Keeping use_mpi_in_place .true. (see manual).
  Target number of points in a grid batch is not set. Defaulting to  100
  Method for grid partitioning is not set. Defaulting to parallel hash+maxmin partitioning.
  Batch size limit is not set. Defaulting to    200
  By default, will store active basis functions for each batch.
  If in need of memory, prune_basis_once .false. can be used to disable this option.
  communication_type for Hartree potential was not specified.
  Defaulting to calc_hartree .
  Pulay mixer: Number of initial linear mixing iterations not set.
  Defaulting to    0 iterations.
  Work space size for distributed Hartree potential not set.
  Defaulting to   0.200000E+03 MB.
  Algorithm-dependent basis array size parameters:
  | n_max_pulay                         :       10
  Maximum number of self-consistency iterations not provided.
  Presetting  1000 iterations.
  Presetting      1001 iterations before the initial mixing cycle
  is restarted anyway using the sc_init_iter criterion / keyword.
  Presetting a factor      1.000 between actual scf density residual
  and density convergence criterion sc_accuracy_rho below which sc_init_iter
  takes no effect.
  Calculation of forces was not defined in control.in. No forces will be calculated.
  Geometry relaxation not requested: no relaxation will be performed.
  No accuracy limit for integral partition fn. given. Defaulting to  0.1000E-14.
  No threshold value for u(r) in integrations given. Defaulting to  0.1000E-05.
  No accuracy for occupation numbers given. Defaulting to  0.1000E-12.
  No threshold value for occupation numbers given. Defaulting to  0.0000E+00.
  No accuracy for fermi level given. Defaulting to  0.1000E-19.
  Maximum # of iterations to find E_F not set. Defaulting to  200.
  Will not use alltoall communication since running on < 1024 CPUs.
  Threshold for basis singularities not set.
  Default threshold for basis singularities:  0.1000E-04
  partition_type (choice of integration weights) for integrals was not specified.
  | Using a version of the partition function of Stratmann and coworkers ('stratmann_sparse').
  | At each grid point, the set of atoms used to build the partition table is smoothly restricted to
  | only those atoms whose free-atom density would be non-zero at that grid point.
  Partitioning for Hartree potential was not defined. Using partition_type for integrals.
  | Adjusted default value of keyword multip_moments_threshold to:       0.10000000E-11
  | This value may affect high angular momentum components of the Hartree potential in periodic systems.
  No q(lm)/r^(l+1) cutoff set for long-range Hartree potential.
  | Using default value of  0.100000E-09 .
  | Verify using the multipole_threshold keyword.
  Defaulting to new monopole extrapolation.
  Density update method: density matrix based density update selected.
  Scalapack and density-matrix based density update requested:
  Switching to packed matrix format "index" by default.
  Charge integration errors on the 3D integration grid will be compensated
  by explicit normalization and distribution of residual charges.
  Use the "compensate_multipole_errors" flag to change this behaviour.
------------------------------------------------------------


------------------------------------------------------------
          Reading geometry description geometry.in.
------------------------------------------------------------
  Input structure read successfully.
  The structure contains        3 atoms,  and a total of         10.000 electrons.

  Input geometry:
  | No unit cell requested.
  | Atomic structure:
  |       Atom                x [A]            y [A]            z [A]
  |    1: Species O             5.77205024        5.50833991        5.73890000
  |    2: Species H             6.74006024        5.53639991        5.70198000
  |    3: Species H             5.49311024        6.06993991        5.00000000
  | The smallest distance between any two atoms is         0.96911057 AA.
  | The first atom of this pair is atom number                      1 .
  | The second atom of this pair is atom number                     3 .

  Number of empty states per atom not set in control.in - providing a guess from actual geometry.
  | Total number of empty states used during s.c.f. cycle:        6
  If you use a very high smearing, use empty_states (per atom!) in control.in to increase this value.

  Structure-dependent array size parameters: 
  | Maximum number of distinct radial functions  :        9
  | Maximum number of basis functions            :       24
  | Number of Kohn-Sham states (occupied + empty):       11
------------------------------------------------------------

------------------------------------------------------------
          Preparing all fixed parts of the calculation.
------------------------------------------------------------
  Determining machine precision:
    2.225073858507201E-308
  Setting up grids for atomic and cluster calculations.

  Creating wave function, potential, and density for free atoms.

  Species: O

  List of occupied orbitals and eigenvalues:
    n    l              occ      energy [Ha]    energy [eV]
    1    0           2.0000       -18.925625      -514.9924
    2    0           2.0000        -0.873671       -23.7738
    2    1           4.0000        -0.331483        -9.0201


  Species: H

  List of occupied orbitals and eigenvalues:
    n    l              occ      energy [Ha]    energy [eV]
    1    0           1.0000        -0.238986        -6.5031

  Creating fixed part of basis set: Ionic, confined, hydrogenic.
 
  O                    hydrogenic:
 
  List of hydrogenic basis orbitals: 
    n    l      effective z      eigenvalue [eV]  inner max. [A]     outer max. [A]     outer radius [A]   
    2    1         1.800000       -10.9749           1.164242           1.164242           4.578029
    3    2         7.600000       -87.3180           0.624125           0.624125           3.251020
    3    0         6.400000       -61.9207           0.061167           1.081902           4.001998
 
 
  H                    hydrogenic:
 
  List of hydrogenic basis orbitals: 
    n    l      effective z      eigenvalue [eV]  inner max. [A]     outer max. [A]     outer radius [A]   
    2    0         2.100000       -14.9728           0.193243           1.317208           4.583499
    2    1         3.500000       -41.6669           0.602369           0.602369           3.723403
 

  Adding cutoff potential to free-atom effective potential.
  Creating atomic-like basis functions for current effective potential.

  Species O                   :

  List of atomic basis orbitals and eigenvalues:
    n    l      energy [Ha]    energy [eV]    outer radius [A]
    1    0       -18.925625      -514.9924       1.415765
    2    0        -0.873671       -23.7738       4.413171
    2    1        -0.331483        -9.0201       4.522403


  Species H                   :

  List of atomic basis orbitals and eigenvalues:
    n    l      energy [Ha]    energy [eV]    outer radius [A]
    1    0        -0.238986        -6.5031       4.527807

  Assembling full basis from fixed parts.
  | Species O :   atomic orbital   1 s accepted.
  | Species O :    hydro orbital   3 s accepted.
  | Species O :   atomic orbital   2 s accepted.
  | Species O :   atomic orbital   2 p accepted.
  | Species O :    hydro orbital   2 p accepted.
  | Species O :    hydro orbital   3 d accepted.
  | Species H :   atomic orbital   1 s accepted.
  | Species H :    hydro orbital   2 s accepted.
  | Species H :    hydro orbital   2 p accepted.
 
  Basis size parameters after reduction:
  | Total number of radial functions:        9
  | Total number of basis functions :       24
 
  Per-task memory consumption for arrays in subroutine allocate_ext:
  |           2.249332MB.
  Testing on-site integration grid accuracy.
  |  Species  Function  <phi|h_atom|phi> (log., in eV)  <phi|h_atom|phi> (rad., in eV)
           1        1               -514.9924452735               -514.9923413190
           1        2                 15.0534524239                 15.0534441557
           1        3                -21.3939094823                -21.3940036057
           1        4                 -9.0202575877                 -9.0204265336
           1        5                  8.1870500376                  8.1678813384
           1        6                 46.0105627030                 46.0105235867
           2        7                 -6.5043476601                 -6.5031260092
           2        8                 13.5140490794                 13.5199100086
           2        9                 25.3329411271                 25.3330836091

  Preparing densities etc. for the partition functions (integrals / Hartree potential).

  Preparations completed.
  max(cpu_time)          :      0.089 s.
  Wall clock time (cpu1) :      0.089 s.
------------------------------------------------------------

------------------------------------------------------------
          Begin self-consistency loop: Initialization.

          Date     :  20190817, Time     :  154017.717
------------------------------------------------------------

  Initializing index lists of integration centers etc. from given atomic structure:
  | Number of centers in hartree potential         :         3
  | Number of centers in hartree multipole         :         3
  | Number of centers in electron density summation:         3
  | Number of centers in basis integrals           :         3
  | Number of centers in integrals                 :         3
  | Number of centers in hamiltonian               :         3
  * Using 8 tasks for Scalapack Eigenvalue solver.
  Detailed listing of tasks and assigned k-points:
  (for non-periodic systems, the "k-point" denotes an internal label only)
   Task     0 k-point     1 on co1631
   Task     1 k-point     1 on co1631
   Task     2 k-point     1 on co1631
   Task     3 k-point     1 on co1631
   Task     4 k-point     1 on co1631
   Task     5 k-point     1 on co1631
   Task     6 k-point     1 on co1631
   Task     7 k-point     1 on co1631
  Tasks:     8 split into      4 X      2 BLACS grid
  Calculating block size based on n_basis =           24  max_nprow =            4  max_npcol =            2
  ScaLAPACK block size set to:            4
  Allocating        0.001 MB for ovlp
  Allocating        0.001 MB for ham
  Allocating        0.001 MB for eigenvec
  Required Scalapack workspace - INTEGER:            1  REAL:             1
  Partitioning the integration grid into batches with parallel hashing+maxmin method.
  | Number of batches:      214
  | Maximal batch size:     101
  | Minimal batch size:      49
  | Average batch size:      74.411
  | Standard deviation of batch sizes:      16.847

  Integration load balanced across     8 MPI tasks.
  Work distribution over tasks is as follows:
  Task     0 has       1956 integration points.
  Task     1 has       1991 integration points.
  Task     2 has       1980 integration points.
  Task     3 has       2004 integration points.
  Task     4 has       1980 integration points.
  Task     5 has       1991 integration points.
  Task     6 has       2002 integration points.
  Task     7 has       2020 integration points.
  Initializing partition tables, free-atom densities, potentials, etc. across the integration grid (initialize_grid_storage).
  | initialize_grid_storage: Actual outermost partition radius vs. multipole_radius_free
  | (-- VB: in principle, multipole_radius_free should be larger, hence this output)
  | Species        1: Confinement radius =              4.999999999999999 AA, multipole_radius_free =              5.048384829883283 AA.
  | Species        1: outer_partition_radius set to              5.048384829883283 AA .
  | Species        2: Confinement radius =              4.999999999999999 AA, multipole_radius_free =              5.054417573612229 AA.
  | Species        2: outer_partition_radius set to              5.054417573612229 AA .
  | The sparse table of interatomic distances needs          0.09 kbyte instead of         0.07 kbyte of memory.
  | Using the partition_type stratmann_smoother will reduce your memory usage.
  | Net number of integration points:    15924
  | of which are non-zero points    :    14518
  Renormalizing the initial density to the exact electron count on the 3D integration grid.
  | Initial density: Formal number of electrons (from input files) :      10.0000000000
  | Integrated number of electrons on 3D grid     :       9.9999486097
  | Charge integration error                      :      -0.0000513903
  | Normalization factor for density and gradient :       1.0000051391
  Renormalizing the free-atom superposition density to the exact electron count on the 3D integration grid.
  | Formal number of electrons (from input files) :      10.0000000000
  | Integrated number of electrons on 3D grid     :       9.9999486097
  | Charge integration error                      :      -0.0000513903
  | Normalization factor for density and gradient :       1.0000051391
  Obtaining max. number of non-zero basis functions in each batch (get_n_compute_maxes).
  | Maximal number of non-zero basis functions:       24 in task     0
  | Maximal number of non-zero basis functions:       24 in task     1
  | Maximal number of non-zero basis functions:       24 in task     2
  | Maximal number of non-zero basis functions:       24 in task     3
  | Maximal number of non-zero basis functions:       24 in task     4
  | Maximal number of non-zero basis functions:       24 in task     5
  | Maximal number of non-zero basis functions:       24 in task     6
  | Maximal number of non-zero basis functions:       24 in task     7
  Hamiltonian matrix size:
  | Size of matrix non-packed:                   300
  | Size of matrix packed:             301
  Allocating        0.002 MB for KS_eigenvector
  Integrating Hamiltonian matrix: batch-based integration.
  Time summed over all CPUs for integration: real work        0.039 s, elapsed        0.052 s => Consider using load balancing!
  Integrating overlap matrix.
  Time summed over all CPUs for integration: real work        0.012 s, elapsed        0.014 s
  Decreasing sparse matrix size:
   Tolerance:  9.999999824516700E-014
   Hamiltonian matrix
  | Array has      300 nonzero elements out of      301 elements
  | Sparsity factor is 0.003
   Overlap matrix
  | Array has      300 nonzero elements out of      301 elements
  | Sparsity factor is 0.003
  New size of hamiltonian matrix:         301
  Deallocating overlap matrix.

  Updating Kohn-Sham eigenvalues and eigenvectors using ELSI and the ELPA eigensolver.
  Overlap matrix is not singular
  | Lowest and highest eigenvalues :  0.1647E-01,  0.2709E+01
  Finished singularity check of overlap matrix
  | Time :     0.001 s
  Starting ELPA eigensolver
  Finished Cholesky decomposition
  | Time :     0.000 s
  Finished transformation to standard eigenproblem
  | Time :     0.001 s
  Finished solving standard eigenproblem
  | Time :     0.000 s
  Finished back-transformation of eigenvectors
  | Time :     0.000 s

  Obtaining occupation numbers and chemical potential using ELSI.
  | Chemical potential (Fermi level):    -2.80682277 eV
  Writing Kohn-Sham eigenvalues.

  State    Occupation    Eigenvalue [Ha]    Eigenvalue [eV]
      1       2.00000         -19.031715         -517.87930
      2       2.00000          -1.089815          -29.65539
      3       2.00000          -0.623396          -16.96347
      4       2.00000          -0.507111          -13.79920
      5       2.00000          -0.434517          -11.82380
      6       0.00000          -0.049741           -1.35352
      7       0.00000           0.031764            0.86434
      8       0.00000           0.213243            5.80264
      9       0.00000           0.247357            6.73094
     10       0.00000           0.304308            8.28064
     11       0.00000           0.507450           13.80842

  Highest occupied state (VBM) at    -11.82379890 eV
  | Occupation number:      2.00000000

  Lowest unoccupied state (CBM) at    -1.35351620 eV
  | Occupation number:      0.00000000

  Overall HOMO-LUMO gap:     10.47028269 eV.
  Calculating total energy contributions from superposition of free atom densities.

  Total energy components:
  | Sum of eigenvalues            :         -43.37310709 Ha       -1180.24229398 eV
  | XC energy correction          :          -9.08914046 Ha        -247.32809571 eV
  | XC potential correction       :          11.64001697 Ha         316.74097730 eV
  | Free-atom electrostatic energy:         -35.70870679 Ha        -971.68335046 eV
  | Hartree energy correction     :           0.00000000 Ha           0.00000000 eV
  | Entropy correction            :           0.00000000 Ha           0.00000000 eV
  | ---------------------------
  | Total energy                  :         -76.53093737 Ha       -2082.51276286 eV
  | Total energy, T -> 0          :         -76.53093737 Ha       -2082.51276286 eV  <-- do not rely on this value for anything but (periodic) metals
  | Electronic free energy        :         -76.53093737 Ha       -2082.51276286 eV

  Derived energy quantities:
  | Kinetic energy                :          75.63169471 Ha        2058.04312525 eV
  | Electrostatic energy          :        -143.07349163 Ha       -3893.22779239 eV
  | Energy correction for multipole
  | error in Hartree potential    :           0.00000000 Ha           0.00000000 eV
  | Sum of eigenvalues per atom                           :        -393.41409799 eV
  | Total energy (T->0) per atom                          :        -694.17092095 eV  <-- do not rely on this value for anything but (periodic) metals
  | Electronic free energy per atom                       :        -694.17092095 eV
  Initialize hartree_potential_storage
  Max. number of atoms included in rho_multipole:            3

  End scf initialization - timings             :  max(cpu_time)    wall_clock(cpu1)
  | Time for scf. initialization               :        0.024 s           0.024 s
  | Boundary condition initialization          :        0.000 s           0.000 s
  | Integration                                :        0.009 s           0.009 s
  | Solution of K.-S. eqns.                    :        0.003 s           0.003 s
  | Grid partitioning                          :        0.005 s           0.005 s
  | Preloading free-atom quantities on grid    :        0.002 s           0.002 s
  | Free-atom superposition energy             :        0.002 s           0.002 s
  | Total energy evaluation                    :        0.000 s           0.000 s

  Partial memory accounting:
  | Current value for overall tracked memory usage:
  |   Minimum:        0.007 MB (on task 4)
  |   Maximum:        0.008 MB (on task 0)
  |   Average:        0.007 MB
  | Peak value for overall tracked memory usage:
  |   Minimum:        0.070 MB (on task 6 after allocating wave)
  |   Maximum:        0.110 MB (on task 4 after allocating grid_partition)
  |   Average:        0.082 MB
  | Largest tracked array allocation so far:
  |   Minimum:        0.023 MB (all_coords on task 3)
  |   Maximum:        0.073 MB (all_coords on task 4)
  |   Average:        0.046 MB
  Note:  These values currently only include a subset of arrays which are explicitly tracked.
  The "true" memory usage will be greater.
------------------------------------------------------------

------------------------------------------------------------
          Initial SCF-cycle to compute last known
          density from restart information.

  Date     :  20190817, Time     :  154017.741
------------------------------------------------------------
  Evaluating new KS density using the density matrix
  Reading scalapack restart information from file h_kv
  Writing scalapack restart information to file h_kv
  Time summed over all CPUs for getting density from density matrix: real work        0.023 s, elapsed        0.024 s
  Integration grid: deviation in total charge (<rho> - N_e) =   1.065814E-14
  Renormalizing the density to the exact electron count on the 3D integration grid.
  | Formal number of electrons (from input files) :      10.0000000000
  | Integrated number of electrons on 3D grid     :      10.0000000000
  | Charge integration error                      :       0.0000000000
  | Normalization factor for density and gradient :       1.0000000000

  Evaluating partitioned Hartree potential by multipole expansion.
  | Original multipole sum: apparent total charge =  -0.164805E-14
  | Sum of charges compensated after spline to logarithmic grids =   0.163988E-03
  | Analytical far-field extrapolation by fixed multipoles:
  | Hartree multipole sum: apparent total charge =  -0.159885E-14
  Summing up the Hartree potential.
  Time summed over all CPUs for potential: real work        0.028 s, elapsed        0.029 s
  | RMS charge density error from multipole expansion :   0.643875E-02

  Integrating Hamiltonian matrix: batch-based integration.
  Time summed over all CPUs for integration: real work        0.036 s, elapsed        0.038 s

  Updating Kohn-Sham eigenvalues and eigenvectors using ELSI and the ELPA eigensolver.
  Starting ELPA eigensolver
  Finished transformation to standard eigenproblem
  | Time :     0.000 s
  Finished solving standard eigenproblem
  | Time :     0.000 s
  Finished back-transformation of eigenvectors
  | Time :     0.000 s

  Obtaining occupation numbers and chemical potential using ELSI.
  | Chemical potential (Fermi level):    -0.71857208 eV
  Writing Kohn-Sham eigenvalues.

  State    Occupation    Eigenvalue [Ha]    Eigenvalue [eV]
      1       2.00000         -18.783512         -511.12536
      2       2.00000          -0.919361          -25.01709
      3       2.00000          -0.476258          -12.95964
      4       2.00000          -0.335853           -9.13902
      5       2.00000          -0.258524           -7.03479
      6       0.00000          -0.002058           -0.05600
      7       0.00000           0.095434            2.59689
      8       0.00000           0.295130            8.03090
      9       0.00000           0.331207            9.01261
     10       0.00000           0.370163           10.07264
     11       0.00000           0.578661           15.74616

  Highest occupied state (VBM) at     -7.03479169 eV
  | Occupation number:      2.00000000

  Lowest unoccupied state (CBM) at    -0.05599503 eV
  | Occupation number:      0.00000000

  Overall HOMO-LUMO gap:      6.97879667 eV.

  Total energy components:
  | Sum of eigenvalues            :         -41.54701568 Ha       -1130.55181839 eV
  | XC energy correction          :          -9.30536311 Ha        -253.21181344 eV
  | XC potential correction       :          11.92443252 Ha         324.48031815 eV
  | Free-atom electrostatic energy:         -35.70870679 Ha        -971.68335046 eV
  | Hartree energy correction     :          -1.81571168 Ha         -49.40802854 eV
  | Entropy correction            :           0.00000000 Ha           0.00000000 eV
  | ---------------------------
  | Total energy                  :         -76.45236473 Ha       -2080.37469268 eV
  | Total energy, T -> 0          :         -76.45236473 Ha       -2080.37469268 eV  <-- do not rely on this value for anything but (periodic) metals
  | Electronic free energy        :         -76.45236473 Ha       -2080.37469268 eV

  Derived energy quantities:
  | Kinetic energy                :          76.21328365 Ha        2073.86896529 eV
  | Electrostatic energy          :        -143.36028527 Ha       -3901.03184453 eV
  | Energy correction for multipole
  | error in Hartree potential    :          -0.00312347 Ha          -0.08499384 eV
  | Sum of eigenvalues per atom                           :        -376.85060613 eV
  | Total energy (T->0) per atom                          :        -693.45823089 eV  <-- do not rely on this value for anything but (periodic) metals
  | Electronic free energy per atom                       :        -693.45823089 eV

  Self-consistency convergence accuracy:
  | Change of charge density      :  0.1749E+00
  | Change of sum of eigenvalues  :  0.4969E+02 eV
  | Change of total energy        :  0.2138E+01 eV

  End self-consistency iteration #     0       :  max(cpu_time)    wall_clock(cpu1)
  | Time for this iteration                    :        0.018 s           0.019 s
  | Charge density update                      :        0.007 s           0.007 s
  | Density mixing                             :        0.000 s           0.001 s
  | Hartree multipole update                   :        0.001 s           0.000 s
  | Hartree multipole summation                :        0.004 s           0.005 s
  | Integration                                :        0.005 s           0.004 s
  | Solution of K.-S. eqns.                    :        0.001 s           0.000 s
  | Total energy evaluation                    :        0.000 s           0.000 s

  Partial memory accounting:
  | Current value for overall tracked memory usage:
  |   Minimum:        0.007 MB (on task 4)
  |   Maximum:        0.008 MB (on task 0)
  |   Average:        0.007 MB
  | Peak value for overall tracked memory usage:
  |   Minimum:        0.122 MB (on task 4 after allocating gradient_basis_wave)
  |   Maximum:        0.123 MB (on task 0 after allocating gradient_basis_wave)
  |   Average:        0.123 MB
  | Largest tracked array allocation so far:
  |   Minimum:        0.055 MB (gradient_basis_wave on task 0)
  |   Maximum:        0.073 MB (all_coords on task 4)
  |   Average:        0.059 MB
  Note:  These values currently only include a subset of arrays which are explicitly tracked.
  The "true" memory usage will be greater.
------------------------------------------------------------

------------------------------------------------------------
          Begin self-consistency iteration #    1

  Date     :  20190817, Time     :  154017.760
------------------------------------------------------------
  Evaluating new KS density using the density matrix
  Evaluating density matrix
  Writing scalapack restart information to file h_kv
  Time summed over all CPUs for getting density from density matrix: real work        0.023 s, elapsed        0.025 s
  Integration grid: deviation in total charge (<rho> - N_e) =   0.000000E+00
  Pulay mixing of updated and previous charge densities.
  Renormalizing the density to the exact electron count on the 3D integration grid.
  | Formal number of electrons (from input files) :      10.0000000000
  | Integrated number of electrons on 3D grid     :      10.0000000000
  | Charge integration error                      :      -0.0000000000
  | Normalization factor for density and gradient :       1.0000000000

  Evaluating partitioned Hartree potential by multipole expansion.
  | Original multipole sum: apparent total charge =  -0.487035E-14
  | Sum of charges compensated after spline to logarithmic grids =   0.163969E-03
  | Analytical far-field extrapolation by fixed multipoles:
  | Hartree multipole sum: apparent total charge =  -0.450139E-14
  Summing up the Hartree potential.
  Time summed over all CPUs for potential: real work        0.027 s, elapsed        0.028 s
  | RMS charge density error from multipole expansion :   0.643895E-02

  Integrating Hamiltonian matrix: batch-based integration.
  Time summed over all CPUs for integration: real work        0.036 s, elapsed        0.038 s

  Updating Kohn-Sham eigenvalues and eigenvectors using ELSI and the ELPA eigensolver.
  Starting ELPA eigensolver
  Finished transformation to standard eigenproblem
  | Time :     0.000 s
  Finished solving standard eigenproblem
  | Time :     0.001 s
  Finished back-transformation of eigenvectors
  | Time :     0.000 s

  Obtaining occupation numbers and chemical potential using ELSI.
  | Chemical potential (Fermi level):    -0.71892444 eV
  Writing Kohn-Sham eigenvalues.

  State    Occupation    Eigenvalue [Ha]    Eigenvalue [eV]
      1       2.00000         -18.783603         -511.12786
      2       2.00000          -0.919397          -25.01806
      3       2.00000          -0.476287          -12.96043
      4       2.00000          -0.335888           -9.13997
      5       2.00000          -0.258560           -7.03578
      6       0.00000          -0.002066           -0.05623
      7       0.00000           0.095421            2.59654
      8       0.00000           0.295112            8.03042
      9       0.00000           0.331187            9.01207
     10       0.00000           0.370153           10.07237
     11       0.00000           0.578650           15.74588

  Highest occupied state (VBM) at     -7.03578169 eV
  | Occupation number:      2.00000000

  Lowest unoccupied state (CBM) at    -0.05622900 eV
  | Occupation number:      0.00000000

  Overall HOMO-LUMO gap:      6.97955269 eV.

  Total energy components:
  | Sum of eigenvalues            :         -41.54747040 Ha       -1130.56419192 eV
  | XC energy correction          :          -9.30530593 Ha        -253.21025765 eV
  | XC potential correction       :          11.92435773 Ha         324.47828310 eV
  | Free-atom electrostatic energy:         -35.70870679 Ha        -971.68335046 eV
  | Hartree energy correction     :          -1.81523937 Ha         -49.39517652 eV
  | Entropy correction            :           0.00000000 Ha           0.00000000 eV
  | ---------------------------
  | Total energy                  :         -76.45236476 Ha       -2080.37469345 eV
  | Total energy, T -> 0          :         -76.45236476 Ha       -2080.37469345 eV  <-- do not rely on this value for anything but (periodic) metals
  | Electronic free energy        :         -76.45236476 Ha       -2080.37469345 eV

  Derived energy quantities:
  | Kinetic energy                :          76.21290560 Ha        2073.85867823 eV
  | Electrostatic energy          :        -143.35996443 Ha       -3901.02311403 eV
  | Energy correction for multipole
  | error in Hartree potential    :          -0.00312437 Ha          -0.08501839 eV
  | Sum of eigenvalues per atom                           :        -376.85473064 eV
  | Total energy (T->0) per atom                          :        -693.45823115 eV  <-- do not rely on this value for anything but (periodic) metals
  | Electronic free energy per atom                       :        -693.45823115 eV

  Self-consistency convergence accuracy:
  | Change of charge density      :  0.7246E-04
  | Change of sum of eigenvalues  : -0.1237E-01 eV
  | Change of total energy        : -0.7715E-06 eV

  End self-consistency iteration #     1       :  max(cpu_time)    wall_clock(cpu1)
  | Time for this iteration                    :        0.016 s           0.016 s
  | Charge density update                      :        0.005 s           0.005 s
  | Density mixing                             :        0.000 s           0.001 s
  | Hartree multipole update                   :        0.001 s           0.001 s
  | Hartree multipole summation                :        0.004 s           0.003 s
  | Integration                                :        0.005 s           0.005 s
  | Solution of K.-S. eqns.                    :        0.001 s           0.001 s
  | Total energy evaluation                    :        0.000 s           0.000 s

  Partial memory accounting:
  | Current value for overall tracked memory usage:
  |   Minimum:        0.007 MB (on task 4)
  |   Maximum:        0.008 MB (on task 0)
  |   Average:        0.007 MB
  | Peak value for overall tracked memory usage:
  |   Minimum:        0.122 MB (on task 4 after allocating gradient_basis_wave)
  |   Maximum:        0.123 MB (on task 0 after allocating gradient_basis_wave)
  |   Average:        0.123 MB
  | Largest tracked array allocation so far:
  |   Minimum:        0.055 MB (all_coords on task 0)
  |   Maximum:        0.073 MB (all_coords on task 4)
  |   Average:        0.059 MB
  Note:  These values currently only include a subset of arrays which are explicitly tracked.
  The "true" memory usage will be greater.
------------------------------------------------------------

------------------------------------------------------------
          Begin self-consistency iteration #    2

  Date     :  20190817, Time     :  154017.776
------------------------------------------------------------
  Evaluating new KS density using the density matrix
  Evaluating density matrix
  Writing scalapack restart information to file h_kv
  Time summed over all CPUs for getting density from density matrix: real work        0.022 s, elapsed        0.023 s
  Integration grid: deviation in total charge (<rho> - N_e) =   1.243450E-14
  Pulay mixing of updated and previous charge densities.
  Renormalizing the density to the exact electron count on the 3D integration grid.
  | Formal number of electrons (from input files) :      10.0000000000
  | Integrated number of electrons on 3D grid     :      10.0000000000
  | Charge integration error                      :       0.0000000000
  | Normalization factor for density and gradient :       1.0000000000

  Evaluating partitioned Hartree potential by multipole expansion.
  | Original multipole sum: apparent total charge =   0.452598E-14
  | Sum of charges compensated after spline to logarithmic grids =   0.163975E-03
  | Analytical far-field extrapolation by fixed multipoles:
  | Hartree multipole sum: apparent total charge =   0.506713E-14
  Summing up the Hartree potential.
  Time summed over all CPUs for potential: real work        0.027 s, elapsed        0.028 s
  | RMS charge density error from multipole expansion :   0.643886E-02

  Integrating Hamiltonian matrix: batch-based integration.
  Time summed over all CPUs for integration: real work        0.037 s, elapsed        0.040 s

  Updating Kohn-Sham eigenvalues and eigenvectors using ELSI and the ELPA eigensolver.
  Starting ELPA eigensolver
  Finished transformation to standard eigenproblem
  | Time :     0.000 s
  Finished solving standard eigenproblem
  | Time :     0.000 s
  Finished back-transformation of eigenvectors
  | Time :     0.000 s

  Obtaining occupation numbers and chemical potential using ELSI.
  | Chemical potential (Fermi level):    -0.71881739 eV
  Highest occupied state (VBM) at     -7.03544392 eV
  | Occupation number:      2.00000000

  Lowest unoccupied state (CBM) at    -0.05615536 eV
  | Occupation number:      0.00000000

  Overall HOMO-LUMO gap:      6.97928857 eV.

  Checking to see if s.c.f. parameters should be adjusted.

  Total energy components:
  | Sum of eigenvalues            :         -41.54731610 Ha       -1130.55999339 eV
  | XC energy correction          :          -9.30532492 Ha        -253.21077427 eV
  | XC potential correction       :          11.92438258 Ha         324.47895920 eV
  | Free-atom electrostatic energy:         -35.70870679 Ha        -971.68335046 eV
  | Hartree energy correction     :          -1.81539951 Ha         -49.39953421 eV
  | Entropy correction            :           0.00000000 Ha           0.00000000 eV
  | ---------------------------
  | Total energy                  :         -76.45236475 Ha       -2080.37469313 eV
  | Total energy, T -> 0          :         -76.45236475 Ha       -2080.37469313 eV  <-- do not rely on this value for anything but (periodic) metals
  | Electronic free energy        :         -76.45236475 Ha       -2080.37469313 eV

  Derived energy quantities:
  | Kinetic energy                :          76.21303213 Ha        2073.86212125 eV
  | Electrostatic energy          :        -143.36007196 Ha       -3901.02604010 eV
  | Energy correction for multipole
  | error in Hartree potential    :          -0.00312408 Ha          -0.08501054 eV
  | Sum of eigenvalues per atom                           :        -376.85333113 eV
  | Total energy (T->0) per atom                          :        -693.45823104 eV  <-- do not rely on this value for anything but (periodic) metals
  | Electronic free energy per atom                       :        -693.45823104 eV

  Self-consistency convergence accuracy:
  | Change of charge density      :  0.3902E-04
  | Change of sum of eigenvalues  :  0.4199E-02 eV
  | Change of total energy        :  0.3189E-06 eV

  Writing Kohn-Sham eigenvalues.

  State    Occupation    Eigenvalue [Ha]    Eigenvalue [eV]
      1       2.00000         -18.783572         -511.12700
      2       2.00000          -0.919385          -25.01773
      3       2.00000          -0.476277          -12.96017
      4       2.00000          -0.335876           -9.13965
      5       2.00000          -0.258548           -7.03544
      6       0.00000          -0.002064           -0.05616
      7       0.00000           0.095425            2.59665
      8       0.00000           0.295119            8.03059
      9       0.00000           0.331194            9.01225
     10       0.00000           0.370156           10.07246
     11       0.00000           0.578653           15.74596

  Highest occupied state (VBM) at     -7.03544392 eV
  | Occupation number:      2.00000000

  Lowest unoccupied state (CBM) at    -0.05615536 eV
  | Occupation number:      0.00000000

  Overall HOMO-LUMO gap:      6.97928857 eV.

  Self-consistency cycle converged.

  End self-consistency iteration #     2       :  max(cpu_time)    wall_clock(cpu1)
  | Time for this iteration                    :        0.016 s           0.016 s
  | Charge density update                      :        0.005 s           0.005 s
  | Density mixing                             :        0.000 s           0.000 s
  | Hartree multipole update                   :        0.001 s           0.001 s
  | Hartree multipole summation                :        0.004 s           0.004 s
  | Integration                                :        0.005 s           0.005 s
  | Solution of K.-S. eqns.                    :        0.001 s           0.001 s
  | Total energy evaluation                    :        0.000 s           0.000 s

  Partial memory accounting:
  | Current value for overall tracked memory usage:
  |   Minimum:        0.008 MB (on task 4)
  |   Maximum:        0.009 MB (on task 0)
  |   Average:        0.008 MB
  | Peak value for overall tracked memory usage:
  |   Minimum:        0.122 MB (on task 4 after allocating gradient_basis_wave)
  |   Maximum:        0.123 MB (on task 0 after allocating gradient_basis_wave)
  |   Average:        0.123 MB
  | Largest tracked array allocation so far:
  |   Minimum:        0.055 MB (all_coords on task 0)
  |   Maximum:        0.073 MB (all_coords on task 4)
  |   Average:        0.059 MB
  Note:  These values currently only include a subset of arrays which are explicitly tracked.
  The "true" memory usage will be greater.
------------------------------------------------------------

  Energy and forces in a compact form:
  | Total energy uncorrected      :         -0.208037469313070E+04 eV
  | Total energy corrected        :         -0.208037469313070E+04 eV  <-- do not rely on this value for anything but (periodic) metals
  | Electronic free energy        :         -0.208037469313070E+04 eV

  ------------------------------------ 
  Start decomposition of the XC Energy 
  ------------------------------------ 
  X and C from original XC functional choice 
  Hartree-Fock Energy :          0.000000000 Ha              0.000000000 eV
  X Energy            :         -8.965405244 Ha           -243.961089290 eV
  C Energy            :         -0.339919675 Ha             -9.249684985 eV
  Total XC Energy     :         -9.305324919 Ha           -253.210774275 eV
  ------------------------------------ 
  LDA X and C from self-consistent density 
  X Energy LDA        :         -8.096962415 Ha           -220.329557558 eV
  C Energy LDA        :         -0.659302115 Ha            -17.940523366 eV
  ------------------------------------ 
  End decomposition of the XC Energy 
  ------------------------------------ 

------------------------------------------------------------
  |------------------------------------------------------
  | Final ELSI Output
  |------------------------------------------------------
  |
  | Physical Properties
  |   Number of electrons       :        0.10000000E+02
  |   Number of spins           :                     1
  |   Number of k-points        :                     1
  |   Number of states          :                    11
  |
  | Matrix Properties
  |   Matrix format             :           BLACS_DENSE
  |   Number of basis functions :                    24
  |   Matrix sparsity           :        0.00000000E+00
  |
  | Computational Details
  |   Parallel mode             :            MULTI_PROC
  |   Number of MPI tasks       :                     8
  |   Solver requested          :                  ELPA
  |   Number of ELSI calls      :                     4
  |
  |------------------------------------------------------
  | ELSI Project (c)  elsi-interchange.org
  |------------------------------------------------------

------------------------------------------------------------------------------
  Final output of selected total energy values:

  The following output summarizes some interesting total energy values
  at the end of a run (AFTER all relaxation, molecular dynamics, etc.).

  | Total energy of the DFT / Hartree-Fock s.c.f. calculation      :          -2080.374693131 eV
  | Final zero-broadening corrected energy (caution - metals only) :          -2080.374693131 eV
  | For reference only, the value of 1 Hartree used in FHI-aims is :             27.211384500 eV

  Before relying on these values, please be sure to understand exactly which
  total energy value is referred to by a given number. Different objects may
  all carry the same name 'total energy'. Definitions:

  Total energy of the DFT / Hartree-Fock s.c.f. calculation:
  | Note that this energy does not include ANY quantities calculated after the
  | s.c.f. cycle, in particular not ANY RPA, MP2, etc. many-body perturbation terms.

  Final zero-broadening corrected energy:
  | For metallic systems only, a broadening of the occupation numbers at the Fermi
  | level can be extrapolated back to zero broadening by an electron-gas inspired
  | formula. For all systems that are not real metals, this value can be
  | meaningless and should be avoided.

------------------------------------------------------------------------------
  Methods described in the following list of references were used in this FHI-aims run.
  If you publish the results, please make sure to cite these reference if they apply.
  FHI-aims is an academic code, and for our developers (often, Ph.D. students
  and postdocs), scientific credit in the community is essential.
  Thank you for helping us!

  For any use of FHI-aims, please cite:

    Volker Blum, Ralf Gehrke, Felix Hanke, Paula Havu, Ville Havu,
    Xinguo Ren, Karsten Reuter, and Matthias Scheffler
    'Ab initio molecular simulations with numeric atom-centered orbitals'
    Computer Physics Communications 180, 2175-2196 (2009)
    http://dx.doi.org/10.1016/j.cpc.2009.06.022


  The ELSI infrastructure was used in your run to solve the Kohn-Sham electronic structure.
  Please check out http://elsi-interchange.org to learn more.
  If scalability is important for your project, please acknowledge ELSI by citing:

    V. W-z. Yu, F. Corsetti, A. Garcia, W. P. Huhn, M. Jacquelin, W. Jia,
    B. Lange, L. Lin, J. Lu, W. Mi, A. Seifitokaldani, A. Vazquez-Mayagoitia,
    C. Yang, H. Yang, and V. Blum
    'ELSI: A unified software interface for Kohn-Sham electronic structure solvers'
    Computer Physics Communications 222, 267-285 (2018).
    http://dx.doi.org/10.1016/j.cpc.2017.09.007


  For the real-space grid partitioning and parallelization used in this calculation, please cite:

    Ville Havu, Volker Blum, Paula Havu, and Matthias Scheffler,
    'Efficient O(N) integration for all-electron electronic structure calculation'
    'using numerically tabulated basis functions'
    Journal of Computational Physics 228, 8367-8379 (2009).
    http://dx.doi.org/10.1016/j.jcp.2009.08.008

  Of course, there are many other important community references, e.g., those cited in the
  above references. Our list is limited to references that describe implementations in the
  FHI-aims code. The reason is purely practical (length of this list) - please credit others as well.

------------------------------------------------------------
          Leaving FHI-aims.
          Date     :  20190817, Time     :  154017.796

          Computational steps:
          | Number of self-consistency cycles          :            2
          | Number of SCF (re)initializations          :            1

          Detailed time accounting                     :  max(cpu_time)    wall_clock(cpu1)
          | Total time                                 :        0.211 s           0.211 s
          | Preparation time                           :        0.089 s           0.089 s
          | Boundary condition initalization           :        0.000 s           0.000 s
          | Grid partitioning                          :        0.005 s           0.005 s
          | Preloading free-atom quantities on grid    :        0.002 s           0.002 s
          | Free-atom superposition energy             :        0.002 s           0.002 s
          | Total time for integrations                :        0.024 s           0.023 s
          | Total time for solution of K.-S. equations :        0.005 s           0.005 s
          | Total time for density update              :        0.017 s           0.017 s
          | Total time for mixing                      :        0.001 s           0.002 s
          | Total time for Hartree multipole update    :        0.003 s           0.002 s
          | Total time for Hartree multipole sum       :        0.011 s           0.012 s
          | Total time for total energy evaluation     :        0.000 s           0.000 s

          Partial memory accounting:
          | Residual value for overall tracked memory usage across tasks:     0.000000 MB (should be 0.000000 MB)
          | Peak values for overall tracked memory usage:
          |   Minimum:        0.122 MB (on task 4 after allocating gradient_basis_wave)
          |   Maximum:        0.123 MB (on task 0 after allocating gradient_basis_wave)
          |   Average:        0.123 MB
          | Largest tracked array allocation:
          |   Minimum:        0.055 MB (all_coords on task 0)
          |   Maximum:        0.073 MB (all_coords on task 4)
          |   Average:        0.059 MB
          Note:  These values currently only include a subset of arrays which are explicitly tracked.
          The "true" memory usage will be greater.

          Have a nice day.
------------------------------------------------------------
