  MPI-parallelism will be employed.
------------------------------------------------------------
          Invoking FHI-aims ...
          Version 180101-
          Git rev. (modified): fa29f3a Merge branch master of fhiaims.rzberlin.mp[...]
          Compiled on 2018/01/19 at 14:47:46 on host theobook132.

          When using FHI-aims, please cite the following reference:

          Volker Blum, Ralf Gehrke, Felix Hanke, Paula Havu,
          Ville Havu, Xinguo Ren, Karsten Reuter, and Matthias Scheffler,
          'Ab Initio Molecular Simulations with Numeric Atom-Centered Orbitals',
          Computer Physics Communications 180, 2175-2196 (2009)

          For any questions about FHI-aims, please visit the aimsclub website
          with its forums and wiki. Contributions to both the forums and the
          wiki are warmly encouraged - they are for you, and everyone is welcome there.

------------------------------------------------------------



  Date     :  20180214, Time     :  160510.542
  Time zero on CPU 1             :   0.760000000000000E-01  s.
  Internal wall clock time zero  :           287856310.542  s.

  FHI-aims created a unique identifier for this run for later identification
  aims_uuid : 29E4EA46-1FB3-4AED-A6F0-312C1E2D1CEA

  Using        8 parallel tasks.
  Task        0 on host theobook132 reporting.
  Task        1 on host theobook132 reporting.
  Task        2 on host theobook132 reporting.
  Task        3 on host theobook132 reporting.
  Task        4 on host theobook132 reporting.
  Task        5 on host theobook132 reporting.
  Task        6 on host theobook132 reporting.
  Task        7 on host theobook132 reporting.

  Performing system and environment tests:
  *** Environment variable OMP_NUM_THREADS is not set
  *** For performance reasons you might want to set it to 1
  | Stacksize not measured: no C compiler
  | Checking for scalapack...
  | No scalapack compiled in.

  Obtaining array dimensions for all initial allocations:
  
  -----------------------------------------------------------------------
  Parsing control.in (first pass over file, find array dimensions only).
  The contents of control.in will be repeated verbatim below
  unless switched off by setting 'verbatim_writeout .false.' .
  in the first line of control.in .
  -----------------------------------------------------------------------
  
  ################################################################################
  #
  #		Control.in generated by mkcontrol
  #
  ################################################################################
  xc			pbe
  vdw_correction_hirshfeld
  charge			-1.0
  relativistic		atomic_zora scalar
  sc_accuracy_rho		1E-5
  sc_accuracy_eev		1E-3
  sc_accuracy_etot	1E-6
  sc_iter_limit		1000	
  
  compute_forces .true.
  final_forces_cleaned .true.
  
  
  ################################################################################
  #
  #  FHI-aims code project
  # Volker Blum, Fritz Haber Institute Berlin, 2009
  #
  #  Suggested "tight" defaults for H atom (to be pasted into control.in file)
  #
  ################################################################################
    species        H
  #     global species definitions
      nucleus             1
      mass                1.00794
  #
      l_hartree           6
  #
      cut_pot             4.0  2.0  1.0
      basis_dep_cutoff    1e-4
  #
      radial_base         24 7.0
      radial_multiplier   2
      angular_grids       specified
        division   0.1930   50
        division   0.3175  110
        division   0.4293  194
        division   0.5066  302
        division   0.5626  434
  #      division   0.5922  590
  #      division   0.6227  974
  #      division   0.6868 1202
  #      outer_grid  770
        outer_grid  434
  ################################################################################
  #
  #  Definition of "minimal" basis
  #
  ################################################################################
  #     valence basis states
      valence      1  s   1.
  #     ion occupancy
      ion_occ      1  s   0.5
  ################################################################################
  #
  #  Suggested additional basis functions. For production calculations,
  #  uncomment them one after another (the most important basis functions are
  #  listed first).
  #
  #  Basis constructed for dimers: 0.5 A, 0.7 A, 1.0 A, 1.5 A, 2.5 A
  #
  ################################################################################
  #  "First tier" - improvements: -1014.90 meV to -62.69 meV
       hydro 2 s 2.1
       hydro 2 p 3.5
  #  "Second tier" - improvements: -12.89 meV to -1.83 meV
       hydro 1 s 0.85
       hydro 2 p 3.7
       hydro 2 s 1.2
       hydro 3 d 7
  #  "Third tier" - improvements: -0.25 meV to -0.12 meV
  #     hydro 4 f 11.2
  #     hydro 3 p 4.8
  #     hydro 4 d 9
  #     hydro 3 s 3.2
  
  
  
  ################################################################################
  #
  #  FHI-aims code project
  # Volker Blum, Fritz Haber Institute Berlin, 2009
  #
  #  Suggested "tight" defaults for C atom (to be pasted into control.in file)
  #
  ################################################################################
    species        C
  #     global species definitions
      nucleus             6
      mass                12.0107
  #
      l_hartree           6
  #
      cut_pot             4.0  2.0  1.0
      basis_dep_cutoff    1e-4
  #
      radial_base         34 7.0
      radial_multiplier   2
      angular_grids specified
        division   0.2187   50
        division   0.4416  110
        division   0.6335  194
        division   0.7727  302
        division   0.8772  434
  #      division   0.9334  590
  #      division   0.9924  770
  #      division   1.0230  974
  #      division   1.5020 1202
  #     outer_grid  974
        outer_grid  434
  ################################################################################
  #
  #  Definition of "minimal" basis
  #
  ################################################################################
  #     valence basis states
      valence      2  s   2.
      valence      2  p   2.
  #     ion occupancy
      ion_occ      2  s   1.
      ion_occ      2  p   1.
  ################################################################################
  #
  #  Suggested additional basis functions. For production calculations,
  #  uncomment them one after another (the most important basis functions are
  #  listed first).
  #
  #  Constructed for dimers: 1.0 A, 1.25 A, 1.5 A, 2.0 A, 3.0 A
  #
  ################################################################################
  #  "First tier" - improvements: -1214.57 meV to -155.61 meV
       hydro 2 p 1.7
       hydro 3 d 6
       hydro 2 s 4.9
  #  "Second tier" - improvements: -67.75 meV to -5.23 meV
       hydro 4 f 9.8
       hydro 3 p 5.2
       hydro 3 s 4.3
       hydro 5 g 14.4
       hydro 3 d 6.2
  #  "Third tier" - improvements: -2.43 meV to -0.60 meV
  #     hydro 2 p 5.6
  #     hydro 2 s 1.4
  #     hydro 3 d 4.9
  #     hydro 4 f 11.2
  #  "Fourth tier" - improvements: -0.39 meV to -0.18 meV
  #     hydro 2 p 2.1
  #     hydro 5 g 16.4
  #     hydro 4 d 13.2
  #     hydro 3 s 13.6
  #     hydro 4 f 17.6
  #  Further basis functions - improvements: -0.08 meV and below
  #     hydro 3 s 2
  #     hydro 3 p 6
  #     hydro 4 d 20
  
  ################################################################################
  #
  #  FHI-aims code project
  #  VB, Fritz-Haber Institut, 2009
  #
  #  Suggested "light" defaults for Cl atom (to be pasted into control.in file)
  #  Be sure to double-check any results obtained with these settings for
  #post-processing,
  #  e.g., with the "tight" defaults and larger basis sets.
  #
  ################################################################################
    species        Cl
  #     global species definitions
      nucleus             17
      mass                35.453
  #
      l_hartree           4
  #
      cut_pot             3.5          1.5  1.0
      basis_dep_cutoff    1e-4
  #
      radial_base         45 5.0
      radial_multiplier   1
      angular_grids       specified
        division   0.4412  110
        division   0.5489  194
        division   0.6734  302
  #      division   0.7794  434
  #      division   0.9402  590
  #      division   1.0779  770
  #      division   1.1792  974
  #      outer_grid  974
        outer_grid  302
  ################################################################################
  #
  #  Definition of "minimal" basis
  #
  ################################################################################
  #     valence basis states
      valence      3  s   2.
      valence      3  p   5.
  #     ion occupancy
      ion_occ      3  s   1.
      ion_occ      3  p   4.
  ################################################################################
  #
  #  Suggested additional basis functions. For production calculations,
  #  uncomment them one after another (the most important basis functions are
  #  listed first).
  #
  #  Constructed for dimers: 1.65 A, 2.0 A, 2.5 A, 3.25 A, 4.0 A
  #
  ################################################################################
  #  "First tier" - improvements: -429.57 meV to -15.03 meV
       ionic 3 d auto
       hydro 2 p 1.9
  #     hydro 4 f 7.4
       ionic 3 s auto
  #     hydro 5 g 10.4
  #  "Second tier" - improvements: -7.84 meV to -0.48 meV
  #     hydro 3 d 3.3
  #     hydro 5 f 9.8
  #     hydro 1 s 0.75
  #     hydro 5 g 11.2
  #     hydro 4 p 10.4
  #  "Third tier" - improvements: -1.00 meV to -0.12 meV
  #     hydro 4 d 12.8
  #     hydro 4 f 4.6
  #     hydro 4 d 10.8
  #     hydro 2 s 1.8
  #     hydro 3 p 3
  #  Further functions that fell out - improvements: -0.10 meV and below
  #     hydro 5 f 14.4
  #     hydro 4 s 12.8
  #     hydro 3 d 11.6
  #     hydro 4 s 4.1
  
  -----------------------------------------------------------------------
  Completed first pass over input file control.in .
  -----------------------------------------------------------------------
  
  
  -----------------------------------------------------------------------
  Parsing geometry.in (first pass over file, find array dimensions only).
  The contents of geometry.in will be repeated verbatim below
  unless switched off by setting 'verbatim_writeout .false.' .
  in the first line of geometry.in .
  -----------------------------------------------------------------------
  
  #=======================================#
  # iterations/iteration0016/aims-chain-node-0.85714/geometry.in
  #=======================================#
  atom 0.0000000000000000 0.0000000000000000 0.0000000000000000 Cl
  constrain_relaxation .true.
  atom 1.9856383145174672 0.0000000000000000 0.0000000000010925 C
  constrain_relaxation y
  atom 4.8940824278737116 0.0000000000000000 -0.0000000000016823 Cl
  constrain_relaxation y
  atom 2.3029821090973854 1.0445060577554646 0.0000000000009359 H
  atom 2.3029053713931358 -0.5222745592885145 0.9045909018924845 H
  atom 2.3029053713923449 -0.5222745592885198 -0.9045909018906246 H
  
  -----------------------------------------------------------------------
  Completed first pass over input file geometry.in .
  -----------------------------------------------------------------------
  

  Basic array size parameters:
  | Number of species                 :        3
  | Number of atoms                   :        6
  | Max. basis fn. angular momentum   :        4
  | Max. atomic/ionic basis occupied n:        3
  | Max. number of basis fn. types    :        3
  | Max. radial fns per species/type  :        8
  | Max. logarithmic grid size        :     1362
  | Max. radial integration grid size :       69
  | Max. angular integration grid size:      434
  | Max. angular grid division number :        8
  | Radial grid for Hartree potential :     1362
  | Number of spin channels           :        1

------------------------------------------------------------
          Reading file control.in.
------------------------------------------------------------
  XC: Using PBE gradient-corrected functionals.
  Charged system requested: Charge =  -0.100000E+01.
  Scalar relativistic treatment of kinetic energy: on-site free-atom approximation to ZORA.
  Convergence accuracy of self-consistent charge density:  0.1000E-04
  Convergence accuracy of sum of eigenvalues:  0.1000E-02
  Convergence accuracy of total energy:  0.1000E-05
  Maximum number of s.-c. iterations  :  1000
  Forces will be computed.
  Cleaning forces before final output.
 
  Reading configuration options for species H                   .
  | Found nuclear charge :   1.0000
  | Found atomic mass :    1.00794000000000      amu
  | Found l_max for Hartree potential  :   6
  | Found cutoff potl. onset [A], width [A], scale factor :    4.00000    2.00000    1.00000
  | Threshold for basis-dependent cutoff potential is   0.100000E-03
  | Found data for basic radial integration grid :    24 points, outermost radius =    7.000 A
  | Found multiplier for basic radial grid :   2
  | Found angular grid specification: user-specified.
  | Specified grid contains     6 separate shells.
  | Check grid settings after all constraints further below.
  | Found free-atom valence shell :  1 s   1.000
  | Found free-ion valence shell :  1 s   0.500
  | Found hydrogenic basis function :  2 s   2.100
  | Found hydrogenic basis function :  2 p   3.500
  | Found hydrogenic basis function :  1 s   0.850
  | Found hydrogenic basis function :  2 p   3.700
  | Found hydrogenic basis function :  2 s   1.200
  | Found hydrogenic basis function :  3 d   7.000
  Species H                   : Missing cutoff potential type.
  Defaulting to exp(1/x)/(1-x)^2 type cutoff potential.
  Species H : No 'logarithmic' tag. Using default grid for free atom:
  | Default logarithmic grid data [bohr] : 0.1000E-03 0.1000E+03 0.1012E+01
  Species H : On-site basis accuracy parameter (for Gram-Schmidt orthonormalisation) not specified.
  Using default value basis_acc =  0.1000000E-03.
  Species H                   : Using default innermost maximum threshold i_radial=  2 for radial functions.
  Species H                   : Default cutoff onset for free atom density etc. : 0.40000000E+01 AA.
  Species H                   : Basic radial grid will be enhanced according to radial_multiplier =   2, to contain    49 grid points.
 
  Reading configuration options for species C                   .
  | Found nuclear charge :   6.0000
  | Found atomic mass :    12.0107000000000      amu
  | Found l_max for Hartree potential  :   6
  | Found cutoff potl. onset [A], width [A], scale factor :    4.00000    2.00000    1.00000
  | Threshold for basis-dependent cutoff potential is   0.100000E-03
  | Found data for basic radial integration grid :    34 points, outermost radius =    7.000 A
  | Found multiplier for basic radial grid :   2
  | Found angular grid specification: user-specified.
  | Specified grid contains     6 separate shells.
  | Check grid settings after all constraints further below.
  | Found free-atom valence shell :  2 s   2.000
  | Found free-atom valence shell :  2 p   2.000
  | Found free-ion valence shell :  2 s   1.000
  | Found free-ion valence shell :  2 p   1.000
  | Found hydrogenic basis function :  2 p   1.700
  | Found hydrogenic basis function :  3 d   6.000
  | Found hydrogenic basis function :  2 s   4.900
  | Found hydrogenic basis function :  4 f   9.800
  | Found hydrogenic basis function :  3 p   5.200
  | Found hydrogenic basis function :  3 s   4.300
  | Found hydrogenic basis function :  5 g  14.400
  | Found hydrogenic basis function :  3 d   6.200
  Species C                   : Missing cutoff potential type.
  Defaulting to exp(1/x)/(1-x)^2 type cutoff potential.
  Species C : No 'logarithmic' tag. Using default grid for free atom:
  | Default logarithmic grid data [bohr] : 0.1000E-03 0.1000E+03 0.1012E+01
  Species C : On-site basis accuracy parameter (for Gram-Schmidt orthonormalisation) not specified.
  Using default value basis_acc =  0.1000000E-03.
  Species C                   : Using default innermost maximum threshold i_radial=  2 for radial functions.
  Species C                   : Default cutoff onset for free atom density etc. : 0.40000000E+01 AA.
  Species C                   : Basic radial grid will be enhanced according to radial_multiplier =   2, to contain    69 grid points.
 
  Reading configuration options for species Cl                  .
  | Found nuclear charge :  17.0000
  | Found atomic mass :    35.4530000000000      amu
  | Found l_max for Hartree potential  :   4
  | Found cutoff potl. onset [A], width [A], scale factor :    3.50000    1.50000    1.00000
  | Threshold for basis-dependent cutoff potential is   0.100000E-03
  | Found data for basic radial integration grid :    45 points, outermost radius =    5.000 A
  | Found multiplier for basic radial grid :   1
  | Found angular grid specification: user-specified.
  | Specified grid contains     4 separate shells.
  | Check grid settings after all constraints further below.
  | Found free-atom valence shell :  3 s   2.000
  | Found free-atom valence shell :  3 p   5.000
  | Found free-ion valence shell :  3 s   1.000
  | Found free-ion valence shell :  3 p   4.000
  | Found ionic basis function :  3 d , default cutoff radius.
  | Found hydrogenic basis function :  2 p   1.900
  | Found ionic basis function :  3 s , default cutoff radius.
  Species Cl                  : Missing cutoff potential type.
  Defaulting to exp(1/x)/(1-x)^2 type cutoff potential.
  Species Cl: No 'logarithmic' tag. Using default grid for free atom:
  | Default logarithmic grid data [bohr] : 0.1000E-03 0.1000E+03 0.1012E+01
  | Will include ionic basis functions of  2.0-fold positive Cl                   ion.
  Species Cl: On-site basis accuracy parameter (for Gram-Schmidt orthonormalisation) not specified.
  Using default value basis_acc =  0.1000000E-03.
  Species Cl                  : Using default innermost maximum threshold i_radial=  2 for radial functions.
  Species Cl                  : Default cutoff onset for free atom density etc. : 0.35000000E+01 AA.
  Species Cl                  : Basic radial grid will be enhanced according to radial_multiplier =   1, to contain    45 grid points.
 
  Finished reading input file 'control.in'. Consistency checks are next.
 
  MPI_IN_PLACE appears to work with this MPI implementation.
  | Keeping use_mpi_in_place .true. (see manual).
  Target number of points in a grid batch is not set. Defaulting to  100
  Method for grid partitioning is not set. Defaulting to parallel hash+maxmin partitioning.
  Batch size limit is not set. Defaulting to    200
  By default, will store active basis functions for each batch.
  If in need of memory, prune_basis_once .false. can be used to disable this option.
  communication_type for Hartree potential was not specified.
  Defaulting to calc_hartree .
  Defaulting to Pulay charge density mixer.
  Pulay mixer: Number of relevant iterations not set.
  Defaulting to    8 iterations.
  Pulay mixer: Number of initial linear mixing iterations not set.
  Defaulting to    0 iterations.
  Work space size for distributed Hartree potential not set.
  Defaulting to   0.200000E+03 MB.
  Mixing parameter for charge density mixing has not been set.
  Using default: charge_mix_param =     0.0500.
  The mixing parameter will be adjusted in iteration number     2 of the first full s.c.f. cycle only.
  Algorithm-dependent basis array size parameters:
  | n_max_pulay                         :        8
  Presetting        40 iterations before the initial mixing cycle
  is restarted anyway using the sc_init_iter criterion / keyword.
  Presetting a factor      1.000 between actual scf density residual
  and density convergence criterion sc_accuracy_rho below which sc_init_iter
  takes no effect.
  Geometry relaxation not requested: no relaxation will be performed.
  Force calculation: scf convergence accuracy of forces not set.
  Defaulting to 'sc_accuracy_forces not_checked'.
  Handling of forces: Unphysical translation and rotation will be removed from forces.
  No accuracy limit for integral partition fn. given. Defaulting to  0.1000E-14.
  No threshold value for u(r) in integrations given. Defaulting to  0.1000E-05.
  No occupation type (smearing scheme) given. Defaulting to Gaussian broadening, width =  0.1000E-01 eV.
  The width will be adjusted in iteration number     2 of the first full s.c.f. cycle only.
  S.C.F. convergence parameters will be adjusted in iteration number     2 of the first full s.c.f. cycle only.
  No accuracy for occupation numbers given. Defaulting to  0.1000E-12.
  No threshold value for occupation numbers given. Defaulting to  0.0000E+00.
  No accuracy for fermi level given. Defaulting to  0.1000E-19.
  Maximum # of iterations to find E_F not set. Defaulting to  200.
  Preferred method for the eigenvalue solver ('KS_method') not specified in 'control.in'.
  Calling BLACS routine to test compilation state
  The best choice would be 'elsi', but your version of FHI-aims is compiled without ScaLAPACK support.
  Defaulting to 'lapack_fast' instead (serial solution, time will not improve with more CPUs).
  Will not use alltoall communication since running on < 1024 CPUs.
  Threshold for basis singularities not set.
  Default threshold for basis singularities:  0.1000E-04
  partition_type (choice of integration weights) for integrals was not specified.
  | Using a version of the partition function of Stratmann and coworkers ('stratmann_smoother').
  | At each grid point, the set of atoms used to build the partition table is smoothly restricted to
  | only those atoms whose free-atom density would be non-zero at that grid point.
  Partitioning for Hartree potential was not defined. Using partition_type for integrals.
  | Adjusted default value of keyword multip_moments_threshold to:       0.10000000E-11
  | This value may affect high angular momentum components of the Hartree potential in periodic systems.
  Spin handling was not defined in control.in. Defaulting to unpolarized case.
  No q(lm)/r^(l+1) cutoff set for long-range Hartree potential.
  | Using default value of  0.100000E-09 .
  | Verify using the multipole_threshold keyword.
  Defaulting to new monopole extrapolation.
  Density update method: automatic selection selected.
------------------------------------------------------------


------------------------------------------------------------
          Reading geometry description geometry.in.
------------------------------------------------------------
 No relaxation requested - ignoring relaxation constraint.
 No relaxation requested - ignoring relaxation constraint.
 No relaxation requested - ignoring relaxation constraint.
 * Warning: Initial charge and total charge of the system are inconsistent.
 * Selected charge in control.in:    -1.0000* Sum of initial charges in geometry.in:     0.0000
  Input structure read successfully.
  The structure contains        6 atoms,  and a total of         44.000 electrons.

  Input geometry:
  | No unit cell requested.
  | Atomic structure:
  |       Atom                x [A]            y [A]            z [A]
  |    1: Species Cl            0.00000000        0.00000000        0.00000000
  |    2: Species C             1.98563831        0.00000000        0.00000000
  |    3: Species Cl            4.89408243        0.00000000       -0.00000000
  |    4: Species H             2.30298211        1.04450606        0.00000000
  |    5: Species H             2.30290537       -0.52227456        0.90459090
  |    6: Species H             2.30290537       -0.52227456       -0.90459090
  |

  | The smallest distance between any two atoms is         1.09165012 AA.
  |
  | The first atom of this pair is atom number                      2 .
  | The second atom of this pair is atom number                     4 .

  Number of empty states per atom not set in control.in - providing a guess from actual geometry.
  | Total number of empty states used during s.c.f. cycle:       14
  If you use a very high smearing, use empty_states (per atom!) in control.in to increase this value.

  Structure-dependent array size parameters: 
  | Maximum number of distinct radial functions  :       26
  | Maximum number of basis functions            :      120
  | Number of Kohn-Sham states (occupied + empty):       36
------------------------------------------------------------

------------------------------------------------------------
          Preparing all fixed parts of the calculation.
------------------------------------------------------------
  Determining machine precision:
    2.225073858507201E-308
  Setting up grids for atomic and cluster calculations.

  Creating wave function, potential, and density for free atoms.

  Species: H

  List of occupied orbitals and eigenvalues:
    n    l              occ      energy [Ha]    energy [eV]
    1    0           1.0000        -0.238386        -6.4868


  Species: C

  List of occupied orbitals and eigenvalues:
    n    l              occ      energy [Ha]    energy [eV]
    1    0           2.0000       -10.049212      -273.4530
    2    0           2.0000        -0.504761       -13.7352
    2    1           2.0000        -0.193631        -5.2690


  Species: Cl

  List of occupied orbitals and eigenvalues:
    n    l              occ      energy [Ha]    energy [eV]
    1    0           2.0000      -101.451673     -2760.6405
    2    0           2.0000        -9.288282      -252.7470
    3    0           2.0000        -0.759332       -20.6625
    2    1           6.0000        -7.042657      -191.6405
    3    1           5.0000        -0.314806        -8.5663

  Creating fixed part of basis set: Ionic, confined, hydrogenic.
 
  H                    hydrogenic:
 
  List of hydrogenic basis orbitals: 
    n    l      effective z      eigenvalue [eV]  inner max. [A]     outer max. [A]     outer radius [A]   
    2    0         2.100000       -14.9965           0.193243           1.317208           5.373006
    2    1         3.500000       -41.6672           0.602369           0.602369           4.056063
    1    0         0.850000        -9.8292           0.624871           0.624871           5.373006
    2    1         3.700000       -46.5653           0.573622           0.573622           3.910002
    2    0         1.200000        -4.5995           0.334980           2.228188           5.505995
    3    2         7.000000       -74.0753           0.680699           0.680699           3.769201
 
 
  C                    hydrogenic:
 
  List of hydrogenic basis orbitals: 
    n    l      effective z      eigenvalue [eV]  inner max. [A]     outer max. [A]     outer radius [A]   
    2    1         1.700000        -9.8152           1.245706           1.245706           5.401630
    3    2         6.000000       -54.4226           0.792453           0.792453           4.178599
    2    0         4.900000       -81.6681           0.082559           0.562749           3.353238
    4    3         9.800000       -81.6681           0.863254           0.863254           4.028125
    3    1         5.200000       -40.8774           0.305389           1.215618           4.898362
    3    0         4.300000       -27.9508           0.091041           1.610311           5.401630
    5    4        14.400000      -112.8510           0.917666           0.917666           3.883070
    3    2         6.200000       -58.1113           0.763917           0.763917           4.077671
 
 
  Cl                   ion:

  List of free ionic orbitals and eigenvalues:
    n    l      energy [Ha]    energy [eV]
    1    0      -102.554413     -2790.6476
    2    0       -10.359555      -281.8978
    3    0        -1.672516       -45.5115
    2    1        -8.116241      -220.8542
    3    1        -1.184158       -32.2226


  List of ionic basis orbitals and eigenvalues:
    n    l      energy [Ha]    energy [eV]    outer radius [A]
    3    2        -0.527851       -14.3636       4.541334
    3    0        -1.672502       -45.5111       3.428237

 
  Cl                   hydrogenic:
 
  List of hydrogenic basis orbitals: 
    n    l      effective z      eigenvalue [eV]  inner max. [A]     outer max. [A]     outer radius [A]   
    2    1         1.900000       -12.2492           1.113321           1.113321           4.597192
 

  Adding cutoff potential to free-atom effective potential.
  Creating atomic-like basis functions for current effective potential.

  Species H                   :

  List of atomic basis orbitals and eigenvalues:
    n    l      energy [Ha]    energy [eV]    outer radius [A]
    1    0        -0.238386        -6.4868       5.373006


  Species C                   :

  List of atomic basis orbitals and eigenvalues:
    n    l      energy [Ha]    energy [eV]    outer radius [A]
    1    0       -10.049212      -273.4530       1.934409
    2    0        -0.504761       -13.7352       5.271162
    2    1        -0.193631        -5.2690       5.401630


  Species Cl                  :

  List of atomic basis orbitals and eigenvalues:
    n    l      energy [Ha]    energy [eV]    outer radius [A]
    1    0      -101.451673     -2760.6405       0.642251
    2    0        -9.288282      -252.7470       2.102331
    3    0        -0.759332       -20.6625       4.431645
    2    1        -7.042657      -191.6405       2.346844
    3    1        -0.314806        -8.5663       4.541334

  Assembling full basis from fixed parts.
  | Species H :   atomic orbital   1 s accepted.
  | Species H :    hydro orbital   2 s accepted.
  | Species H :    hydro orbital   1 s accepted.
  | Species H :    hydro orbital   2 s accepted.
  | Species H :    hydro orbital   2 p accepted.
  | Species H :    hydro orbital   2 p accepted.
  | Species H :    hydro orbital   3 d accepted.
  | Species C :   atomic orbital   1 s accepted.
  | Species C :    hydro orbital   2 s accepted.
  | Species C :   atomic orbital   2 s accepted.
  | Species C :    hydro orbital   3 s accepted.
  | Species C :    hydro orbital   3 p accepted.
  | Species C :   atomic orbital   2 p accepted.
  | Species C :    hydro orbital   2 p accepted.
  | Species C :    hydro orbital   3 d accepted.
  | Species C :    hydro orbital   3 d accepted.
  | Species C :    hydro orbital   4 f accepted.
  | Species C :    hydro orbital   5 g accepted.
  | Species Cl :   atomic orbital   1 s accepted.
  | Species Cl :   atomic orbital   2 s accepted.
  | Species Cl :    ionic orbital   3 s accepted.
  | Species Cl :   atomic orbital   3 s accepted.
  | Species Cl :   atomic orbital   2 p accepted.
  | Species Cl :   atomic orbital   3 p accepted.
  | Species Cl :    hydro orbital   2 p accepted.
  | Species Cl :    ionic orbital   3 d accepted.
 
  Basis size parameters after reduction:
  | Total number of radial functions:       26
  | Total number of basis functions :      120
 
  Per-task memory consumption for arrays in subroutine allocate_ext:
  |           9.070220MB.
  Testing on-site integration grid accuracy.
  |  Species  Function  <phi|h_atom|phi> (log., in eV)  <phi|h_atom|phi> (rad., in eV)
           1        1                 -6.4870767962                 -6.4871688290
           1        2                 13.5032046589                 13.5028982997
           1        3                 32.8195184817                 32.8119941656
           1        4                 33.8513856511                 33.7670005767 ***
           1        5                 28.8544614965                 28.8544615203
           1        6                 59.6326952547                 59.6327656460
           1        7                 60.2719308513                 60.2719305949
           2        8               -273.4529726040               -273.4529710510
           2        9                -10.7721037319                -10.7721022091
           2       10                 17.6044132601                 17.6044162068
           2       11                 53.7706460658                 53.7706913775
           2       12                 15.0973290362                 15.0973256023
           2       13                  3.8545134692                  3.8545724671
           2       14                 12.1156992592                 12.1182024429
           2       15                 29.4352039302                 29.4352041819
           2       16                 54.8741144708                 54.8740268730
           2       17                 59.3556032049                 59.3556031384
           2       18                 93.4551837154                 93.4551838010
           3       19              -2760.6404887023              -2760.6391663390
           3       20               -252.7470135404               -252.7470033792
           3       21                -20.4099766545                -20.4099452961
           3       22                  8.9880683035                  8.9931146792
           3       23               -191.6404587283               -191.6404582884
           3       24                 -8.5668684731                 -8.5677140829
           3       25                  8.1442214099                  8.1082388447 ***
           3       26                  7.0580434359                  7.0555511342
 * Note: Onsite integrals marked "***" above are less accurate than
 * onsite_accuracy_threshold =    0.03000 eV. Usually, this is harmless.
 * When in doubt, tighten the "radial" and/or "radial_multiplier" flags to check.

  Preparing densities etc. for the partition functions (integrals / Hartree potential).

  Preparations completed.
  max(cpu_time)          :      0.380 s.
  Wall clock time (cpu1) :      0.440 s.
------------------------------------------------------------

------------------------------------------------------------
          Begin self-consistency loop: Initialization.

          Date     :  20180214, Time     :  160510.999
------------------------------------------------------------

  Initializing index lists of integration centers etc. from given atomic structure:
  | Number of centers in hartree potential         :         6
  | Number of centers in hartree multipole         :         6
  | Number of centers in electron density summation:         6
  | Number of centers in basis integrals           :         6
  | Number of centers in integrals                 :         6
  | Number of centers in hamiltonian               :         6
  Partitioning the integration grid into batches with parallel hashing+maxmin method.
  | Number of batches:      951
  | Maximal batch size:     200
  | Minimal batch size:      50
  | Average batch size:      83.836
  | Standard deviation of batch sizes:      25.532

  Integration load balanced across     8 MPI tasks.
  Work distribution over tasks is as follows:
  Task     0 has       9926 integration points.
  Task     1 has      10002 integration points.
  Task     2 has       9899 integration points.
  Task     3 has      10010 integration points.
  Task     4 has      10014 integration points.
  Task     5 has       9926 integration points.
  Task     6 has      10010 integration points.
  Task     7 has       9941 integration points.
  Initializing partition tables, free-atom densities, potentials, etc. across the integration grid (initialize_grid_storage).
  | initialize_grid_storage: Actual outermost partition radius vs. multipole_radius_free
  | (-- VB: in principle, multipole_radius_free should be larger, hence this output)
  | Species        1: Confinement radius =              6.000000000000000 AA, multipole_radius_free =              6.071692442739658 AA.
  | Species        1: outer_partition_radius set to              6.071692442739658 AA .
  | Species        2: Confinement radius =              6.000000000000000 AA, multipole_radius_free =              6.029870734432609 AA.
  | Species        2: outer_partition_radius set to              6.029870734432609 AA .
  | Species        3: Confinement radius =              4.999999999999999 AA, multipole_radius_free =              5.007919576009533 AA.
  | Species        3: outer_partition_radius set to              5.007919576009533 AA .
  | Original list of interatomic distances with           6 x          6 entries is created.
  | Net number of integration points:    79728
  | of which are non-zero points    :    69359
  Renormalizing the initial density to the exact electron count on the 3D integration grid.
  | Initial density: Formal number of electrons (from input files) :      43.0000000000
  | Integrated number of electrons on 3D grid     :      42.9999356996
  | Charge integration error                      :      -0.0000643004
  | Normalization factor for density and gradient :       1.0000014954
  Obtaining max. number of non-zero basis functions in each batch (get_n_compute_maxes).
  | Maximal number of non-zero basis functions:      117 in task     0
  | Maximal number of non-zero basis functions:      118 in task     1
  | Maximal number of non-zero basis functions:      118 in task     2
  | Maximal number of non-zero basis functions:      118 in task     3
  | Maximal number of non-zero basis functions:      118 in task     4
  | Maximal number of non-zero basis functions:      117 in task     5
  | Maximal number of non-zero basis functions:      117 in task     6
  | Maximal number of non-zero basis functions:      118 in task     7
  Selecting the method for density update.
  Loop over occupied states selected for charge density update.
  Allocating        0.035 MB for KS_eigenvector
  Integrating Hamiltonian matrix: batch-based integration.
  Time summed over all CPUs for integration: real work        1.990 s, elapsed        2.108 s
  Integrating overlap matrix.
  Time summed over all CPUs for integration: real work        0.767 s, elapsed        0.954 s

  Updating Kohn-Sham eigenvalues, eigenvectors, occupation numbers, and Fermi level.
  Solving generalized eigenproblem
  Updating Kohn-Sham eigenvalues and eigenfunctions.
  Transforming overlap matrix and checking for singularities.
  Overlap matrix is nonsingular:
  | Lowest eigenvalue:  0.210405E-03
  Solving real generalised eigenvalue problem by standard LAPACK (fast)

  Obtaining occupation numbers and chemical potential using ELSI.
  | Chemical potential (Fermi level):    -6.79367205eV
  Writing Kohn-Sham eigenvalues.

  State    Occupation    Eigenvalue [Ha]    Eigenvalue [eV]
      1       2.00000        -101.457174        -2760.79018
      2       2.00000        -101.452194        -2760.65465
      3       2.00000         -10.160026         -276.46836
      4       2.00000          -9.294429         -252.91428
      5       2.00000          -9.288867         -252.76293
      6       2.00000          -7.049332         -191.82208
      7       2.00000          -7.048420         -191.79726
      8       2.00000          -7.048420         -191.79726
      9       2.00000          -7.043285         -191.65753
     10       2.00000          -7.043211         -191.65553
     11       2.00000          -7.043211         -191.65553
     12       2.00000          -0.832792          -22.66144
     13       2.00000          -0.764366          -20.79945
     14       2.00000          -0.741356          -20.17331
     15       2.00000          -0.530490          -14.43537
     16       2.00000          -0.530489          -14.43535
     17       2.00000          -0.435732          -11.85688
     18       2.00000          -0.322734           -8.78204
     19       2.00000          -0.322734           -8.78203
     20       2.00000          -0.317242           -8.63260
     21       2.00000          -0.315741           -8.59176
     22       2.00000          -0.315741           -8.59176
     23       0.00000          -0.150261           -4.08880
     24       0.00000          -0.043126           -1.17351
     25       0.00000           0.003599            0.09794
     26       0.00000           0.003600            0.09796
     27       0.00000           0.060272            1.64008
     28       0.00000           0.060273            1.64011
     29       0.00000           0.104462            2.84255
     30       0.00000           0.129645            3.52782
     31       0.00000           0.175476            4.77494
     32       0.00000           0.175479            4.77502
     33       0.00000           0.196550            5.34840
     34       0.00000           0.196551            5.34843
     35       0.00000           0.219773            5.98032
     36       0.00000           0.246939            6.71956

  Highest occupied state (VBM) at     -8.59175587 eV
  | Occupation number:      2.00000000

  Lowest unoccupied state (CBM) at    -4.08879837 eV
  | Occupation number:      0.00000000

  Overall HOMO-LUMO gap:      4.50295750 eV.
  Calculating total energy contributions from superposition of free atom densities.

  Total energy components:
  | Sum of eigenvalues            :        -558.71597116 Ha      -15203.43511743 eV
  | XC energy correction          :         -62.44662685 Ha       -1699.25917386 eV
  | XC potential correction       :          80.67876874 Ha        2195.38099724 eV
  | Free-atom electrostatic energy:        -424.28696901 Ha      -11545.43585206 eV
  | Hartree energy correction     :           0.00000000 Ha           0.00000000 eV
  | vdW energy correction         :           0.00000000 Ha           0.00000000 eV
  | Entropy correction            :           0.00000000 Ha           0.00000000 eV
  | ---------------------------
  | Total energy                  :        -964.77079827 Ha      -26252.74914611 eV
  | Total energy, T -> 0          :        -964.77079827 Ha      -26252.74914611 eV  <-- do not rely on this value for anything but (periodic) metals
  | Electronic free energy        :        -964.77079827 Ha      -26252.74914611 eV

  Derived energy quantities:
  | Kinetic energy                :         967.21016936 Ha       26319.12781067 eV
  | Electrostatic energy          :       -1869.53434078 Ha      -50872.61778292 eV
  | Energy correction for multipole
  | error in Hartree potential    :           0.00000000 Ha           0.00000000 eV
  | Sum of eigenvalues per atom                           :       -2533.90585290 eV
  | Total energy (T->0) per atom                          :       -4375.45819102 eV  <-- do not rely on this value for anything but (periodic) metals
  | Electronic free energy per atom                       :       -4375.45819102 eV
  Initialize hartree_potential_storage
  Max. number of atoms included in rho_multipole:            6

  End scf initialization - timings             :  max(cpu_time)    wall_clock(cpu1)
  | Time for scf. initialization               :        0.616 s           0.616 s
  | Boundary condition initialization          :        0.000 s           0.000 s
  | Integration                                :        0.384 s           0.384 s
  | Solution of K.-S. eqns.                    :        0.016 s           0.017 s
  | Grid partitioning                          :        0.084 s           0.083 s
  | Preloading free-atom quantities on grid    :        0.024 s           0.024 s
  | Free-atom superposition energy             :        0.028 s           0.027 s
  | Total energy evaluation                    :        0.000 s           0.001 s

  Partial memory accounting:
  | Current value for overall tracked memory usage on task 0  :           0.267 MB
  | Peak value for overall tracked memory usage on task 0     :           0.826 MB after allocating wave
  | Largest tracked array allocation on task 0 so far         :           0.187 MB  when allocating H_times_psi
  Note:  These values currently only include a subset of arrays which are explicitly tracked.
  The "true" memory usage will be greater.
------------------------------------------------------------

------------------------------------------------------------
          Begin self-consistency iteration #    1

  Date     :  20180214, Time     :  160511.616
------------------------------------------------------------
  Evaluating new KS density.
  Integration grid: deviation in total charge (<rho> - N_e) =   4.263256E-14
  Pulay mixing of updated and previous charge densities.

  Evaluating partitioned Hartree potential by multipole expansion.
  | Analytical far-field extrapolation by fixed multipoles:
  | Hartree multipole sum: apparent total charge =  -0.500638E-01
  Summing up the Hartree potential.
  Time summed over all CPUs for potential: real work        1.337 s, elapsed        1.446 s
  | RMS charge density error from multipole expansion :   0.274991E-03

  Integrating Hamiltonian matrix: batch-based integration.
  Time summed over all CPUs for integration: real work        1.982 s, elapsed        2.159 s

  Updating Kohn-Sham eigenvalues, eigenvectors, occupation numbers, and Fermi level.
  Solving generalized eigenproblem
  Updating Kohn-Sham eigenvalues and eigenfunctions.
  Solving real generalised eigenvalue problem by standard LAPACK (fast)

  Obtaining occupation numbers and chemical potential using ELSI.
  | Chemical potential (Fermi level):    -6.34718698eV
  Writing Kohn-Sham eigenvalues.

  State    Occupation    Eigenvalue [Ha]    Eigenvalue [eV]
      1       2.00000        -101.448295        -2760.54857
      2       2.00000        -101.417325        -2759.70582
      3       2.00000         -10.122234         -275.44000
      4       2.00000          -9.285591         -252.67380
      5       2.00000          -9.256942         -251.89422
      6       2.00000          -7.041026         -191.59605
      7       2.00000          -7.039311         -191.54940
      8       2.00000          -7.039311         -191.54940
      9       2.00000          -7.011090         -190.78146
     10       2.00000          -7.010988         -190.77869
     11       2.00000          -7.010988         -190.77869
     12       2.00000          -0.815950          -22.20312
     13       2.00000          -0.741799          -20.18538
     14       2.00000          -0.722447          -19.65879
     15       2.00000          -0.507811          -13.81825
     16       2.00000          -0.507810          -13.81822
     17       2.00000          -0.420448          -11.44096
     18       2.00000          -0.313013           -8.51751
     19       2.00000          -0.313012           -8.51750
     20       2.00000          -0.294819           -8.02244
     21       2.00000          -0.293660           -7.99089
     22       2.00000          -0.293660           -7.99089
     23       0.00000          -0.133920           -3.64415
     24       0.00000          -0.031079           -0.84570
     25       0.00000           0.016281            0.44304
     26       0.00000           0.016282            0.44305
     27       0.00000           0.071865            1.95554
     28       0.00000           0.071866            1.95557
     29       0.00000           0.115802            3.15113
     30       0.00000           0.142513            3.87796
     31       0.00000           0.189880            5.16690
     32       0.00000           0.189883            5.16698
     33       0.00000           0.207655            5.65057
     34       0.00000           0.207656            5.65061
     35       0.00000           0.233445            6.35236
     36       0.00000           0.263384            7.16705

  Highest occupied state (VBM) at     -7.99089082 eV
  | Occupation number:      2.00000000

  Lowest unoccupied state (CBM) at    -3.64415350 eV
  | Occupation number:      0.00000000

  Overall HOMO-LUMO gap:      4.34673732 eV.

  Total energy components:
  | Sum of eigenvalues            :        -557.81506155 Ha      -15178.92011965 eV
  | XC energy correction          :         -62.49442886 Ha       -1700.55993293 eV
  | XC potential correction       :          80.74103752 Ha        2197.07541676 eV
  | Free-atom electrostatic energy:        -424.28696901 Ha      -11545.43585206 eV
  | Hartree energy correction     :          -0.87995702 Ha         -23.94484872 eV
  | vdW energy correction         :           0.00000000 Ha           0.00000000 eV
  | Entropy correction            :           0.00000000 Ha           0.00000000 eV
  | ---------------------------
  | Total energy                  :        -964.73537892 Ha      -26251.78533660 eV
  | Total energy, T -> 0          :        -964.73537892 Ha      -26251.78533660 eV  <-- do not rely on this value for anything but (periodic) metals
  | Electronic free energy        :        -964.73537892 Ha      -26251.78533660 eV

  Derived energy quantities:
  | Kinetic energy                :         967.46381074 Ha       26326.02974385 eV
  | Electrostatic energy          :       -1869.70476080 Ha      -50877.25514752 eV
  | Energy correction for multipole
  | error in Hartree potential    :          -0.00015936 Ha          -0.00433654 eV
  | Sum of eigenvalues per atom                           :       -2529.82001994 eV
  | Total energy (T->0) per atom                          :       -4375.29755610 eV  <-- do not rely on this value for anything but (periodic) metals
  | Electronic free energy per atom                       :       -4375.29755610 eV

  Self-consistency convergence accuracy:
  | Change of charge density      :  0.3324E+00
  | Change of sum of eigenvalues  :  0.2451E+02 eV
  | Change of total energy        :  0.9638E+00 eV

  End self-consistency iteration #     1       :  max(cpu_time)    wall_clock(cpu1)
  | Time for this iteration                    :        0.756 s           0.754 s
  | Charge density update                      :        0.280 s           0.278 s
  | Density mixing                             :        0.004 s           0.002 s
  | Hartree multipole update                   :        0.020 s           0.017 s
  | Hartree multipole summation                :        0.184 s           0.181 s
  | Integration                                :        0.272 s           0.270 s
  | Solution of K.-S. eqns.                    :        0.004 s           0.003 s
  | Total energy evaluation                    :        0.000 s           0.001 s

  Partial memory accounting:
  | Current value for overall tracked memory usage on task 0  :           0.267 MB
  | Peak value for overall tracked memory usage on task 0     :           1.016 MB after allocating gradient_basis_wave
  | Largest tracked array allocation on task 0 so far         :           0.562 MB  when allocating gradient_basis_wave
  Note:  These values currently only include a subset of arrays which are explicitly tracked.
  The "true" memory usage will be greater.
------------------------------------------------------------

------------------------------------------------------------
          Begin self-consistency iteration #    2

  Date     :  20180214, Time     :  160512.371
------------------------------------------------------------
  Evaluating new KS density.
  Integration grid: deviation in total charge (<rho> - N_e) =  -7.105427E-15
  Pulay mixing of updated and previous charge densities.

  Evaluating partitioned Hartree potential by multipole expansion.
  | Analytical far-field extrapolation by fixed multipoles:
  | Hartree multipole sum: apparent total charge =  -0.391616E+00
  Summing up the Hartree potential.
  Time summed over all CPUs for potential: real work        1.342 s, elapsed        1.422 s
  | RMS charge density error from multipole expansion :   0.211223E-02

  Integrating Hamiltonian matrix: batch-based integration.
  Time summed over all CPUs for integration: real work        1.995 s, elapsed        2.158 s

  Updating Kohn-Sham eigenvalues, eigenvectors, occupation numbers, and Fermi level.
  Solving generalized eigenproblem
  Updating Kohn-Sham eigenvalues and eigenfunctions.
  Solving real generalised eigenvalue problem by standard LAPACK (fast)

  Obtaining occupation numbers and chemical potential using ELSI.
  | Chemical potential (Fermi level):    -1.60293119eV
  Highest occupied state (VBM) at     -3.99419158 eV
  | Occupation number:      2.00000000

  Lowest unoccupied state (CBM) at    -0.57293821 eV
  | Occupation number:      0.00000000

  Overall HOMO-LUMO gap:      3.42125337 eV.

  Checking to see if s.c.f. parameters should be adjusted.
  The system likely has a gap. Increased the default Pulay mixing parameter (charge_mix_param). Value:   0.200000 .
  Kept the default occupation width. Value:   0.010000 eV.

  Total energy components:
  | Sum of eigenvalues            :        -551.89378690 Ha      -15017.79403841 eV
  | XC energy correction          :         -62.81617095 Ha       -1709.31498057 eV
  | XC potential correction       :          81.15989763 Ha        2208.47318037 eV
  | Free-atom electrostatic energy:        -424.28696901 Ha      -11545.43585206 eV
  | Hartree energy correction     :          -6.75784370 Ha        -183.89028335 eV
  | vdW energy correction         :           0.00000000 Ha           0.00000000 eV
  | Entropy correction            :           0.00000000 Ha           0.00000000 eV
  | ---------------------------
  | Total energy                  :        -964.59487293 Ha      -26247.96197403 eV
  | Total energy, T -> 0          :        -964.59487293 Ha      -26247.96197403 eV  <-- do not rely on this value for anything but (periodic) metals
  | Electronic free energy        :        -964.59487293 Ha      -26247.96197403 eV

  Derived energy quantities:
  | Kinetic energy                :         968.92370337 Ha       26365.75544364 eV
  | Electrostatic energy          :       -1870.70240535 Ha      -50904.40243710 eV
  | Energy correction for multipole
  | error in Hartree potential    :          -0.00121778 Ha          -0.03313744 eV
  | Sum of eigenvalues per atom                           :       -2502.96567307 eV
  | Total energy (T->0) per atom                          :       -4374.66032900 eV  <-- do not rely on this value for anything but (periodic) metals
  | Electronic free energy per atom                       :       -4374.66032900 eV

  Self-consistency convergence accuracy:
  | Change of charge density      :  0.3011E+00
  | Change of sum of eigenvalues  :  0.1611E+03 eV
  | Change of total energy        :  0.3823E+01 eV

  End self-consistency iteration #     2       :  max(cpu_time)    wall_clock(cpu1)
  | Time for this iteration                    :        0.756 s           0.756 s
  | Charge density update                      :        0.280 s           0.278 s
  | Density mixing                             :        0.004 s           0.004 s
  | Hartree multipole update                   :        0.024 s           0.021 s
  | Hartree multipole summation                :        0.180 s           0.179 s
  | Integration                                :        0.272 s           0.270 s
  | Solution of K.-S. eqns.                    :        0.004 s           0.003 s
  | Total energy evaluation                    :        0.004 s           0.001 s

  Partial memory accounting:
  | Current value for overall tracked memory usage on task 0  :           0.268 MB
  | Peak value for overall tracked memory usage on task 0     :           1.016 MB after allocating gradient_basis_wave
  | Largest tracked array allocation on task 0 so far         :           0.562 MB  when allocating gradient_basis_wave
  Note:  These values currently only include a subset of arrays which are explicitly tracked.
  The "true" memory usage will be greater.
------------------------------------------------------------

------------------------------------------------------------
          Begin self-consistency iteration #    3

  Date     :  20180214, Time     :  160513.128
------------------------------------------------------------
  Evaluating new KS density.
  Integration grid: deviation in total charge (<rho> - N_e) =   1.421085E-14
  Pulay mixing of updated and previous charge densities.

  Evaluating partitioned Hartree potential by multipole expansion.
  | Analytical far-field extrapolation by fixed multipoles:
  | Hartree multipole sum: apparent total charge =  -0.643052E+00
  Summing up the Hartree potential.
  Time summed over all CPUs for potential: real work        1.373 s, elapsed        1.531 s
  | RMS charge density error from multipole expansion :   0.325181E-02

  Integrating Hamiltonian matrix: batch-based integration.
  Time summed over all CPUs for integration: real work        2.072 s, elapsed        2.476 s

  Updating Kohn-Sham eigenvalues, eigenvectors, occupation numbers, and Fermi level.
  Solving generalized eigenproblem
  Updating Kohn-Sham eigenvalues and eigenfunctions.
  Solving real generalised eigenvalue problem by standard LAPACK (fast)

  Obtaining occupation numbers and chemical potential using ELSI.
  | Chemical potential (Fermi level):    -0.19323744eV
  Highest occupied state (VBM) at     -2.36497361 eV
  | Occupation number:      2.00000000

  Lowest unoccupied state (CBM) at     1.04802479 eV
  | Occupation number:      0.00000000

  Overall HOMO-LUMO gap:      3.41299839 eV.

  Total energy components:
  | Sum of eigenvalues            :        -549.18929472 Ha      -14944.20106195 eV
  | XC energy correction          :         -62.93299794 Ha       -1712.49400474 eV
  | XC potential correction       :          81.31087777 Ha        2212.58155897 eV
  | Free-atom electrostatic energy:        -424.28696901 Ha      -11545.43585206 eV
  | Hartree energy correction     :          -9.46358650 Ha        -257.51729089 eV
  | vdW energy correction         :           0.00000000 Ha           0.00000000 eV
  | Entropy correction            :           0.00000000 Ha           0.00000000 eV
  | ---------------------------
  | Total energy                  :        -964.56197040 Ha      -26247.06665065 eV
  | Total energy, T -> 0          :        -964.56197040 Ha      -26247.06665065 eV  <-- do not rely on this value for anything but (periodic) metals
  | Electronic free energy        :        -964.56197040 Ha      -26247.06665065 eV

  Derived energy quantities:
  | Kinetic energy                :         968.96105773 Ha       26366.77190739 eV
  | Electrostatic energy          :       -1870.59003019 Ha      -50901.34455331 eV
  | Energy correction for multipole
  | error in Hartree potential    :          -0.00178466 Ha          -0.04856299 eV
  | Sum of eigenvalues per atom                           :       -2490.70017699 eV
  | Total energy (T->0) per atom                          :       -4374.51110844 eV  <-- do not rely on this value for anything but (periodic) metals
  | Electronic free energy per atom                       :       -4374.51110844 eV

  Self-consistency convergence accuracy:
  | Change of charge density      :  0.1613E+00
  | Change of sum of eigenvalues  :  0.7359E+02 eV
  | Change of total energy        :  0.8953E+00 eV

  End self-consistency iteration #     3       :  max(cpu_time)    wall_clock(cpu1)
  | Time for this iteration                    :        0.820 s           0.818 s
  | Charge density update                      :        0.280 s           0.281 s
  | Density mixing                             :        0.008 s           0.006 s
  | Hartree multipole update                   :        0.028 s           0.025 s
  | Hartree multipole summation                :        0.192 s           0.193 s
  | Integration                                :        0.312 s           0.309 s
  | Solution of K.-S. eqns.                    :        0.004 s           0.003 s
  | Total energy evaluation                    :        0.000 s           0.000 s

  Partial memory accounting:
  | Current value for overall tracked memory usage on task 0  :           0.268 MB
  | Peak value for overall tracked memory usage on task 0     :           1.016 MB after allocating gradient_basis_wave
  | Largest tracked array allocation on task 0 so far         :           0.562 MB  when allocating gradient_basis_wave
  Note:  These values currently only include a subset of arrays which are explicitly tracked.
  The "true" memory usage will be greater.
------------------------------------------------------------

------------------------------------------------------------
          Begin self-consistency iteration #    4

  Date     :  20180214, Time     :  160513.946
------------------------------------------------------------
  Evaluating new KS density.
  Integration grid: deviation in total charge (<rho> - N_e) =  -7.105427E-15
  Pulay mixing of updated and previous charge densities.

  Evaluating partitioned Hartree potential by multipole expansion.
  | Analytical far-field extrapolation by fixed multipoles:
  | Hartree multipole sum: apparent total charge =  -0.902179E+00
  Summing up the Hartree potential.
  Time summed over all CPUs for potential: real work        1.374 s, elapsed        1.573 s
  | RMS charge density error from multipole expansion :   0.451124E-02

  Integrating Hamiltonian matrix: batch-based integration.
  Time summed over all CPUs for integration: real work        2.031 s, elapsed        2.278 s

  Updating Kohn-Sham eigenvalues, eigenvectors, occupation numbers, and Fermi level.
  Solving generalized eigenproblem
  Updating Kohn-Sham eigenvalues and eigenfunctions.
  Solving real generalised eigenvalue problem by standard LAPACK (fast)

  Obtaining occupation numbers and chemical potential using ELSI.
  | Chemical potential (Fermi level):     1.17753473eV
  Highest occupied state (VBM) at     -0.96533001 eV
  | Occupation number:      2.00000000

  Lowest unoccupied state (CBM) at     2.40922857 eV
  | Occupation number:      0.00000000

  Overall HOMO-LUMO gap:      3.37455858 eV.

  Total energy components:
  | Sum of eigenvalues            :        -547.01191802 Ha      -14884.95162733 eV
  | XC energy correction          :         -63.01020932 Ha       -1714.59503322 eV
  | XC potential correction       :          81.40993092 Ha        2215.27693230 eV
  | Free-atom electrostatic energy:        -424.28696901 Ha      -11545.43585206 eV
  | Hartree energy correction     :         -11.64833395 Ha        -316.96729403 eV
  | vdW energy correction         :           0.00000000 Ha           0.00000000 eV
  | Entropy correction            :           0.00000000 Ha           0.00000000 eV
  | ---------------------------
  | Total energy                  :        -964.54749939 Ha      -26246.67287433 eV
  | Total energy, T -> 0          :        -964.54749939 Ha      -26246.67287433 eV  <-- do not rely on this value for anything but (periodic) metals
  | Electronic free energy        :        -964.54749939 Ha      -26246.67287433 eV

  Derived energy quantities:
  | Kinetic energy                :         968.59688755 Ha       26356.86233257 eV
  | Electrostatic energy          :       -1870.13417762 Ha      -50888.94017369 eV
  | Energy correction for multipole
  | error in Hartree potential    :          -0.00231521 Ha          -0.06300002 eV
  | Sum of eigenvalues per atom                           :       -2480.82527122 eV
  | Total energy (T->0) per atom                          :       -4374.44547906 eV  <-- do not rely on this value for anything but (periodic) metals
  | Electronic free energy per atom                       :       -4374.44547906 eV

  Self-consistency convergence accuracy:
  | Change of charge density      :  0.9942E-01
  | Change of sum of eigenvalues  :  0.5925E+02 eV
  | Change of total energy        :  0.3938E+00 eV

  End self-consistency iteration #     4       :  max(cpu_time)    wall_clock(cpu1)
  | Time for this iteration                    :        0.792 s           0.792 s
  | Charge density update                      :        0.280 s           0.279 s
  | Density mixing                             :        0.008 s           0.008 s
  | Hartree multipole update                   :        0.020 s           0.018 s
  | Hartree multipole summation                :        0.196 s           0.197 s
  | Integration                                :        0.288 s           0.285 s
  | Solution of K.-S. eqns.                    :        0.004 s           0.003 s
  | Total energy evaluation                    :        0.000 s           0.000 s

  Partial memory accounting:
  | Current value for overall tracked memory usage on task 0  :           0.268 MB
  | Peak value for overall tracked memory usage on task 0     :           1.016 MB after allocating gradient_basis_wave
  | Largest tracked array allocation on task 0 so far         :           0.562 MB  when allocating gradient_basis_wave
  Note:  These values currently only include a subset of arrays which are explicitly tracked.
  The "true" memory usage will be greater.
------------------------------------------------------------

------------------------------------------------------------
          Begin self-consistency iteration #    5

  Date     :  20180214, Time     :  160514.739
------------------------------------------------------------
  Evaluating new KS density.
  Integration grid: deviation in total charge (<rho> - N_e) =   1.421085E-14
  Pulay mixing of updated and previous charge densities.

  Evaluating partitioned Hartree potential by multipole expansion.
  | Analytical far-field extrapolation by fixed multipoles:
  | Hartree multipole sum: apparent total charge =  -0.975934E+00
  Summing up the Hartree potential.
  Time summed over all CPUs for potential: real work        1.382 s, elapsed        1.496 s
  | RMS charge density error from multipole expansion :   0.491371E-02

  Integrating Hamiltonian matrix: batch-based integration.
  Time summed over all CPUs for integration: real work        2.018 s, elapsed        2.174 s

  Updating Kohn-Sham eigenvalues, eigenvectors, occupation numbers, and Fermi level.
  Solving generalized eigenproblem
  Updating Kohn-Sham eigenvalues and eigenfunctions.
  Solving real generalised eigenvalue problem by standard LAPACK (fast)

  Obtaining occupation numbers and chemical potential using ELSI.
  | Chemical potential (Fermi level):     1.44010781eV
  Highest occupied state (VBM) at     -0.49713427 eV
  | Occupation number:      2.00000000

  Lowest unoccupied state (CBM) at     2.62295962 eV
  | Occupation number:      0.00000000

  Overall HOMO-LUMO gap:      3.12009389 eV.

  Total energy components:
  | Sum of eigenvalues            :        -546.65413462 Ha      -14875.21584573 eV
  | XC energy correction          :         -63.01010309 Ha       -1714.59214256 eV
  | XC potential correction       :          81.40927500 Ha        2215.25908398 eV
  | Free-atom electrostatic energy:        -424.28696901 Ha      -11545.43585206 eV
  | Hartree energy correction     :         -12.00425250 Ha        -326.65233050 eV
  | vdW energy correction         :           0.00000000 Ha           0.00000000 eV
  | Entropy correction            :           0.00000000 Ha           0.00000000 eV
  | ---------------------------
  | Total energy                  :        -964.54618422 Ha      -26246.63708686 eV
  | Total energy, T -> 0          :        -964.54618422 Ha      -26246.63708686 eV  <-- do not rely on this value for anything but (periodic) metals
  | Electronic free energy        :        -964.54618422 Ha      -26246.63708686 eV

  Derived energy quantities:
  | Kinetic energy                :         968.30749018 Ha       26348.98742941 eV
  | Electrostatic energy          :       -1869.84357131 Ha      -50881.03237371 eV
  | Energy correction for multipole
  | error in Hartree potential    :          -0.00246626 Ha          -0.06711024 eV
  | Sum of eigenvalues per atom                           :       -2479.20264095 eV
  | Total energy (T->0) per atom                          :       -4374.43951448 eV  <-- do not rely on this value for anything but (periodic) metals
  | Electronic free energy per atom                       :       -4374.43951448 eV

  Self-consistency convergence accuracy:
  | Change of charge density      :  0.3660E-01
  | Change of sum of eigenvalues  :  0.9736E+01 eV
  | Change of total energy        :  0.3579E-01 eV

  End self-consistency iteration #     5       :  max(cpu_time)    wall_clock(cpu1)
  | Time for this iteration                    :        0.812 s           0.811 s
  | Charge density update                      :        0.276 s           0.276 s
  | Density mixing                             :        0.012 s           0.020 s
  | Hartree multipole update                   :        0.048 s           0.047 s
  | Hartree multipole summation                :        0.188 s           0.188 s
  | Integration                                :        0.276 s           0.276 s
  | Solution of K.-S. eqns.                    :        0.004 s           0.003 s
  | Total energy evaluation                    :        0.000 s           0.001 s

  Partial memory accounting:
  | Current value for overall tracked memory usage on task 0  :           0.268 MB
  | Peak value for overall tracked memory usage on task 0     :           1.016 MB after allocating gradient_basis_wave
  | Largest tracked array allocation on task 0 so far         :           0.562 MB  when allocating gradient_basis_wave
  Note:  These values currently only include a subset of arrays which are explicitly tracked.
  The "true" memory usage will be greater.
------------------------------------------------------------

------------------------------------------------------------
          Begin self-consistency iteration #    6

  Date     :  20180214, Time     :  160515.551
------------------------------------------------------------
  Evaluating new KS density.
  Integration grid: deviation in total charge (<rho> - N_e) =  -1.421085E-14
  Pulay mixing of updated and previous charge densities.

  Evaluating partitioned Hartree potential by multipole expansion.
  | Analytical far-field extrapolation by fixed multipoles:
  | Hartree multipole sum: apparent total charge =  -0.100111E+01
  Summing up the Hartree potential.
  Time summed over all CPUs for potential: real work        1.378 s, elapsed        1.524 s
  | RMS charge density error from multipole expansion :   0.507164E-02

  Integrating Hamiltonian matrix: batch-based integration.
  Time summed over all CPUs for integration: real work        2.082 s, elapsed        2.510 s

  Updating Kohn-Sham eigenvalues, eigenvectors, occupation numbers, and Fermi level.
  Solving generalized eigenproblem
  Updating Kohn-Sham eigenvalues and eigenfunctions.
  Solving real generalised eigenvalue problem by standard LAPACK (fast)

  Obtaining occupation numbers and chemical potential using ELSI.
  | Chemical potential (Fermi level):     1.58413862eV
  Highest occupied state (VBM) at     -0.39734099 eV
  | Occupation number:      2.00000000

  Lowest unoccupied state (CBM) at     2.78662562 eV
  | Occupation number:      0.00000000

  Overall HOMO-LUMO gap:      3.18396661 eV.

  Total energy components:
  | Sum of eigenvalues            :        -546.47500925 Ha      -14870.34159624 eV
  | XC energy correction          :         -63.01379768 Ha       -1714.69267741 eV
  | XC potential correction       :          81.41401323 Ha        2215.38801780 eV
  | Free-atom electrostatic energy:        -424.28696901 Ha      -11545.43585206 eV
  | Hartree energy correction     :         -12.18434411 Ha        -331.55287247 eV
  | vdW energy correction         :           0.00000000 Ha           0.00000000 eV
  | Entropy correction            :           0.00000000 Ha           0.00000000 eV
  | ---------------------------
  | Total energy                  :        -964.54610681 Ha      -26246.63498038 eV
  | Total energy, T -> 0          :        -964.54610681 Ha      -26246.63498038 eV  <-- do not rely on this value for anything but (periodic) metals
  | Electronic free energy        :        -964.54610681 Ha      -26246.63498038 eV

  Derived energy quantities:
  | Kinetic energy                :         968.24247492 Ha       26347.21827422 eV
  | Electrostatic energy          :       -1869.77478405 Ha      -50879.16057718 eV
  | Energy correction for multipole
  | error in Hartree potential    :          -0.00252056 Ha          -0.06858795 eV
  | Sum of eigenvalues per atom                           :       -2478.39026604 eV
  | Total energy (T->0) per atom                          :       -4374.43916340 eV  <-- do not rely on this value for anything but (periodic) metals
  | Electronic free energy per atom                       :       -4374.43916340 eV

  Self-consistency convergence accuracy:
  | Change of charge density      :  0.1269E-01
  | Change of sum of eigenvalues  :  0.4874E+01 eV
  | Change of total energy        :  0.2106E-02 eV

  End self-consistency iteration #     6       :  max(cpu_time)    wall_clock(cpu1)
  | Time for this iteration                    :        0.824 s           0.824 s
  | Charge density update                      :        0.280 s           0.279 s
  | Density mixing                             :        0.012 s           0.014 s
  | Hartree multipole update                   :        0.016 s           0.017 s
  | Hartree multipole summation                :        0.192 s           0.192 s
  | Integration                                :        0.316 s           0.314 s
  | Solution of K.-S. eqns.                    :        0.004 s           0.003 s
  | Total energy evaluation                    :        0.000 s           0.005 s

  Partial memory accounting:
  | Current value for overall tracked memory usage on task 0  :           0.268 MB
  | Peak value for overall tracked memory usage on task 0     :           1.016 MB after allocating gradient_basis_wave
  | Largest tracked array allocation on task 0 so far         :           0.562 MB  when allocating gradient_basis_wave
  Note:  These values currently only include a subset of arrays which are explicitly tracked.
  The "true" memory usage will be greater.
------------------------------------------------------------

------------------------------------------------------------
          Begin self-consistency iteration #    7

  Date     :  20180214, Time     :  160516.376
------------------------------------------------------------
  Evaluating new KS density.
  Integration grid: deviation in total charge (<rho> - N_e) =   0.000000E+00
  Pulay mixing of updated and previous charge densities.

  Evaluating partitioned Hartree potential by multipole expansion.
  | Analytical far-field extrapolation by fixed multipoles:
  | Hartree multipole sum: apparent total charge =  -0.997198E+00
  Summing up the Hartree potential.
  Time summed over all CPUs for potential: real work        1.443 s, elapsed        1.800 s
  | RMS charge density error from multipole expansion :   0.506290E-02

  Integrating Hamiltonian matrix: batch-based integration.
  Time summed over all CPUs for integration: real work        2.207 s, elapsed        2.531 s

  Updating Kohn-Sham eigenvalues, eigenvectors, occupation numbers, and Fermi level.
  Solving generalized eigenproblem
  Updating Kohn-Sham eigenvalues and eigenfunctions.
  Solving real generalised eigenvalue problem by standard LAPACK (fast)

  Obtaining occupation numbers and chemical potential using ELSI.
  | Chemical potential (Fermi level):     1.55538002eV
  Highest occupied state (VBM) at     -0.40873236 eV
  | Occupation number:      2.00000000

  Lowest unoccupied state (CBM) at     2.75418901 eV
  | Occupation number:      0.00000000

  Overall HOMO-LUMO gap:      3.16292137 eV.

  Total energy components:
  | Sum of eigenvalues            :        -546.51712455 Ha      -14871.48761208 eV
  | XC energy correction          :         -63.01174029 Ha       -1714.63669291 eV
  | XC potential correction       :          81.41136017 Ha        2215.31582419 eV
  | Free-atom electrostatic energy:        -424.28696901 Ha      -11545.43585206 eV
  | Hartree energy correction     :         -12.14162494 Ha        -330.39042479 eV
  | vdW energy correction         :           0.00000000 Ha           0.00000000 eV
  | Entropy correction            :           0.00000000 Ha           0.00000000 eV
  | ---------------------------
  | Total energy                  :        -964.54609862 Ha      -26246.63475765 eV
  | Total energy, T -> 0          :        -964.54609862 Ha      -26246.63475765 eV  <-- do not rely on this value for anything but (periodic) metals
  | Electronic free energy        :        -964.54609862 Ha      -26246.63475765 eV

  Derived energy quantities:
  | Kinetic energy                :         968.24507705 Ha       26347.28908178 eV
  | Electrostatic energy          :       -1869.77943539 Ha      -50879.28714652 eV
  | Energy correction for multipole
  | error in Hartree potential    :          -0.00251040 Ha          -0.06831159 eV
  | Sum of eigenvalues per atom                           :       -2478.58126868 eV
  | Total energy (T->0) per atom                          :       -4374.43912628 eV  <-- do not rely on this value for anything but (periodic) metals
  | Electronic free energy per atom                       :       -4374.43912628 eV

  Self-consistency convergence accuracy:
  | Change of charge density      :  0.5645E-02
  | Change of sum of eigenvalues  : -0.1146E+01 eV
  | Change of total energy        :  0.2227E-03 eV

  End self-consistency iteration #     7       :  max(cpu_time)    wall_clock(cpu1)
  | Time for this iteration                    :        0.924 s           0.927 s
  | Charge density update                      :        0.324 s           0.323 s
  | Density mixing                             :        0.016 s           0.026 s
  | Hartree multipole update                   :        0.024 s           0.024 s
  | Hartree multipole summation                :        0.228 s           0.231 s
  | Integration                                :        0.320 s           0.316 s
  | Solution of K.-S. eqns.                    :        0.004 s           0.004 s
  | Total energy evaluation                    :        0.000 s           0.002 s

  Partial memory accounting:
  | Current value for overall tracked memory usage on task 0  :           0.268 MB
  | Peak value for overall tracked memory usage on task 0     :           1.016 MB after allocating gradient_basis_wave
  | Largest tracked array allocation on task 0 so far         :           0.562 MB  when allocating gradient_basis_wave
  Note:  These values currently only include a subset of arrays which are explicitly tracked.
  The "true" memory usage will be greater.
------------------------------------------------------------

------------------------------------------------------------
          Begin self-consistency iteration #    8

  Date     :  20180214, Time     :  160517.304
------------------------------------------------------------
  Evaluating new KS density.
  Integration grid: deviation in total charge (<rho> - N_e) =   2.842171E-14
  Pulay mixing of updated and previous charge densities.

  Evaluating partitioned Hartree potential by multipole expansion.
  | Analytical far-field extrapolation by fixed multipoles:
  | Hartree multipole sum: apparent total charge =  -0.100101E+01
  Summing up the Hartree potential.
  Time summed over all CPUs for potential: real work        1.407 s, elapsed        1.814 s
  | RMS charge density error from multipole expansion :   0.509779E-02

  Integrating Hamiltonian matrix: batch-based integration.
  Time summed over all CPUs for integration: real work        2.098 s, elapsed        2.623 s

  Updating Kohn-Sham eigenvalues, eigenvectors, occupation numbers, and Fermi level.
[...]
     10       2.00000          -6.709055         -182.56268
     11       2.00000          -6.709055         -182.56267
     12       2.00000          -0.594138          -16.16732
     13       2.00000          -0.464821          -12.64842
     14       2.00000          -0.438218          -11.92452
     15       2.00000          -0.231273           -6.29327
     16       2.00000          -0.231272           -6.29322
     17       2.00000          -0.197836           -5.38340
     18       2.00000          -0.112551           -3.06267
     19       2.00000          -0.112550           -3.06265
     20       2.00000          -0.018928           -0.51507
     21       2.00000          -0.014179           -0.38583
     22       2.00000          -0.014179           -0.38583
     23       0.00000           0.101561            2.76361
     24       0.00000           0.139833            3.80505
     25       0.00000           0.176089            4.79163
     26       0.00000           0.176091            4.79167
     27       0.00000           0.262038            7.13040
     28       0.00000           0.262040            7.13048
     29       0.00000           0.294895            8.02451
     30       0.00000           0.334447            9.10077
     31       0.00000           0.384856           10.47245
     32       0.00000           0.384860           10.47256
     33       0.00000           0.404343           11.00274
     34       0.00000           0.404343           11.00274
     35       0.00000           0.420138           11.43254
     36       0.00000           0.454948           12.37977

  Highest occupied state (VBM) at     -0.38582989 eV
  | Occupation number:      2.00000000

  Lowest unoccupied state (CBM) at     2.76360599 eV
  | Occupation number:      0.00000000

  Overall HOMO-LUMO gap:      3.14943588 eV.

  Self-consistency cycle converged.

  End self-consistency iteration #    16       :  max(cpu_time)    wall_clock(cpu1)
  | Time for this iteration                    :        2.400 s           2.419 s
  | Charge density & force component update    :        1.272 s           1.284 s
  | Density mixing                             :        0.020 s           0.023 s
  | Hartree multipole update                   :        0.032 s           0.032 s
  | Hartree multipole summation                :        0.692 s           0.693 s
  | Integration                                :        0.376 s           0.374 s
  | Solution of K.-S. eqns.                    :        0.004 s           0.004 s
  | Total energy evaluation                    :        0.004 s           0.002 s

  Partial memory accounting:
  | Current value for overall tracked memory usage on task 0  :           0.268 MB
  | Peak value for overall tracked memory usage on task 0     :           2.332 MB after allocating hessian_basis_wave
  | Largest tracked array allocation on task 0 so far         :           1.123 MB  when allocating hessian_basis_wave
  Note:  These values currently only include a subset of arrays which are explicitly tracked.
  The "true" memory usage will be greater.
------------------------------------------------------------
  Obtaining max. number of non-zero basis functions in each batch .
  Evaluating KS electron density on previously omitted grid points.
  Evaluating non-empirical van der Waals correction (Tkatchenko/Scheffler 2009).
  Performing Hirshfeld analysis of fragment charges and moments.
  ----------------------------------------------------------------------
  | Atom     1: Cl
  |   Hirshfeld charge        :     -0.26977921
  |   Free atom volume        :     65.35447769
  |   Hirshfeld volume        :     69.64377745
  |   Hirshfeld dipole vector :      0.11193432      -0.00000463      -0.00000000
  |   Hirshfeld dipole moment :      0.11193432
  |   Hirshfeld second moments:      0.01313306      -0.00000157       0.00000000
  |                                 -0.00000157      -0.22548517       0.00000000
  |                                  0.00000000       0.00000000      -0.22548480
  ----------------------------------------------------------------------
  | Atom     2: C
  |   Hirshfeld charge        :     -0.08682573
  |   Free atom volume        :     38.37861207
  |   Hirshfeld volume        :     33.54986435
  |   Hirshfeld dipole vector :     -0.03015051       0.00000263       0.00000000
  |   Hirshfeld dipole moment :      0.03015051
  |   Hirshfeld second moments:      0.06600048      -0.00000275       0.00000000
  |                                 -0.00000275       0.12201898       0.00000000
  |                                  0.00000000       0.00000000       0.12202004
  ----------------------------------------------------------------------
  | Atom     3: Cl
  |   Hirshfeld charge        :     -0.72296166
  |   Free atom volume        :     65.35447769
  |   Hirshfeld volume        :     83.32612566
  |   Hirshfeld dipole vector :     -0.14291293       0.00000162       0.00000000
  |   Hirshfeld dipole moment :      0.14291293
  |   Hirshfeld second moments:     -0.37477664      -0.00000607      -0.00000000
  |                                 -0.00000607      -0.58827172       0.00000000
  |                                 -0.00000000       0.00000000      -0.58827000
  ----------------------------------------------------------------------
  | Atom     4: H
  |   Hirshfeld charge        :      0.02649695
  |   Free atom volume        :     10.31539447
  |   Hirshfeld volume        :      8.27291089
  |   Hirshfeld dipole vector :      0.01004920       0.08023225       0.00000000
  |   Hirshfeld dipole moment :      0.08085914
  |   Hirshfeld second moments:      0.02821432      -0.00759545       0.00000000
  |                                 -0.00759545       0.07496367       0.00000000
  |                                  0.00000000       0.00000000       0.09152032
  ----------------------------------------------------------------------
  | Atom     5: H
  |   Hirshfeld charge        :      0.02649923
  |   Free atom volume        :     10.31539447
  |   Hirshfeld volume        :      8.27281374
  |   Hirshfeld dipole vector :      0.01004790      -0.04011823       0.06948176
  |   Hirshfeld dipole moment :      0.08085882
  |   Hirshfeld second moments:      0.02821586       0.00379789      -0.00657653
  |                                  0.00379789       0.08738159       0.00716947
  |                                 -0.00657653       0.00716947       0.07910877
  ----------------------------------------------------------------------
  | Atom     6: H
  |   Hirshfeld charge        :      0.02649923
  |   Free atom volume        :     10.31539447
  |   Hirshfeld volume        :      8.27281374
  |   Hirshfeld dipole vector :      0.01004790      -0.04011823      -0.06948176
  |   Hirshfeld dipole moment :      0.08085882
  |   Hirshfeld second moments:      0.02821586       0.00379789       0.00657653
  |                                  0.00379789       0.08738159      -0.00716947
  |                                  0.00657653      -0.00716947       0.07910877
  ----------------------------------------------------------------------


  Total energy components:
  | Sum of eigenvalues            :        -546.48702638 Ha      -14870.66859916 eV
  | XC energy correction          :         -63.01360125 Ha       -1714.68733243 eV
  | XC potential correction       :          81.41376231 Ha        2215.38118981 eV
  | Free-atom electrostatic energy:        -424.28696901 Ha      -11545.43585206 eV
  | Hartree energy correction     :         -12.17225793 Ha        -331.22399080 eV
  | vdW energy correction         :          -0.00037504 Ha          -0.01020539 eV
  | Entropy correction            :           0.00000000 Ha           0.00000000 eV
  | ---------------------------
  | Total energy                  :        -964.54646731 Ha      -26246.64479003 eV
  | Total energy, T -> 0          :        -964.54646731 Ha      -26246.64479003 eV  <-- do not rely on this value for anything but (periodic) metals
  | Electronic free energy        :        -964.54646731 Ha      -26246.64479003 eV

  Derived energy quantities:
  | Kinetic energy                :         968.24892492 Ha       26347.39378781 eV
  | Electrostatic energy          :       -1869.78141594 Ha      -50879.34104002 eV
  | Energy correction for multipole
  | error in Hartree potential    :          -0.00251130 Ha          -0.06833604 eV
  | Sum of eigenvalues per atom                           :       -2478.44476653 eV
  | Total energy (T->0) per atom                          :       -4374.44079834 eV  <-- do not rely on this value for anything but (periodic) metals
  | Electronic free energy per atom                       :       -4374.44079834 eV

  atomic forces [eV/Ang]:
  -----------------------
  atom #    1
   Hellmann-Feynman              : -0.217948E+02 -0.262102E-03 -0.238591E-10
   Ionic forces                  :  0.000000E+00  0.000000E+00  0.000000E+00
   Multipole                     :  0.261248E-01 -0.152868E-04  0.910574E-12
   Pulay + GGA                   :  0.226558E+02  0.480800E-03  0.347564E-10
   Van der Waals                 :  0.242652E-02 -0.835957E-07 -0.676602E-14
   ----------------------------------------------------------------
   Total forces(   1)            :  0.889532E+00  0.203327E-03  0.118011E-10
  atom #    2
   Hellmann-Feynman              :  0.314186E+01 -0.286301E-03 -0.116677E-10
   Ionic forces                  :  0.000000E+00  0.000000E+00  0.000000E+00
   Multipole                     : -0.130115E+00  0.329081E-04  0.130175E-12
   Pulay + GGA                   : -0.332761E+01  0.510339E-04  0.610292E-11
   Van der Waals                 : -0.292185E-02  0.707087E-09  0.308137E-14
   ----------------------------------------------------------------
   Total forces(   2)            : -0.318786E+00 -0.202358E-03 -0.543158E-11
  atom #    3
   Hellmann-Feynman              :  0.288855E+01 -0.271706E-03 -0.355570E-11
   Ionic forces                  :  0.000000E+00  0.000000E+00  0.000000E+00
   Multipole                     : -0.575209E-01  0.752716E-05  0.301289E-12
   Pulay + GGA                   : -0.281496E+01  0.457251E-03  0.151540E-09
   Van der Waals                 :  0.376110E-02  0.312954E-06 -0.110582E-13
   ----------------------------------------------------------------
   Total forces(   3)            :  0.198274E-01  0.193385E-03  0.148274E-09
  atom #    4
   Hellmann-Feynman              : -0.197885E+00 -0.156216E+00 -0.117501E-12
   Ionic forces                  :  0.000000E+00  0.000000E+00  0.000000E+00
   Multipole                     : -0.153677E-01 -0.211447E-01  0.448747E-13
   Pulay + GGA                   :  0.178429E-01  0.748813E-01  0.440106E-13
   Van der Waals                 : -0.108789E-02  0.188189E-02  0.296613E-14
   ----------------------------------------------------------------
   Total forces(   4)            : -0.196498E+00 -0.100598E+00 -0.256497E-13
  atom #    5
   Hellmann-Feynman              : -0.197737E+00  0.782321E-01 -0.135557E+00
   Ionic forces                  :  0.000000E+00  0.000000E+00  0.000000E+00
   Multipole                     : -0.153664E-01  0.105781E-01 -0.183227E-01
   Pulay + GGA                   :  0.178663E-01 -0.374276E-01  0.648625E-01
   Van der Waals                 : -0.108894E-02 -0.941062E-03  0.162996E-02
   ----------------------------------------------------------------
   Total forces(   5)            : -0.196326E+00  0.504416E-01 -0.873869E-01
  atom #    6
   Hellmann-Feynman              : -0.197737E+00  0.782321E-01  0.135557E+00
   Ionic forces                  :  0.000000E+00  0.000000E+00  0.000000E+00
   Multipole                     : -0.153664E-01  0.105781E-01  0.183227E-01
   Pulay + GGA                   :  0.178663E-01 -0.374276E-01 -0.648625E-01
   Van der Waals                 : -0.108894E-02 -0.941062E-03 -0.162996E-02
   ----------------------------------------------------------------
   Total forces(   6)            : -0.196326E+00  0.504416E-01  0.873869E-01

  Timings for VdW correction (Tkatchenko-Scheffler 2009 or later):
  | CPU time:        0.068 s, Wall clock time:        0.069 s.
  Removing unitary transformations (pure translations, rotations) from forces on atoms.
  Atomic forces before filtering:
  | Net force on center of mass :   0.142358E-02  0.479569E-03  0.157798E-09 eV/A
  | Net torque on center of mass:  -0.318688E-13 -0.363854E-09  0.262049E-03 eV
  Atomic forces after filtering:
  | Net force on center of mass :   0.111504E-15 -0.111504E-16 -0.111504E-16 eV/A
  | Net torque on center of mass:   0.590053E-17  0.186235E-16  0.236021E-16 eV

  Energy and forces in a compact form:
  | Total energy uncorrected      :         -0.262466447900304E+05 eV
  | Total energy corrected        :         -0.262466447900304E+05 eV  <-- do not rely on this value for anything but (periodic) metals
  | Electronic free energy        :         -0.262466447900304E+05 eV
  Total atomic forces (unitary forces cleaned) [eV/Ang]:
  |   1          0.889295112649373E+00          0.167181604704996E-03          0.462931539490466E-10
  |   2         -0.319023241352891E+00         -0.276333778581596E-03         -0.234659462006815E-10
  |   3          0.195901135073821E-01          0.639990295815772E-04          0.533021900877612E-10
  |   4         -0.196714925876500E+00         -0.100677995939389E+00         -0.264439015969666E-10
  |   5         -0.196573529441677E+00          0.503615745409187E-01         -0.873868561129658E-01
  |   6         -0.196573529485687E+00          0.503615745427658E-01          0.873868560632803E-01

  ------------------------------------ 
  Start decomposition of the XC Energy 
  ------------------------------------ 
  X and C from original XC functional choice 
  Hartree-Fock Energy :          0.000000000 Ha              0.000000000 eV
  X Energy            :        -61.390428601 Ha          -1670.518557268 eV
  C Energy            :         -1.623172653 Ha            -44.168775161 eV
  Total XC Energy     :        -63.013601253 Ha          -1714.687332429 eV
  ------------------------------------ 
  LDA X and C from self-consistent density 
  X Energy LDA        :        -56.797221415 Ha          -1545.531030461 eV
  C Energy LDA        :         -3.247379870 Ha            -88.365702259 eV
  ------------------------------------ 
  End decomposition of the XC Energy 
  ------------------------------------ 

------------------------------------------------------------

------------------------------------------------------------------------------
  Final output of selected total energy values:

  The following output summarizes some interesting total energy values
  at the end of a run (AFTER all relaxation, molecular dynamics, etc.).

  | Total energy of the DFT / Hartree-Fock s.c.f. calculation      :         -26246.644790030 eV
  | Final zero-broadening corrected energy (caution - metals only) :         -26246.644790030 eV
  | For reference only, the value of 1 Hartree used in FHI-aims is :             27.211384500 eV

  Before relying on these values, please be sure to understand exactly which
  total energy value is referred to by a given number. Different objects may
  all carry the same name 'total energy'. Definitions:

  Total energy of the DFT / Hartree-Fock s.c.f. calculation:
  | Note that this energy does not include ANY quantities calculated after the
  | s.c.f. cycle, in particular not ANY RPA, MP2, etc. many-body perturbation terms.

  Final zero-broadening corrected energy:
  | For metallic systems only, a broadening of the occupation numbers at the Fermi
  | level can be extrapolated back to zero broadening by an electron-gas inspired
  | formula. For all systems that are not real metals, this value can be
  | meaningless and should be avoided.

------------------------------------------------------------------------------
  Methods described in the following list of references were used in this FHI-aims run.
  If you publish the results, please make sure to cite these reference if they apply.
  FHI-aims is an academic code, and for our developers (often, Ph.D. students
  and postdocs), scientific credit in the community is essential.
  Thank you for helping us!

  For any use of FHI-aims, please cite:

    Volker Blum, Ralf Gehrke, Felix Hanke, Paula Havu, Ville Havu,
    Xinguo Ren, Karsten Reuter, and Matthias Scheffler
    'Ab initio molecular simulations with numeric atom-centered orbitals'
    Computer Physics Communications 180, 2175-2196 (2009)
    http://dx.doi.org/10.1016/j.cpc.2009.06.022


  For the real-space grid partitioning and parallelization used in this calculation, please cite:

    Ville Havu, Volker Blum, Paula Havu, and Matthias Scheffler,
    'Efficient O(N) integration for all-electron electronic structure calculation'
    'using numerically tabulated basis functions'
    Journal of Computational Physics 228, 8367-8379 (2009).
    http://dx.doi.org/10.1016/j.jcp.2009.08.008

  Of course, there are many other important community references, e.g., those cited in the
  above references. Our list is limited to references that describe implementations in the
  FHI-aims code. The reason is purely practical (length of this list) - please credit others as well.

------------------------------------------------------------
          Leaving FHI-aims.
          Date     :  20180214, Time     :  160527.400

          Computational steps:
          | Number of self-consistency cycles          :           16
          | Number of SCF (re)initializations          :            1

          Detailed time accounting                     :  max(cpu_time)    wall_clock(cpu1)
          | Total time                                 :       16.616 s          16.858 s
          | Preparation time                           :        0.380 s           0.440 s
          | Boundary condition initalization           :        0.000 s           0.000 s
          | Grid partitioning                          :        0.084 s           0.083 s
          | Preloading free-atom quantities on grid    :        0.024 s           0.024 s
          | Free-atom superposition energy             :        0.028 s           0.027 s
          | Total time for integrations                :        5.464 s           5.443 s
          | Total time for solution of K.-S. equations :        0.080 s           0.080 s
          | Total time for density & force components  :        5.992 s           5.992 s
          | Total time for mixing                      :        0.288 s           0.349 s
          | Total time for Hartree multipole update    :        0.416 s           0.395 s
          | Total time for Hartree multipole sum       :        3.792 s           3.787 s
          | Total time for total energy evaluation     :        0.012 s           0.020 s
          | Total time for scaled ZORA corrections     :        0.000 s           0.000 s
          | Total time for vdW correction              :        0.068 s           0.069 s

          Partial memory accounting:
          | Residual value for overall tracked memory usage across tasks :           0.000 MB (should be 0.000 MB)
          | Peak values for overall tracked memory usage (after allocating hessian_basis_wave):
          |   Minimum:        2.332 MB (on task 1)
          |   Maximum:        2.348 MB (on task 2)
          |   Average:        2.342 MB
          | Largest tracked array allocation (hessian_basis_wave):
          |   Minimum:        1.123 MB (on task 1)
          |   Maximum:        1.133 MB (on task 2)
          |   Average:        1.129 MB
          Note:  These values currently only include a subset of arrays which are explicitly tracked.
          The "true" memory usage will be greater.

          Have a nice day.
------------------------------------------------------------
