  MPI-parallelism will be employed.
------------------------------------------------------------
          Invoking FHI-aims ...

          When using FHI-aims, please cite the following reference:

          Volker Blum, Ralf Gehrke, Felix Hanke, Paula Havu,
          Ville Havu, Xinguo Ren, Karsten Reuter, and Matthias Scheffler,
          'Ab Initio Molecular Simulations with Numeric Atom-Centered Orbitals',
          Computer Physics Communications 180, 2175-2196 (2009)

          For any questions about FHI-aims, please visit the aimsclub website
          with its forums and wiki. Contributions to both the forums and the
          wiki are warmly encouraged - they are for you, and everyone is welcome there.

------------------------------------------------------------



  Date     :  20190817, Time     :  153151.711
  Time zero on CPU 1             :   0.356760000000000E-01  s.
  Internal wall clock time zero  :           335287911.711  s.

  FHI-aims created a unique identifier for this run for later identification
  aims_uuid : 5FC62F72-733D-4A53-AD02-2383890E4B98

  Build configuration of the current instance of FHI-aims
  -------------------------------------------------------
  FHI-aims version      : 190813
  Commit number         : 3da7baeb3
  CMake host system     : Linux-4.4.180-94.97-default
  CMake version         : 3.5.2
  Fortran compiler      : /mpcdf/soft/SLE_12_SP3/packages/x86_64/intel_parallel_studio/2018.4/compilers_and_libraries_2018.5.274/linux/mpi/bin64/mpiifort (Intel) version 18.0.5.20180823
  Fortran compiler flags: -O3 -ip -fp-model precise
  C compiler            : /mpcdf/soft/SLE_12_SP3/packages/skylake/intel/18.0.5/bin/icc (Intel) version 18.0.5.20180823
  C compiler flags      : -O3 -ip -fp-model precise
  Architecture          :
  Using MPI
  Using Scalapack
  Using C files
  Using SPGlib
  Using i-PI
  Linking against: /mpcdf/soft/SLE_12_SP3/packages/x86_64/anaconda/3.5.1.0/lib/libmkl_intel_lp64.so
                   /mpcdf/soft/SLE_12_SP3/packages/x86_64/anaconda/3.5.1.0/lib/libmkl_sequential.so
                   /mpcdf/soft/SLE_12_SP3/packages/x86_64/anaconda/3.5.1.0/lib/libmkl_core.so
                   /mpcdf/soft/SLE_12_SP3/packages/x86_64/anaconda/3.5.1.0/lib/libmkl_blacs_intelmpi_lp64.so
                   /mpcdf/soft/SLE_12_SP3/packages/x86_64/anaconda/3.5.1.0/lib/libmkl_scalapack_lp64.so

  Using        8 parallel tasks.
  Task        0 on host co1631 reporting.
  Task        1 on host co1631 reporting.
  Task        2 on host co1631 reporting.
  Task        3 on host co1631 reporting.
  Task        4 on host co1631 reporting.
  Task        5 on host co1631 reporting.
  Task        6 on host co1631 reporting.
  Task        7 on host co1631 reporting.

  Performing system and environment tests:
  | Environment variable OMP_NUM_THREADS correctly set to 1.
  | Maximum stacksize for task 0: unlimited
  | Maximum stacksize for task 1: unlimited
  | Maximum stacksize for task 2: unlimited
  | Maximum stacksize for task 3: unlimited
  | Maximum stacksize for task 4: unlimited
  | Maximum stacksize for task 5: unlimited
  | Maximum stacksize for task 6: unlimited
  | Maximum stacksize for task 7: unlimited
  | Current stacksize for task 0: unlimited
  | Current stacksize for task 1: unlimited
  | Current stacksize for task 2: unlimited
  | Current stacksize for task 3: unlimited
  | Current stacksize for task 4: unlimited
  | Current stacksize for task 5: unlimited
  | Current stacksize for task 6: unlimited
  | Current stacksize for task 7: unlimited
  | Checking for scalapack...
  | Testing pdtran()...
  | All pdtran() tests passed.

  Obtaining array dimensions for all initial allocations:
  
  -----------------------------------------------------------------------
  Parsing control.in (first pass over file, find array dimensions only).
  The contents of control.in will be repeated verbatim below
  unless switched off by setting 'verbatim_writeout .false.' .
  in the first line of control.in .
  -----------------------------------------------------------------------
  
  #########################################################################################
  #
  #  Volker Blum, FHI 2008 : Test run input file control.in for simple H2O
  #
  #########################################################################################
  #
  #  Physical model
  #
    xc                 pbe
    spin               none
    relativistic       none
    charge             1.
  #
  #  SCF convergence
  #
    occupation_type    gaussian 0.01
    mixer              pulay
      n_max_pulay        10
      charge_mix_param   0.5
    sc_accuracy_rho    1E-5
    sc_accuracy_eev    1E-3
    sc_accuracy_etot   1E-6
    sc_iter_limit      100
  
  output esp
  esp grid 3
  ################################################################################
  #
  #  FHI-aims code project
  #  VB, Fritz-Haber Institut, 2009
  #
  #  Suggested "light" defaults for H atom (to be pasted into control.in file)
  #  Be sure to double-check any results obtained with these settings for post-processing,
  #  e.g., with the "tight" defaults and larger basis sets.
  #
  ################################################################################
    species        H
  #     global species definitions
      nucleus             1
      mass                1.00794
  #
      l_hartree           4
  #
      cut_pot             3.5  1.5  1.0
      basis_dep_cutoff    1e-4
  #
      radial_base         24 5.0
      radial_multiplier   1
      angular_grids       specified
        division   0.2421   50
        division   0.3822  110
        division   0.4799  194
        division   0.5341  302
  #      division   0.5626  434
  #      division   0.5922  590
  #      division   0.6542  770
  #      division   0.6868 1202
  #      outer_grid  770
        outer_grid  302
  ################################################################################
  #
  #  Definition of "minimal" basis
  #
  ################################################################################
  #     valence basis states
      valence      1  s   1.
  #     ion occupancy
      ion_occ      1  s   0.5
  ################################################################################
  #
  #  Suggested additional basis functions. For production calculations,
  #  uncomment them one after another (the most important basis functions are
  #  listed first).
  #
  #  Basis constructed for dimers: 0.5 A, 0.7 A, 1.0 A, 1.5 A, 2.5 A
  #
  ################################################################################
  #  "First tier" - improvements: -1014.90 meV to -62.69 meV
       hydro 2 s 2.1
       hydro 2 p 3.5
  #  "Second tier" - improvements: -12.89 meV to -1.83 meV
  #     hydro 1 s 0.85
  #     hydro 2 p 3.7
  #     hydro 2 s 1.2
  #     hydro 3 d 7
  #  "Third tier" - improvements: -0.25 meV to -0.12 meV
  #     hydro 4 f 11.2
  #     hydro 3 p 4.8
  #     hydro 4 d 9
  #     hydro 3 s 3.2
  ################################################################################
  #
  #  FHI-aims code project
  #  VB, Fritz-Haber Institut, 2009
  #
  #  Suggested "light" defaults for O atom (to be pasted into control.in file)
  #  Be sure to double-check any results obtained with these settings for post-processing,
  #  e.g., with the "tight" defaults and larger basis sets.
  #
  ################################################################################
    species        O
  #     global species definitions
      nucleus             8
      mass                15.9994
  #
      l_hartree           4
  #
      cut_pot             3.5  1.5  1.0
      basis_dep_cutoff    1e-4
  #
      radial_base         36 5.0
      radial_multiplier   1
       angular_grids specified
        division   0.2659   50
        division   0.4451  110
        division   0.6052  194
        division   0.7543  302
  #      division   0.8014  434
  #      division   0.8507  590
  #      division   0.8762  770
  #      division   0.9023  974
  #      division   1.2339 1202
  #      outer_grid 974
        outer_grid 302
  ################################################################################
  #
  #  Definition of "minimal" basis
  #
  ################################################################################
  #     valence basis states
      valence      2  s   2.
      valence      2  p   4.
  #     ion occupancy
      ion_occ      2  s   1.
      ion_occ      2  p   3.
  ################################################################################
  #
  #  Suggested additional basis functions. For production calculations,
  #  uncomment them one after another (the most important basis functions are
  #  listed first).
  #
  #  Constructed for dimers: 1.0 A, 1.208 A, 1.5 A, 2.0 A, 3.0 A
  #
  ################################################################################
  #  "First tier" - improvements: -699.05 meV to -159.38 meV
       hydro 2 p 1.8
       hydro 3 d 7.6
       hydro 3 s 6.4
  #  "Second tier" - improvements: -49.91 meV to -5.39 meV
  #     hydro 4 f 11.6
  #     hydro 3 p 6.2
  #     hydro 3 d 5.6
  #     hydro 5 g 17.6
  #     hydro 1 s 0.75
  #  "Third tier" - improvements: -2.83 meV to -0.50 meV
  #     ionic 2 p auto
  #     hydro 4 f 10.8
  #     hydro 4 d 4.7
  #     hydro 2 s 6.8
  #  "Fourth tier" - improvements: -0.40 meV to -0.12 meV
  #     hydro 3 p 5
  #     hydro 3 s 3.3
  #     hydro 5 g 15.6
  #     hydro 4 f 17.6
  #     hydro 4 d 14
  # Further basis functions - -0.08 meV and below
  #     hydro 3 s 2.1
  #     hydro 4 d 11.6
  #     hydro 3 p 16
  #     hydro 2 s 17.2
  
  -----------------------------------------------------------------------
  Completed first pass over input file control.in .
  -----------------------------------------------------------------------
  
  
  -----------------------------------------------------------------------
  Parsing geometry.in (first pass over file, find array dimensions only).
  The contents of geometry.in will be repeated verbatim below
  unless switched off by setting 'verbatim_writeout .false.' .
  in the first line of geometry.in .
  -----------------------------------------------------------------------
  
  # Geometry for water -- needs to be relaxed as the water molecule
  # described here has a 90degree bond angle and a
  # 1 Angstrom bond distance ...
  
              atom         0.00000000       -0.07313571        0.00000000  O
              atom         0.76748093       -0.67043214        0.00000000  H
              atom        -0.76748093       -0.67043214        0.00000000  H
  
  -----------------------------------------------------------------------
  Completed first pass over input file geometry.in .
  -----------------------------------------------------------------------
  

  Basic array size parameters:
  | Number of species                 :        2
  | Number of atoms                   :        3
  | Max. basis fn. angular momentum   :        2
  | Max. atomic/ionic basis occupied n:        2
  | Max. number of basis fn. types    :        2
  | Max. radial fns per species/type  :        3
  | Max. logarithmic grid size        :     1301
  | Max. radial integration grid size :       36
  | Max. angular integration grid size:      302
  | Max. angular grid division number :        8
  | Radial grid for Hartree potential :     1301
  | Number of spin channels           :        1

------------------------------------------------------------
          Reading file control.in.
------------------------------------------------------------
  XC: Using PBE gradient-corrected functionals.
  Spin treatment: No spin polarisation.
  Non-relativistic treatment of kinetic energy.
  Charged system requested: Charge =   0.100000E+01.
  Occupation type: Gaussian broadening, width =   0.100000E-01 eV.
  Using pulay charge density mixing.
  Pulay mixing - number of memorized iterations:   10
  Charge density mixing - mixing parameter:     0.5000
  Convergence accuracy of self-consistent charge density:  0.1000E-04
  Convergence accuracy of sum of eigenvalues:  0.1000E-02
  Convergence accuracy of total energy:  0.1000E-05
  Maximum number of s.-c. iterations  :   100
  Fitting ESP-charges to Potential. 
  | Esp charge output options: 
  | ESP Grid method: 3, cubic grid
  |
 
  Reading configuration options for species H                   .
  | Found nuclear charge :   1.0000
  | Found atomic mass :    1.00794000000000      amu
  | Found l_max for Hartree potential  :   4
  | Found cutoff potl. onset [A], width [A], scale factor :    3.50000    1.50000    1.00000
  | Threshold for basis-dependent cutoff potential is   0.100000E-03
  | Found data for basic radial integration grid :    24 points, outermost radius =    5.000 A
  | Found multiplier for basic radial grid :   1
  | Found angular grid specification: user-specified.
  | Specified grid contains     5 separate shells.
  | Check grid settings after all constraints further below.
  | Found free-atom valence shell :  1 s   1.000
  | No ionic wave fns used. Skipping ion_occ.
  | Found hydrogenic basis function :  2 s   2.100
  | Found hydrogenic basis function :  2 p   3.500
  Species H                   : Missing cutoff potential type.
  Defaulting to exp(1/x)/(1-x)^2 type cutoff potential.
  Species H : No 'logarithmic' tag. Using default grid for free atom:
  | Default logarithmic grid data [bohr] : 0.1000E-03 0.1000E+03 0.1012E+01
  Species H : On-site basis accuracy parameter (for Gram-Schmidt orthonormalisation) not specified.
  Using default value basis_acc =  0.1000000E-03.
  Species H                   : Using default innermost maximum threshold i_radial=  2 for radial functions.
  Species H                   : Default cutoff onset for free atom density etc. : 0.35000000E+01 AA.
  Species H                   : Basic radial grid will be enhanced according to radial_multiplier =   1, to contain    24 grid points.
 
  Reading configuration options for species O                   .
  | Found nuclear charge :   8.0000
  | Found atomic mass :    15.9994000000000      amu
  | Found l_max for Hartree potential  :   4
  | Found cutoff potl. onset [A], width [A], scale factor :    3.50000    1.50000    1.00000
  | Threshold for basis-dependent cutoff potential is   0.100000E-03
  | Found data for basic radial integration grid :    36 points, outermost radius =    5.000 A
  | Found multiplier for basic radial grid :   1
  | Found angular grid specification: user-specified.
  | Specified grid contains     5 separate shells.
  | Check grid settings after all constraints further below.
  | Found free-atom valence shell :  2 s   2.000
  | Found free-atom valence shell :  2 p   4.000
  | No ionic wave fns used. Skipping ion_occ.
  | No ionic wave fns used. Skipping ion_occ.
  | Found hydrogenic basis function :  2 p   1.800
  | Found hydrogenic basis function :  3 d   7.600
  | Found hydrogenic basis function :  3 s   6.400
  Species O                   : Missing cutoff potential type.
  Defaulting to exp(1/x)/(1-x)^2 type cutoff potential.
  Species O : No 'logarithmic' tag. Using default grid for free atom:
  | Default logarithmic grid data [bohr] : 0.1000E-03 0.1000E+03 0.1012E+01
  Species O : On-site basis accuracy parameter (for Gram-Schmidt orthonormalisation) not specified.
  Using default value basis_acc =  0.1000000E-03.
  Species O                   : Using default innermost maximum threshold i_radial=  2 for radial functions.
  Species O                   : Default cutoff onset for free atom density etc. : 0.35000000E+01 AA.
  Species O                   : Basic radial grid will be enhanced according to radial_multiplier =   1, to contain    36 grid points.
 
  Finished reading input file 'control.in'. Consistency checks are next.
 
  MPI_IN_PLACE appears to work with this MPI implementation.
  | Keeping use_mpi_in_place .true. (see manual).
  Target number of points in a grid batch is not set. Defaulting to  100
  Method for grid partitioning is not set. Defaulting to parallel hash+maxmin partitioning.
  Batch size limit is not set. Defaulting to    200
  By default, will store active basis functions for each batch.
  If in need of memory, prune_basis_once .false. can be used to disable this option.
  communication_type for Hartree potential was not specified.
  Defaulting to calc_hartree .
  Pulay mixer: Number of initial linear mixing iterations not set.
  Defaulting to    0 iterations.
  Work space size for distributed Hartree potential not set.
  Defaulting to   0.200000E+03 MB.
  Algorithm-dependent basis array size parameters:
  | n_max_pulay                         :       10
  Presetting      1001 iterations before the initial mixing cycle
  is restarted anyway using the sc_init_iter criterion / keyword.
  Presetting a factor      1.000 between actual scf density residual
  and density convergence criterion sc_accuracy_rho below which sc_init_iter
  takes no effect.
  Calculation of forces was not defined in control.in. No forces will be calculated.
  Geometry relaxation not requested: no relaxation will be performed.
  No accuracy limit for integral partition fn. given. Defaulting to  0.1000E-14.
  No threshold value for u(r) in integrations given. Defaulting to  0.1000E-05.
  No accuracy for occupation numbers given. Defaulting to  0.1000E-12.
  No threshold value for occupation numbers given. Defaulting to  0.0000E+00.
  No accuracy for fermi level given. Defaulting to  0.1000E-19.
  Maximum # of iterations to find E_F not set. Defaulting to  200.
  Preferred method for the eigenvalue solver ('KS_method') not specified in 'control.in'.
  Calling BLACS routine to test compilation state
  Since ScaLAPACK support is enabled, defaulting to ELPA (via ELSI).
  Will not use alltoall communication since running on < 1024 CPUs.
  Threshold for basis singularities not set.
  Default threshold for basis singularities:  0.1000E-04
  partition_type (choice of integration weights) for integrals was not specified.
  | Using a version of the partition function of Stratmann and coworkers ('stratmann_sparse').
  | At each grid point, the set of atoms used to build the partition table is smoothly restricted to
  | only those atoms whose free-atom density would be non-zero at that grid point.
  Partitioning for Hartree potential was not defined. Using partition_type for integrals.
  | Adjusted default value of keyword multip_moments_threshold to:       0.10000000E-11
  | This value may affect high angular momentum components of the Hartree potential in periodic systems.
  No q(lm)/r^(l+1) cutoff set for long-range Hartree potential.
  | Using default value of  0.100000E-09 .
  | Verify using the multipole_threshold keyword.
  Defaulting to new monopole extrapolation.
  Density update method: automatic selection selected.
  Charge integration errors on the 3D integration grid will be compensated
  by explicit normalization and distribution of residual charges.
  Use the "compensate_multipole_errors" flag to change this behaviour.
------------------------------------------------------------


------------------------------------------------------------
          Reading geometry description geometry.in.
------------------------------------------------------------
 * Warning: Initial charge and total charge of the system are inconsistent.
 * Selected charge in control.in:     1.0000* Sum of initial charges in geometry.in:     0.0000
  Input structure read successfully.
  The structure contains        3 atoms,  and a total of          9.000 electrons.

  Input geometry:
  | No unit cell requested.
  | Atomic structure:
  |       Atom                x [A]            y [A]            z [A]
  |    1: Species O             0.00000000       -0.07313571        0.00000000
  |    2: Species H             0.76748093       -0.67043214        0.00000000
  |    3: Species H            -0.76748093       -0.67043214        0.00000000
  | The smallest distance between any two atoms is         0.97251735 AA.
  | The first atom of this pair is atom number                      1 .
  | The second atom of this pair is atom number                     2 .

  Number of empty states per atom not set in control.in - providing a guess from actual geometry.
  | Total number of empty states used during s.c.f. cycle:        6
  If you use a very high smearing, use empty_states (per atom!) in control.in to increase this value.

  Structure-dependent array size parameters: 
  | Maximum number of distinct radial functions  :        9
  | Maximum number of basis functions            :       24
  | Number of Kohn-Sham states (occupied + empty):       11
------------------------------------------------------------

------------------------------------------------------------
          Preparing all fixed parts of the calculation.
------------------------------------------------------------
  Determining machine precision:
    2.225073858507201E-308
  Setting up grids for atomic and cluster calculations.

  Creating wave function, potential, and density for free atoms.

  Species: H

  List of occupied orbitals and eigenvalues:
    n    l              occ      energy [Ha]    energy [eV]
    1    0           1.0000        -0.237589        -6.4651


  Species: O

  List of occupied orbitals and eigenvalues:
    n    l              occ      energy [Ha]    energy [eV]
    1    0           2.0000       -18.898188      -514.2459
    2    0           2.0000        -0.878505       -23.9053
    2    1           4.0000        -0.331779        -9.0282

  Creating fixed part of basis set: Ionic, confined, hydrogenic.
 
  H                    hydrogenic:
 
  List of hydrogenic basis orbitals: 
    n    l      effective z      eigenvalue [eV]  inner max. [A]     outer max. [A]     outer radius [A]   
    2    0         2.100000       -14.9728           0.193243           1.317208           4.583499
    2    1         3.500000       -41.6669           0.602369           0.602369           3.723403
 
 
  O                    hydrogenic:
 
  List of hydrogenic basis orbitals: 
    n    l      effective z      eigenvalue [eV]  inner max. [A]     outer max. [A]     outer radius [A]   
    2    1         1.800000       -10.9749           1.164242           1.164242           4.578029
    3    2         7.600000       -87.3180           0.624125           0.624125           3.251020
    3    0         6.400000       -61.9207           0.061167           1.081902           4.001998
 

  Adding cutoff potential to free-atom effective potential.
  Creating atomic-like basis functions for current effective potential.

  Species H                   :

  List of atomic basis orbitals and eigenvalues:
    n    l      energy [Ha]    energy [eV]    outer radius [A]
    1    0        -0.237589        -6.4651       4.527807


  Species O                   :

  List of atomic basis orbitals and eigenvalues:
    n    l      energy [Ha]    energy [eV]    outer radius [A]
    1    0       -18.898188      -514.2459       1.415765
    2    0        -0.878505       -23.9053       4.413171
    2    1        -0.331779        -9.0282       4.522403

  Assembling full basis from fixed parts.
  | Species H :   atomic orbital   1 s accepted.
  | Species H :    hydro orbital   2 s accepted.
  | Species H :    hydro orbital   2 p accepted.
  | Species O :   atomic orbital   1 s accepted.
  | Species O :    hydro orbital   3 s accepted.
  | Species O :   atomic orbital   2 s accepted.
  | Species O :   atomic orbital   2 p accepted.
  | Species O :    hydro orbital   2 p accepted.
  | Species O :    hydro orbital   3 d accepted.
 
  Basis size parameters after reduction:
  | Total number of radial functions:        9
  | Total number of basis functions :       24
 
  Per-task memory consumption for arrays in subroutine allocate_ext:
  |           2.249332MB.
  Testing on-site integration grid accuracy.
  |  Species  Function  <phi|h_atom|phi> (log., in eV)  <phi|h_atom|phi> (rad., in eV)
           1        1                 -6.4663192853                 -6.4651273558
           1        2                 13.7111246313                 13.7170609718
           1        3                 25.2673269279                 25.2674696378
           2        4               -514.2458688638               -514.2457643834
           2        5                 15.1795651126                 15.1795290741
           2        6                -21.5359799773                -21.5360846185
           2        7                 -9.0283069236                 -9.0284644067
           2        8                  8.3027758563                  8.2834874195
           2        9                 45.8339351984                 45.8338762260

  Preparing densities etc. for the partition functions (integrals / Hartree potential).

  Preparations completed.
  max(cpu_time)          :      0.088 s.
  Wall clock time (cpu1) :      0.088 s.
------------------------------------------------------------

------------------------------------------------------------
          Begin self-consistency loop: Initialization.

          Date     :  20190817, Time     :  153151.850
------------------------------------------------------------

  Initializing index lists of integration centers etc. from given atomic structure:
  | Number of centers in hartree potential         :         3
  | Number of centers in hartree multipole         :         3
  | Number of centers in electron density summation:         3
  | Number of centers in basis integrals           :         3
  | Number of centers in integrals                 :         3
  | Number of centers in hamiltonian               :         3
  * Using 8 tasks for Scalapack Eigenvalue solver.
  Detailed listing of tasks and assigned k-points:
  (for non-periodic systems, the "k-point" denotes an internal label only)
   Task     0 k-point     1 on co1631
   Task     1 k-point     1 on co1631
   Task     2 k-point     1 on co1631
   Task     3 k-point     1 on co1631
   Task     4 k-point     1 on co1631
   Task     5 k-point     1 on co1631
   Task     6 k-point     1 on co1631
   Task     7 k-point     1 on co1631
  Tasks:     8 split into      4 X      2 BLACS grid
  Calculating block size based on n_basis =           24  max_nprow =            4  max_npcol =            2
  ScaLAPACK block size set to:            4
  Allocating        0.001 MB for ovlp
  Allocating        0.001 MB for ham
  Allocating        0.001 MB for eigenvec
  Required Scalapack workspace - INTEGER:            1  REAL:             1
  Partitioning the integration grid into batches with parallel hashing+maxmin method.
  | Number of batches:      247
  | Maximal batch size:     104
  | Minimal batch size:      49
  | Average batch size:      64.470
  | Standard deviation of batch sizes:       9.597

  Integration load balanced across     8 MPI tasks.
  Work distribution over tasks is as follows:
  Task     0 has       1961 integration points.
  Task     1 has       1996 integration points.
  Task     2 has       2037 integration points.
  Task     3 has       2002 integration points.
  Task     4 has       1982 integration points.
  Task     5 has       1994 integration points.
  Task     6 has       1988 integration points.
  Task     7 has       1964 integration points.
  Initializing partition tables, free-atom densities, potentials, etc. across the integration grid (initialize_grid_storage).
  | initialize_grid_storage: Actual outermost partition radius vs. multipole_radius_free
  | (-- VB: in principle, multipole_radius_free should be larger, hence this output)
  | Species        1: Confinement radius =              4.999999999999999 AA, multipole_radius_free =              5.054417573612229 AA.
  | Species        1: outer_partition_radius set to              5.054417573612229 AA .
  | Species        2: Confinement radius =              4.999999999999999 AA, multipole_radius_free =              5.048384829883283 AA.
  | Species        2: outer_partition_radius set to              5.048384829883283 AA .
  | The sparse table of interatomic distances needs          0.09 kbyte instead of         0.07 kbyte of memory.
  | Using the partition_type stratmann_smoother will reduce your memory usage.
  | Net number of integration points:    15924
  | of which are non-zero points    :    14544
  Renormalizing the initial density to the exact electron count on the 3D integration grid.
  | Initial density: Formal number of electrons (from input files) :      10.0000000000
  | Integrated number of electrons on 3D grid     :       9.9999463253
  | Charge integration error                      :      -0.0000536747
  | Normalization factor for density and gradient :       1.0000053675
  Renormalizing the free-atom superposition density to the exact electron count on the 3D integration grid.
  | Formal number of electrons (from input files) :       9.0000000000
  | Integrated number of electrons on 3D grid     :       9.9999463253
  | Charge integration error                      :      -0.0000536747
  | Normalization factor for density and gradient :       1.0000053675
  Obtaining max. number of non-zero basis functions in each batch (get_n_compute_maxes).
  | Maximal number of non-zero basis functions:       24 in task     0
  | Maximal number of non-zero basis functions:       24 in task     1
  | Maximal number of non-zero basis functions:       24 in task     2
  | Maximal number of non-zero basis functions:       24 in task     3
  | Maximal number of non-zero basis functions:       24 in task     4
  | Maximal number of non-zero basis functions:       24 in task     5
  | Maximal number of non-zero basis functions:       24 in task     6
  | Maximal number of non-zero basis functions:       24 in task     7
  Selecting the method for density update.
  Loop over occupied states selected for charge density update.
  Allocating        0.002 MB for KS_eigenvector
  Integrating Hamiltonian matrix: batch-based integration.
  Time summed over all CPUs for integration: real work        0.034 s, elapsed        0.035 s
  Integrating overlap matrix.
  Time summed over all CPUs for integration: real work        0.011 s, elapsed        0.011 s
  Deallocating overlap matrix.

  Updating Kohn-Sham eigenvalues and eigenvectors using ELSI and the ELPA eigensolver.
  Overlap matrix is not singular
  | Lowest and highest eigenvalues :  0.1660E-01,  0.2705E+01
  Finished singularity check of overlap matrix
  | Time :     0.001 s
  Starting ELPA eigensolver
  Finished Cholesky decomposition
  | Time :     0.000 s
  Finished transformation to standard eigenproblem
  | Time :     0.001 s
  Finished solving standard eigenproblem
  | Time :     0.000 s
  Finished back-transformation of eigenvectors
  | Time :     0.001 s

  Obtaining occupation numbers and chemical potential using ELSI.
  | Chemical potential (Fermi level):   -11.83585962 eV
  Writing Kohn-Sham eigenvalues.

  State    Occupation    Eigenvalue [Ha]    Eigenvalue [eV]
      1       2.00000         -19.002470         -517.08352
      2       2.00000          -1.092398          -29.72566
      3       2.00000          -0.623827          -16.97519
      4       2.00000          -0.507523          -13.81039
      5       1.00000          -0.434960          -11.83586
      6       0.00000          -0.049676           -1.35177
      7       0.00000           0.031879            0.86748
      8       0.00000           0.215975            5.87698
      9       0.00000           0.249412            6.78683
     10       0.00000           0.302870            8.24151
     11       0.00000           0.505798           13.76346

  Highest occupied state (VBM) at    -11.83585962 eV
  | Occupation number:      1.00000000

  Lowest unoccupied state (CBM) at   -11.83585962 eV
  | Occupation number:      1.00000000

  Overall HOMO-LUMO gap:      0.00000000 eV.
  This system has fractional occupation numbers. Thus, it is a degenerate system
  within the approximate finite broadening function (occupation_type)
  applied to determine the occupation numbers.
  This may not be harmful. However, for some systems (free atoms), a different, non-degenerate
  ground state might exist by using a smaller broadening (see keyword occupation_type).
  Calculating total energy contributions from superposition of free atom densities.

  Total energy components:
  | Sum of eigenvalues            :         -42.88739459 Ha       -1167.02538436 eV
  | XC energy correction          :          -9.01272410 Ha        -245.24870088 eV
  | XC potential correction       :          11.58837182 Ha         315.33564139 eV
  | Free-atom electrostatic energy:         -35.71003035 Ha        -971.71936649 eV
  | Hartree energy correction     :           0.00000000 Ha           0.00000000 eV
  | Entropy correction            :          -0.00010367 Ha          -0.00282095 eV
  | ---------------------------
  | Total energy                  :         -76.02177722 Ha       -2068.65781033 eV
  | Total energy, T -> 0          :         -76.02188089 Ha       -2068.66063128 eV  <-- do not rely on this value for anything but (periodic) metals
  | Electronic free energy        :         -76.02198456 Ha       -2068.66345222 eV

  Derived energy quantities:
  | Kinetic energy                :          75.96471271 Ha        2067.10500611 eV
  | Electrostatic energy          :        -142.97376584 Ha       -3890.51411557 eV
  | Energy correction for multipole
  | error in Hartree potential    :           0.00000000 Ha           0.00000000 eV
  | Sum of eigenvalues per atom                           :        -389.00846145 eV
  | Total energy (T->0) per atom                          :        -689.55354376 eV  <-- do not rely on this value for anything but (periodic) metals
  | Electronic free energy per atom                       :        -689.55448407 eV
  Initialize hartree_potential_storage
  Max. number of atoms included in rho_multipole:            3

  End scf initialization - timings             :  max(cpu_time)    wall_clock(cpu1)
  | Time for scf. initialization               :        0.022 s           0.022 s
  | Boundary condition initialization          :        0.000 s           0.000 s
  | Integration                                :        0.007 s           0.007 s
  | Solution of K.-S. eqns.                    :        0.003 s           0.003 s
  | Grid partitioning                          :        0.004 s           0.005 s
  | Preloading free-atom quantities on grid    :        0.002 s           0.002 s
  | Free-atom superposition energy             :        0.002 s           0.001 s
  | Total energy evaluation                    :        0.000 s           0.001 s

  Partial memory accounting:
  | Current value for overall tracked memory usage:
  |   Minimum:        0.006 MB (on task 4)
  |   Maximum:        0.007 MB (on task 0)
  |   Average:        0.006 MB
  | Peak value for overall tracked memory usage:
  |   Minimum:        0.070 MB (on task 4 after allocating wave)
  |   Maximum:        0.083 MB (on task 0 after allocating wave)
  |   Average:        0.074 MB
  | Largest tracked array allocation so far:
  |   Minimum:        0.037 MB (all_coords on task 7)
  |   Maximum:        0.054 MB (all_coords on task 0)
  |   Average:        0.046 MB
  Note:  These values currently only include a subset of arrays which are explicitly tracked.
  The "true" memory usage will be greater.
------------------------------------------------------------

------------------------------------------------------------
          Begin self-consistency iteration #    1

  Date     :  20190817, Time     :  153151.872
------------------------------------------------------------
  Evaluating new KS density.
  Integration grid: deviation in total charge (<rho> - N_e) =   3.552714E-15
  Pulay mixing of updated and previous charge densities.
  Renormalizing the density to the exact electron count on the 3D integration grid.
  | Formal number of electrons (from input files) :       9.0000000000
  | Integrated number of electrons on 3D grid     :       9.5000000000
  | Charge integration error                      :       0.5000000000
  | Normalization factor for density and gradient :       0.9473684211
  * The proposed renormalization factor deviates too far from 1.
  * Since the initial charge in geometry.in was not equal to the formal charge,
  * it is not yet safe to renormalize the charge. If this message persists
  * even in the final s.c.f. cycle, your integration accuracy may not be good enough.

  Evaluating partitioned Hartree potential by multipole expansion.
  | Original multipole sum: apparent total charge =   0.500000E+00
  | Sum of charges compensated after spline to logarithmic grids =   0.138269E-03
  | Analytical far-field extrapolation by fixed multipoles:
  | Hartree multipole sum: apparent total charge =   0.500000E+00
  Summing up the Hartree potential.
  Time summed over all CPUs for potential: real work        0.026 s, elapsed        0.027 s
  | RMS charge density error from multipole expansion :   0.525868E-02

  Integrating Hamiltonian matrix: batch-based integration.
  Time summed over all CPUs for integration: real work        0.033 s, elapsed        0.036 s

  Updating Kohn-Sham eigenvalues and eigenvectors using ELSI and the ELPA eigensolver.
  Starting ELPA eigensolver
  Finished transformation to standard eigenproblem
  | Time :     0.000 s
  Finished solving standard eigenproblem
  | Time :     0.000 s
  Finished back-transformation of eigenvectors
  | Time :     0.000 s

  Obtaining occupation numbers and chemical potential using ELSI.
  | Chemical potential (Fermi level):   -16.42011997 eV
  Writing Kohn-Sham eigenvalues.

  State    Occupation    Eigenvalue [Ha]    Eigenvalue [eV]
      1       2.00000         -19.159515         -521.35692
      2       2.00000          -1.261474          -34.32646
      3       2.00000          -0.787748          -21.43571
      4       2.00000          -0.656800          -17.87243
      5       1.00000          -0.603428          -16.42012
      6       0.00000          -0.187041           -5.08965
      7       0.00000          -0.109895           -2.99041
      8       0.00000           0.099324            2.70274
      9       0.00000           0.118298            3.21905
     10       0.00000           0.176485            4.80241
     11       0.00000           0.348545            9.48440

  Highest occupied state (VBM) at    -16.42011997 eV
  | Occupation number:      1.00000000

  Lowest unoccupied state (CBM) at   -16.42011997 eV
  | Occupation number:      1.00000000

  Overall HOMO-LUMO gap:      0.00000000 eV.
  This system has fractional occupation numbers. Thus, it is a degenerate system
  within the approximate finite broadening function (occupation_type)
  applied to determine the occupation numbers.
  This may not be harmful. However, for some systems (free atoms), a different, non-degenerate
  ground state might exist by using a smaller broadening (see keyword occupation_type).

  Total energy components:
  | Sum of eigenvalues            :         -44.33450106 Ha       -1206.40315501 eV
  | XC energy correction          :          -8.90696056 Ha        -242.37072846 eV
  | XC potential correction       :          11.44986663 Ha         311.56672327 eV
  | Free-atom electrostatic energy:         -35.71003035 Ha        -971.71936649 eV
  | Hartree energy correction     :           1.58835719 Ha          43.22139816 eV
  | Entropy correction            :          -0.00010367 Ha          -0.00282095 eV
  | ---------------------------
  | Total energy                  :         -75.91326816 Ha       -2065.70512853 eV
  | Total energy, T -> 0          :         -75.91337183 Ha       -2065.70794948 eV  <-- do not rely on this value for anything but (periodic) metals
  | Electronic free energy        :         -75.91347549 Ha       -2065.71077042 eV

  Derived energy quantities:
  | Kinetic energy                :          75.90267459 Ha        2065.41686297 eV
  | Electrostatic energy          :        -142.90898220 Ha       -3888.75126303 eV
  | Energy correction for multipole
  | error in Hartree potential    :           0.00368917 Ha           0.10038750 eV
  | Sum of eigenvalues per atom                           :        -402.13438500 eV
  | Total energy (T->0) per atom                          :        -688.56931649 eV  <-- do not rely on this value for anything but (periodic) metals
  | Electronic free energy per atom                       :        -688.57025681 eV

  Self-consistency convergence accuracy:
  | Change of charge density      :  0.2093E+00
  | Change of sum of eigenvalues  : -0.3938E+02 eV
  | Change of total energy        :  0.2953E+01 eV

  End self-consistency iteration #     1       :  max(cpu_time)    wall_clock(cpu1)
  | Time for this iteration                    :        0.015 s           0.015 s
  | Charge density update                      :        0.003 s           0.003 s
  | Density mixing                             :        0.001 s           0.001 s
  | Hartree multipole update                   :        0.001 s           0.001 s
  | Hartree multipole summation                :        0.004 s           0.004 s
  | Integration                                :        0.005 s           0.004 s
  | Solution of K.-S. eqns.                    :        0.001 s           0.001 s
  | Total energy evaluation                    :        0.000 s           0.000 s

  Partial memory accounting:
  | Current value for overall tracked memory usage:
  |   Minimum:        0.006 MB (on task 4)
  |   Maximum:        0.007 MB (on task 0)
  |   Average:        0.006 MB
  | Peak value for overall tracked memory usage:
  |   Minimum:        0.082 MB (on task 4 after allocating gradient_basis_wave)
  |   Maximum:        0.083 MB (on task 0 after allocating gradient_basis_wave)
  |   Average:        0.082 MB
  | Largest tracked array allocation so far:
  |   Minimum:        0.057 MB (gradient_basis_wave on task 0)
  |   Maximum:        0.057 MB (gradient_basis_wave on task 0)
  |   Average:        0.057 MB
  Note:  These values currently only include a subset of arrays which are explicitly tracked.
  The "true" memory usage will be greater.
------------------------------------------------------------

------------------------------------------------------------
          Begin self-consistency iteration #    2

  Date     :  20190817, Time     :  153151.887
------------------------------------------------------------
  Evaluating new KS density.
  Integration grid: deviation in total charge (<rho> - N_e) =   1.776357E-15
  Pulay mixing of updated and previous charge densities.
  Renormalizing the density to the exact electron count on the 3D integration grid.
  | Formal number of electrons (from input files) :       9.0000000000
  | Integrated number of electrons on 3D grid     :       9.0283216122
  | Charge integration error                      :       0.0283216122
  | Normalization factor for density and gradient :       0.9968630258
  * The proposed renormalization factor deviates too far from 1.
  * Since the initial charge in geometry.in was not equal to the formal charge,
  * it is not yet safe to renormalize the charge. If this message persists
  * even in the final s.c.f. cycle, your integration accuracy may not be good enough.

  Evaluating partitioned Hartree potential by multipole expansion.
  | Original multipole sum: apparent total charge =   0.971678E+00
  | Sum of charges compensated after spline to logarithmic grids =   0.269101E-03
  | Analytical far-field extrapolation by fixed multipoles:
  | Hartree multipole sum: apparent total charge =   0.971678E+00
  Summing up the Hartree potential.
  Time summed over all CPUs for potential: real work        0.027 s, elapsed        0.029 s
  | RMS charge density error from multipole expansion :   0.103283E-01

  Integrating Hamiltonian matrix: batch-based integration.
  Time summed over all CPUs for integration: real work        0.032 s, elapsed        0.034 s

  Updating Kohn-Sham eigenvalues and eigenvectors using ELSI and the ELPA eigensolver.
  Starting ELPA eigensolver
  Finished transformation to standard eigenproblem
  | Time :     0.000 s
  Finished solving standard eigenproblem
  | Time :     0.001 s
  Finished back-transformation of eigenvectors
  | Time :     0.000 s

  Obtaining occupation numbers and chemical potential using ELSI.
  | Chemical potential (Fermi level):   -20.57221938 eV
  Highest occupied state (VBM) at    -20.57221938 eV
  | Occupation number:      1.00000000

  Lowest unoccupied state (CBM) at   -20.57221938 eV
  | Occupation number:      1.00000000

  Overall HOMO-LUMO gap:      0.00000000 eV.
  This system has fractional occupation numbers. Thus, it is a degenerate system
  within the approximate finite broadening function (occupation_type)
  applied to determine the occupation numbers.
  This may not be harmful. However, for some systems (free atoms), a different, non-degenerate
  ground state might exist by using a smaller broadening (see keyword occupation_type).

  Checking to see if s.c.f. parameters should be adjusted.

  Total energy components:
  | Sum of eigenvalues            :         -45.63459802 Ha       -1241.78059330 eV
  | XC energy correction          :          -8.83712485 Ha        -240.47040219 eV
  | XC potential correction       :          11.35891864 Ha         309.09190249 eV
  | Free-atom electrostatic energy:         -35.71003035 Ha        -971.71936649 eV
  | Hartree energy correction     :           2.94215583 Ha          80.06013351 eV
  | Entropy correction            :          -0.00010367 Ha          -0.00282095 eV
  | ---------------------------
  | Total energy                  :         -75.88067876 Ha       -2064.81832597 eV
  | Total energy, T -> 0          :         -75.88078243 Ha       -2064.82114692 eV  <-- do not rely on this value for anything but (periodic) metals
  | Electronic free energy        :         -75.88088610 Ha       -2064.82396787 eV

  Derived energy quantities:
  | Kinetic energy                :          75.78294785 Ha        2062.15893256 eV
  | Electrostatic energy          :        -142.82650177 Ha       -3886.50685635 eV
  | Energy correction for multipole
  | error in Hartree potential    :           0.00729259 Ha           0.19844153 eV
  | Sum of eigenvalues per atom                           :        -413.92686443 eV
  | Total energy (T->0) per atom                          :        -688.27371564 eV  <-- do not rely on this value for anything but (periodic) metals
  | Electronic free energy per atom                       :        -688.27465596 eV

  Self-consistency convergence accuracy:
  | Change of charge density      :  0.1018E+00
  | Change of sum of eigenvalues  : -0.3538E+02 eV
  | Change of total energy        :  0.8868E+00 eV

  End self-consistency iteration #     2       :  max(cpu_time)    wall_clock(cpu1)
  | Time for this iteration                    :        0.014 s           0.014 s
  | Charge density update                      :        0.003 s           0.003 s
  | Density mixing                             :        0.001 s           0.001 s
  | Hartree multipole update                   :        0.001 s           0.001 s
  | Hartree multipole summation                :        0.004 s           0.004 s
  | Integration                                :        0.004 s           0.004 s
  | Solution of K.-S. eqns.                    :        0.001 s           0.001 s
  | Total energy evaluation                    :        0.000 s           0.000 s

  Partial memory accounting:
  | Current value for overall tracked memory usage:
  |   Minimum:        0.007 MB (on task 4)
  |   Maximum:        0.008 MB (on task 0)
  |   Average:        0.007 MB
  | Peak value for overall tracked memory usage:
  |   Minimum:        0.082 MB (on task 4 after allocating gradient_basis_wave)
  |   Maximum:        0.083 MB (on task 0 after allocating gradient_basis_wave)
  |   Average:        0.082 MB
  | Largest tracked array allocation so far:
  |   Minimum:        0.057 MB (gradient_basis_wave on task 0)
  |   Maximum:        0.057 MB (gradient_basis_wave on task 0)
  |   Average:        0.057 MB
  Note:  These values currently only include a subset of arrays which are explicitly tracked.
  The "true" memory usage will be greater.
------------------------------------------------------------

------------------------------------------------------------
          Begin self-consistency iteration #    3

  Date     :  20190817, Time     :  153151.901
------------------------------------------------------------
  Evaluating new KS density.
  Integration grid: deviation in total charge (<rho> - N_e) =   0.000000E+00
  Pulay mixing of updated and previous charge densities.
  Renormalizing the density to the exact electron count on the 3D integration grid.
  | Formal number of electrons (from input files) :       9.0000000000
  | Integrated number of electrons on 3D grid     :       8.9991065840
  | Charge integration error                      :      -0.0008934160
  | Normalization factor for density and gradient :       1.0000992783

  Evaluating partitioned Hartree potential by multipole expansion.
  | Original multipole sum: apparent total charge =   0.100000E+01
  | Sum of charges compensated after spline to logarithmic grids =   0.277469E-03
  | Analytical far-field extrapolation by fixed multipoles:
  | Hartree multipole sum: apparent total charge =   0.100000E+01
  Summing up the Hartree potential.
  Time summed over all CPUs for potential: real work        0.026 s, elapsed        0.027 s
  | RMS charge density error from multipole expansion :   0.106875E-01

  Integrating Hamiltonian matrix: batch-based integration.
  Time summed over all CPUs for integration: real work        0.032 s, elapsed        0.034 s

  Updating Kohn-Sham eigenvalues and eigenvectors using ELSI and the ELPA eigensolver.
  Starting ELPA eigensolver
  Finished transformation to standard eigenproblem
  | Time :     0.000 s
  Finished solving standard eigenproblem
  | Time :     0.000 s
  Finished back-transformation of eigenvectors
  | Time :     0.000 s

  Obtaining occupation numbers and chemical potential using ELSI.
  | Chemical potential (Fermi level):   -20.67730658 eV
  Highest occupied state (VBM) at    -20.67730658 eV
  | Occupation number:      1.00000000

  Lowest unoccupied state (CBM) at   -20.67730658 eV
  | Occupation number:      1.00000000

  Overall HOMO-LUMO gap:      0.00000000 eV.
  This system has fractional occupation numbers. Thus, it is a degenerate system
  within the approximate finite broadening function (occupation_type)
  applied to determine the occupation numbers.
  This may not be harmful. However, for some systems (free atoms), a different, non-degenerate
  ground state might exist by using a smaller broadening (see keyword occupation_type).

  Total energy components:
  | Sum of eigenvalues            :         -45.65637270 Ha       -1242.37311247 eV
  | XC energy correction          :          -8.84301267 Ha        -240.63061798 eV
  | XC potential correction       :          11.36665175 Ha         309.30233112 eV
  | Free-atom electrostatic energy:         -35.71003035 Ha        -971.71936649 eV
  | Hartree energy correction     :           2.96218382 Ha          80.60512291 eV
  | Entropy correction            :          -0.00010367 Ha          -0.00282095 eV
  | ---------------------------
  | Total energy                  :         -75.88058016 Ha       -2064.81564291 eV
  | Total energy, T -> 0          :         -75.88068383 Ha       -2064.81846386 eV  <-- do not rely on this value for anything but (periodic) metals
  | Electronic free energy        :         -75.88078750 Ha       -2064.82128480 eV

  Derived energy quantities:
  | Kinetic energy                :          75.83519306 Ha        2063.58059689 eV
  | Electrostatic energy          :        -142.87276055 Ha       -3887.76562182 eV
  | Energy correction for multipole
  | error in Hartree potential    :           0.00761161 Ha           0.20712251 eV
  | Sum of eigenvalues per atom                           :        -414.12437082 eV
  | Total energy (T->0) per atom                          :        -688.27282129 eV  <-- do not rely on this value for anything but (periodic) metals
  | Electronic free energy per atom                       :        -688.27376160 eV

  Self-consistency convergence accuracy:
  | Change of charge density      :  0.1121E-01
  | Change of sum of eigenvalues  : -0.5925E+00 eV
  | Change of total energy        :  0.2683E-02 eV

  End self-consistency iteration #     3       :  max(cpu_time)    wall_clock(cpu1)
  | Time for this iteration                    :        0.013 s           0.014 s
  | Charge density update                      :        0.003 s           0.003 s
  | Density mixing                             :        0.001 s           0.001 s
  | Hartree multipole update                   :        0.001 s           0.001 s
  | Hartree multipole summation                :        0.003 s           0.003 s
  | Integration                                :        0.004 s           0.005 s
  | Solution of K.-S. eqns.                    :        0.001 s           0.001 s
  | Total energy evaluation                    :        0.000 s           0.000 s

  Partial memory accounting:
  | Current value for overall tracked memory usage:
  |   Minimum:        0.007 MB (on task 4)
  |   Maximum:        0.008 MB (on task 0)
  |   Average:        0.007 MB
  | Peak value for overall tracked memory usage:
  |   Minimum:        0.083 MB (on task 4 after allocating gradient_basis_wave)
  |   Maximum:        0.084 MB (on task 0 after allocating gradient_basis_wave)
  |   Average:        0.083 MB
  | Largest tracked array allocation so far:
  |   Minimum:        0.057 MB (gradient_basis_wave on task 0)
  |   Maximum:        0.057 MB (gradient_basis_wave on task 0)
  |   Average:        0.057 MB
  Note:  These values currently only include a subset of arrays which are explicitly tracked.
  The "true" memory usage will be greater.
------------------------------------------------------------

------------------------------------------------------------
          Begin self-consistency iteration #    4

  Date     :  20190817, Time     :  153151.915
------------------------------------------------------------
  Evaluating new KS density.
  Integration grid: deviation in total charge (<rho> - N_e) =  -7.105427E-15
  Pulay mixing of updated and previous charge densities.
  Renormalizing the density to the exact electron count on the 3D integration grid.
  | Formal number of electrons (from input files) :       9.0000000000
  | Integrated number of electrons on 3D grid     :       9.0007454114
  | Charge integration error                      :       0.0007454114
  | Normalization factor for density and gradient :       0.9999171834

  Evaluating partitioned Hartree potential by multipole expansion.
  | Original multipole sum: apparent total charge =   0.100000E+01
  | Sum of charges compensated after spline to logarithmic grids =   0.277203E-03
  | Analytical far-field extrapolation by fixed multipoles:
  | Hartree multipole sum: apparent total charge =   0.100000E+01
  Summing up the Hartree potential.
  Time summed over all CPUs for potential: real work        0.027 s, elapsed        0.027 s
  | RMS charge density error from multipole expansion :   0.106744E-01

  Integrating Hamiltonian matrix: batch-based integration.
  Time summed over all CPUs for integration: real work        0.032 s, elapsed        0.034 s

  Updating Kohn-Sham eigenvalues and eigenvectors using ELSI and the ELPA eigensolver.
  Starting ELPA eigensolver
  Finished transformation to standard eigenproblem
  | Time :     0.000 s
  Finished solving standard eigenproblem
  | Time :     0.000 s
  Finished back-transformation of eigenvectors
  | Time :     0.000 s

  Obtaining occupation numbers and chemical potential using ELSI.
  | Chemical potential (Fermi level):   -20.70035614 eV
  Highest occupied state (VBM) at    -20.70035614 eV
  | Occupation number:      1.00000000

  Lowest unoccupied state (CBM) at   -20.70035614 eV
  | Occupation number:      1.00000000

  Overall HOMO-LUMO gap:      0.00000000 eV.
  This system has fractional occupation numbers. Thus, it is a degenerate system
  within the approximate finite broadening function (occupation_type)
  applied to determine the occupation numbers.
  This may not be harmful. However, for some systems (free atoms), a different, non-degenerate
  ground state might exist by using a smaller broadening (see keyword occupation_type).

  Total energy components:
  | Sum of eigenvalues            :         -45.66723817 Ha       -1242.66877693 eV
  | XC energy correction          :          -8.84140391 Ha        -240.58684132 eV
  | XC potential correction       :          11.36454950 Ha         309.24512612 eV
  | Free-atom electrostatic energy:         -35.71003035 Ha        -971.71936649 eV
  | Hartree energy correction     :           2.97354776 Ha          80.91435130 eV
  | Entropy correction            :          -0.00010367 Ha          -0.00282095 eV
  | ---------------------------
  | Total energy                  :         -75.88057518 Ha       -2064.81550733 eV
  | Total energy, T -> 0          :         -75.88067885 Ha       -2064.81832828 eV  <-- do not rely on this value for anything but (periodic) metals
  | Electronic free energy        :         -75.88078252 Ha       -2064.82114923 eV

  Derived energy quantities:
  | Kinetic energy                :          75.81692978 Ha        2063.08362773 eV
  | Electrostatic energy          :        -142.85610105 Ha       -3887.31229374 eV
  | Energy correction for multipole
  | error in Hartree potential    :           0.00758911 Ha           0.20651013 eV
  | Sum of eigenvalues per atom                           :        -414.22292564 eV
  | Total energy (T->0) per atom                          :        -688.27277609 eV  <-- do not rely on this value for anything but (periodic) metals
  | Electronic free energy per atom                       :        -688.27371641 eV

  Self-consistency convergence accuracy:
  | Change of charge density      :  0.3891E-02
  | Change of sum of eigenvalues  : -0.2957E+00 eV
  | Change of total energy        :  0.1356E-03 eV

  End self-consistency iteration #     4       :  max(cpu_time)    wall_clock(cpu1)
  | Time for this iteration                    :        0.013 s           0.013 s
  | Charge density update                      :        0.003 s           0.003 s
  | Density mixing                             :        0.001 s           0.001 s
  | Hartree multipole update                   :        0.001 s           0.000 s
  | Hartree multipole summation                :        0.004 s           0.004 s
  | Integration                                :        0.004 s           0.004 s
  | Solution of K.-S. eqns.                    :        0.001 s           0.001 s
  | Total energy evaluation                    :        0.000 s           0.000 s

  Partial memory accounting:
  | Current value for overall tracked memory usage:
  |   Minimum:        0.007 MB (on task 4)
  |   Maximum:        0.008 MB (on task 0)
  |   Average:        0.007 MB
  | Peak value for overall tracked memory usage:
  |   Minimum:        0.083 MB (on task 4 after allocating gradient_basis_wave)
  |   Maximum:        0.084 MB (on task 0 after allocating gradient_basis_wave)
  |   Average:        0.083 MB
  | Largest tracked array allocation so far:
  |   Minimum:        0.057 MB (gradient_basis_wave on task 0)
  |   Maximum:        0.057 MB (gradient_basis_wave on task 0)
  |   Average:        0.057 MB
  Note:  These values currently only include a subset of arrays which are explicitly tracked.
  The "true" memory usage will be greater.
------------------------------------------------------------

------------------------------------------------------------
          Begin self-consistency iteration #    5

  Date     :  20190817, Time     :  153151.929
------------------------------------------------------------
  Evaluating new KS density.
  Integration grid: deviation in total charge (<rho> - N_e) =   5.329071E-15
  Pulay mixing of updated and previous charge densities.
  Renormalizing the density to the exact electron count on the 3D integration grid.
  | Formal number of electrons (from input files) :       9.0000000000
  | Integrated number of electrons on 3D grid     :       9.0002210869
  | Charge integration error                      :       0.0002210869
  | Normalization factor for density and gradient :       0.9999754354

  Evaluating partitioned Hartree potential by multipole expansion.
  | Original multipole sum: apparent total charge =   0.100000E+01
  | Sum of charges compensated after spline to logarithmic grids =   0.277254E-03
  | Analytical far-field extrapolation by fixed multipoles:
  | Hartree multipole sum: apparent total charge =   0.100000E+01
  Summing up the Hartree potential.
  Time summed over all CPUs for potential: real work        0.025 s, elapsed        0.026 s
  | RMS charge density error from multipole expansion :   0.106683E-01

  Integrating Hamiltonian matrix: batch-based integration.
  Time summed over all CPUs for integration: real work        0.032 s, elapsed        0.034 s

  Updating Kohn-Sham eigenvalues and eigenvectors using ELSI and the ELPA eigensolver.
  Starting ELPA eigensolver
  Finished transformation to standard eigenproblem
  | Time :     0.000 s
  Finished solving standard eigenproblem
  | Time :     0.000 s
  Finished back-transformation of eigenvectors
  | Time :     0.000 s

  Obtaining occupation numbers and chemical potential using ELSI.
  | Chemical potential (Fermi level):   -20.69407021 eV
  Highest occupied state (VBM) at    -20.69407021 eV
  | Occupation number:      1.00000000

  Lowest unoccupied state (CBM) at   -20.69407021 eV
  | Occupation number:      1.00000000

  Overall HOMO-LUMO gap:      0.00000000 eV.
  This system has fractional occupation numbers. Thus, it is a degenerate system
  within the approximate finite broadening function (occupation_type)
  applied to determine the occupation numbers.
  This may not be harmful. However, for some systems (free atoms), a different, non-degenerate
  ground state might exist by using a smaller broadening (see keyword occupation_type).

  Total energy components:
  | Sum of eigenvalues            :         -45.66575264 Ha       -1242.62835360 eV
  | XC energy correction          :          -8.84177083 Ha        -240.59682577 eV
  | XC potential correction       :          11.36502767 Ha         309.25813790 eV
  | Free-atom electrostatic energy:         -35.71003035 Ha        -971.71936649 eV
  | Hartree energy correction     :           2.97195118 Ha          80.87090624 eV
  | Entropy correction            :          -0.00010367 Ha          -0.00282095 eV
  | ---------------------------
  | Total energy                  :         -75.88057497 Ha       -2064.81550172 eV
  | Total energy, T -> 0          :         -75.88067864 Ha       -2064.81832267 eV  <-- do not rely on this value for anything but (periodic) metals
  | Electronic free energy        :         -75.88078231 Ha       -2064.82114361 eV

  Derived energy quantities:
  | Kinetic energy                :          75.81612031 Ha        2063.06160096 eV
  | Electrostatic energy          :        -142.85492445 Ha       -3887.28027691 eV
  | Energy correction for multipole
  | error in Hartree potential    :           0.00757829 Ha           0.20621588 eV
  | Sum of eigenvalues per atom                           :        -414.20945120 eV
  | Total energy (T->0) per atom                          :        -688.27277422 eV  <-- do not rely on this value for anything but (periodic) metals
  | Electronic free energy per atom                       :        -688.27371454 eV

  Self-consistency convergence accuracy:
  | Change of charge density      :  0.1434E-02
  | Change of sum of eigenvalues  :  0.4042E-01 eV
  | Change of total energy        :  0.5615E-05 eV

  End self-consistency iteration #     5       :  max(cpu_time)    wall_clock(cpu1)
  | Time for this iteration                    :        0.013 s           0.013 s
  | Charge density update                      :        0.003 s           0.003 s
  | Density mixing                             :        0.001 s           0.000 s
  | Hartree multipole update                   :        0.001 s           0.001 s
  | Hartree multipole summation                :        0.003 s           0.003 s
  | Integration                                :        0.004 s           0.005 s
  | Solution of K.-S. eqns.                    :        0.001 s           0.001 s
  | Total energy evaluation                    :        0.000 s           0.000 s

  Partial memory accounting:
  | Current value for overall tracked memory usage:
  |   Minimum:        0.007 MB (on task 4)
  |   Maximum:        0.008 MB (on task 0)
  |   Average:        0.007 MB
  | Peak value for overall tracked memory usage:
  |   Minimum:        0.083 MB (on task 4 after allocating gradient_basis_wave)
  |   Maximum:        0.084 MB (on task 0 after allocating gradient_basis_wave)
  |   Average:        0.083 MB
  | Largest tracked array allocation so far:
  |   Minimum:        0.057 MB (gradient_basis_wave on task 0)
  |   Maximum:        0.057 MB (gradient_basis_wave on task 0)
  |   Average:        0.057 MB
  Note:  These values currently only include a subset of arrays which are explicitly tracked.
  The "true" memory usage will be greater.
------------------------------------------------------------

------------------------------------------------------------
          Begin self-consistency iteration #    6

  Date     :  20190817, Time     :  153151.942
------------------------------------------------------------
  Evaluating new KS density.
  Integration grid: deviation in total charge (<rho> - N_e) =   3.552714E-15
  Pulay mixing of updated and previous charge densities.
  Renormalizing the density to the exact electron count on the 3D integration grid.
  | Formal number of electrons (from input files) :       9.0000000000
  | Integrated number of electrons on 3D grid     :       8.9999746410
  | Charge integration error                      :      -0.0000253590
  | Normalization factor for density and gradient :       1.0000028177

  Evaluating partitioned Hartree potential by multipole expansion.
  | Original multipole sum: apparent total charge =   0.100000E+01
  | Sum of charges compensated after spline to logarithmic grids =   0.277291E-03
  | Analytical far-field extrapolation by fixed multipoles:
  | Hartree multipole sum: apparent total charge =   0.100000E+01
  Summing up the Hartree potential.
  Time summed over all CPUs for potential: real work        0.027 s, elapsed        0.028 s
  | RMS charge density error from multipole expansion :   0.106678E-01

  Integrating Hamiltonian matrix: batch-based integration.
  Time summed over all CPUs for integration: real work        0.033 s, elapsed        0.035 s

  Updating Kohn-Sham eigenvalues and eigenvectors using ELSI and the ELPA eigensolver.
  Starting ELPA eigensolver
  Finished transformation to standard eigenproblem
  | Time :     0.000 s
  Finished solving standard eigenproblem
  | Time :     0.000 s
  Finished back-transformation of eigenvectors
  | Time :     0.000 s

  Obtaining occupation numbers and chemical potential using ELSI.
  | Chemical potential (Fermi level):   -20.69350609 eV
  Highest occupied state (VBM) at    -20.69350609 eV
  | Occupation number:      1.00000000

  Lowest unoccupied state (CBM) at   -20.69350609 eV
  | Occupation number:      1.00000000

  Overall HOMO-LUMO gap:      0.00000000 eV.
  This system has fractional occupation numbers. Thus, it is a degenerate system
  within the approximate finite broadening function (occupation_type)
  applied to determine the occupation numbers.
  This may not be harmful. However, for some systems (free atoms), a different, non-degenerate
  ground state might exist by using a smaller broadening (see keyword occupation_type).

  Total energy components:
  | Sum of eigenvalues            :         -45.66544102 Ha       -1242.61987393 eV
  | XC energy correction          :          -8.84182997 Ha        -240.59843513 eV
  | XC potential correction       :          11.36510468 Ha         309.26023327 eV
  | Free-atom electrostatic energy:         -35.71003035 Ha        -971.71936649 eV
  | Hartree energy correction     :           2.97162175 Ha          80.86194216 eV
  | Entropy correction            :          -0.00010367 Ha          -0.00282095 eV
  | ---------------------------
  | Total energy                  :         -75.88057492 Ha       -2064.81550012 eV
  | Total energy, T -> 0          :         -75.88067858 Ha       -2064.81832106 eV  <-- do not rely on this value for anything but (periodic) metals
  | Electronic free energy        :         -75.88078225 Ha       -2064.82114201 eV

  Derived energy quantities:
  | Kinetic energy                :          75.81716491 Ha        2063.09002602 eV
  | Electrostatic energy          :        -142.85590985 Ha       -3887.30709100 eV
  | Energy correction for multipole
  | error in Hartree potential    :           0.00757529 Ha           0.20613414 eV
  | Sum of eigenvalues per atom                           :        -414.20662464 eV
  | Total energy (T->0) per atom                          :        -688.27277369 eV  <-- do not rely on this value for anything but (periodic) metals
  | Electronic free energy per atom                       :        -688.27371400 eV

  Self-consistency convergence accuracy:
  | Change of charge density      :  0.2036E-03
  | Change of sum of eigenvalues  :  0.8480E-02 eV
  | Change of total energy        :  0.1601E-05 eV

  End self-consistency iteration #     6       :  max(cpu_time)    wall_clock(cpu1)
  | Time for this iteration                    :        0.014 s           0.014 s
  | Charge density update                      :        0.003 s           0.003 s
  | Density mixing                             :        0.001 s           0.001 s
  | Hartree multipole update                   :        0.001 s           0.001 s
  | Hartree multipole summation                :        0.004 s           0.003 s
  | Integration                                :        0.004 s           0.005 s
  | Solution of K.-S. eqns.                    :        0.001 s           0.000 s
  | Total energy evaluation                    :        0.000 s           0.000 s

  Partial memory accounting:
  | Current value for overall tracked memory usage:
  |   Minimum:        0.007 MB (on task 4)
  |   Maximum:        0.008 MB (on task 0)
  |   Average:        0.007 MB
  | Peak value for overall tracked memory usage:
  |   Minimum:        0.083 MB (on task 4 after allocating gradient_basis_wave)
  |   Maximum:        0.084 MB (on task 0 after allocating gradient_basis_wave)
  |   Average:        0.083 MB
  | Largest tracked array allocation so far:
  |   Minimum:        0.057 MB (gradient_basis_wave on task 0)
  |   Maximum:        0.057 MB (gradient_basis_wave on task 0)
  |   Average:        0.057 MB
  Note:  These values currently only include a subset of arrays which are explicitly tracked.
  The "true" memory usage will be greater.
------------------------------------------------------------

------------------------------------------------------------
          Begin self-consistency iteration #    7

  Date     :  20190817, Time     :  153151.956
------------------------------------------------------------
  Evaluating new KS density.
  Integration grid: deviation in total charge (<rho> - N_e) =   3.552714E-15
  Pulay mixing of updated and previous charge densities.
  Renormalizing the density to the exact electron count on the 3D integration grid.
  | Formal number of electrons (from input files) :       9.0000000000
  | Integrated number of electrons on 3D grid     :       9.0000055548
  | Charge integration error                      :       0.0000055548
  | Normalization factor for density and gradient :       0.9999993828

  Evaluating partitioned Hartree potential by multipole expansion.
  | Original multipole sum: apparent total charge =   0.100000E+01
  | Sum of charges compensated after spline to logarithmic grids =   0.277309E-03
  | Analytical far-field extrapolation by fixed multipoles:
  | Hartree multipole sum: apparent total charge =   0.100000E+01
  Summing up the Hartree potential.
  Time summed over all CPUs for potential: real work        0.026 s, elapsed        0.027 s
  | RMS charge density error from multipole expansion :   0.106675E-01

  Integrating Hamiltonian matrix: batch-based integration.
  Time summed over all CPUs for integration: real work        0.033 s, elapsed        0.035 s

  Updating Kohn-Sham eigenvalues and eigenvectors using ELSI and the ELPA eigensolver.
  Starting ELPA eigensolver
  Finished transformation to standard eigenproblem
  | Time :     0.000 s
  Finished solving standard eigenproblem
  | Time :     0.001 s
  Finished back-transformation of eigenvectors
  | Time :     0.000 s

  Obtaining occupation numbers and chemical potential using ELSI.
  | Chemical potential (Fermi level):   -20.69321237 eV
  Highest occupied state (VBM) at    -20.69321237 eV
  | Occupation number:      1.00000000

  Lowest unoccupied state (CBM) at   -20.69321237 eV
  | Occupation number:      1.00000000

  Overall HOMO-LUMO gap:      0.00000000 eV.
  This system has fractional occupation numbers. Thus, it is a degenerate system
  within the approximate finite broadening function (occupation_type)
  applied to determine the occupation numbers.
  This may not be harmful. However, for some systems (free atoms), a different, non-degenerate
  ground state might exist by using a smaller broadening (see keyword occupation_type).

  Total energy components:
  | Sum of eigenvalues            :         -45.66532711 Ha       -1242.61677418 eV
  | XC energy correction          :          -8.84186655 Ha        -240.59943029 eV
  | XC potential correction       :          11.36515199 Ha         309.26152074 eV
  | Free-atom electrostatic energy:         -35.71003035 Ha        -971.71936649 eV
  | Hartree energy correction     :           2.97149712 Ha          80.85855080 eV
  | Entropy correction            :          -0.00010367 Ha          -0.00282095 eV
  | ---------------------------
  | Total energy                  :         -75.88057489 Ha       -2064.81549942 eV
  | Total energy, T -> 0          :         -75.88067856 Ha       -2064.81832037 eV  <-- do not rely on this value for anything but (periodic) metals
  | Electronic free energy        :         -75.88078223 Ha       -2064.82114132 eV

  Derived energy quantities:
  | Kinetic energy                :          75.81760935 Ha        2063.10211986 eV
  | Electrostatic energy          :        -142.85631769 Ha       -3887.31818899 eV
  | Energy correction for multipole
  | error in Hartree potential    :           0.00757285 Ha           0.20606771 eV
  | Sum of eigenvalues per atom                           :        -414.20559139 eV
  | Total energy (T->0) per atom                          :        -688.27277346 eV  <-- do not rely on this value for anything but (periodic) metals
  | Electronic free energy per atom                       :        -688.27371377 eV

  Self-consistency convergence accuracy:
  | Change of charge density      :  0.7373E-04
  | Change of sum of eigenvalues  :  0.3100E-02 eV
  | Change of total energy        :  0.6953E-06 eV

  End self-consistency iteration #     7       :  max(cpu_time)    wall_clock(cpu1)
  | Time for this iteration                    :        0.014 s           0.014 s
  | Charge density update                      :        0.003 s           0.003 s
  | Density mixing                             :        0.001 s           0.001 s
  | Hartree multipole update                   :        0.001 s           0.001 s
  | Hartree multipole summation                :        0.004 s           0.003 s
  | Integration                                :        0.004 s           0.005 s
  | Solution of K.-S. eqns.                    :        0.001 s           0.001 s
  | Total energy evaluation                    :        0.000 s           0.000 s

  Partial memory accounting:
  | Current value for overall tracked memory usage:
  |   Minimum:        0.007 MB (on task 4)
  |   Maximum:        0.008 MB (on task 0)
  |   Average:        0.007 MB
  | Peak value for overall tracked memory usage:
  |   Minimum:        0.083 MB (on task 4 after allocating gradient_basis_wave)
  |   Maximum:        0.084 MB (on task 0 after allocating gradient_basis_wave)
  |   Average:        0.083 MB
  | Largest tracked array allocation so far:
  |   Minimum:        0.057 MB (gradient_basis_wave on task 0)
  |   Maximum:        0.057 MB (gradient_basis_wave on task 0)
  |   Average:        0.057 MB
  Note:  These values currently only include a subset of arrays which are explicitly tracked.
  The "true" memory usage will be greater.
------------------------------------------------------------

------------------------------------------------------------
          Begin self-consistency iteration #    8

  Date     :  20190817, Time     :  153151.970
------------------------------------------------------------
  Evaluating new KS density.
  Integration grid: deviation in total charge (<rho> - N_e) =   0.000000E+00
  Pulay mixing of updated and previous charge densities.
  Renormalizing the density to the exact electron count on the 3D integration grid.
  | Formal number of electrons (from input files) :       9.0000000000
  | Integrated number of electrons on 3D grid     :       9.0000016345
  | Charge integration error                      :       0.0000016345
  | Normalization factor for density and gradient :       0.9999998184

  Evaluating partitioned Hartree potential by multipole expansion.
  | Original multipole sum: apparent total charge =   0.100000E+01
  | Sum of charges compensated after spline to logarithmic grids =   0.277307E-03
  | Analytical far-field extrapolation by fixed multipoles:
  | Hartree multipole sum: apparent total charge =   0.100000E+01
  Summing up the Hartree potential.
  Time summed over all CPUs for potential: real work        0.027 s, elapsed        0.028 s
  | RMS charge density error from multipole expansion :   0.106674E-01

  Integrating Hamiltonian matrix: batch-based integration.
  Time summed over all CPUs for integration: real work        0.033 s, elapsed        0.035 s

  Updating Kohn-Sham eigenvalues and eigenvectors using ELSI and the ELPA eigensolver.
  Starting ELPA eigensolver
  Finished transformation to standard eigenproblem
  | Time :     0.000 s
  Finished solving standard eigenproblem
  | Time :     0.001 s
  Finished back-transformation of eigenvectors
  | Time :     0.000 s

  Obtaining occupation numbers and chemical potential using ELSI.
  | Chemical potential (Fermi level):   -20.69333146 eV
  Highest occupied state (VBM) at    -20.69333146 eV
  | Occupation number:      1.00000000

  Lowest unoccupied state (CBM) at   -20.69333146 eV
  | Occupation number:      1.00000000

  Overall HOMO-LUMO gap:      0.00000000 eV.
  This system has fractional occupation numbers. Thus, it is a degenerate system
  within the approximate finite broadening function (occupation_type)
  applied to determine the occupation numbers.
[...]
  | XC energy correction          :          -8.84185856 Ha        -240.59921298 eV
  | XC potential correction       :          11.36514156 Ha         309.26123676 eV
  | Free-atom electrostatic energy:         -35.71003035 Ha        -971.71936649 eV
  | Hartree energy correction     :           2.97155038 Ha          80.86000005 eV
  | Entropy correction            :          -0.00010367 Ha          -0.00282095 eV
  | ---------------------------
  | Total energy                  :         -75.88057489 Ha       -2064.81549933 eV
  | Total energy, T -> 0          :         -75.88067855 Ha       -2064.81832028 eV  <-- do not rely on this value for anything but (periodic) metals
  | Electronic free energy        :         -75.88078222 Ha       -2064.82114122 eV

  Derived energy quantities:
  | Kinetic energy                :          75.81753015 Ha        2063.09996470 eV
  | Electrostatic energy          :        -142.85624647 Ha       -3887.31625104 eV
  | Energy correction for multipole
  | error in Hartree potential    :           0.00757283 Ha           0.20606717 eV
  | Sum of eigenvalues per atom                           :        -414.20605222 eV
  | Total energy (T->0) per atom                          :        -688.27277343 eV  <-- do not rely on this value for anything but (periodic) metals
  | Electronic free energy per atom                       :        -688.27371374 eV

  Self-consistency convergence accuracy:
  | Change of charge density      :  0.7991E-05
  | Change of sum of eigenvalues  : -0.1382E-02 eV
  | Change of total energy        :  0.9236E-07 eV

  End self-consistency iteration #     8       :  max(cpu_time)    wall_clock(cpu1)
  | Time for this iteration                    :        0.014 s           0.014 s
  | Charge density update                      :        0.003 s           0.003 s
  | Density mixing                             :        0.001 s           0.001 s
  | Hartree multipole update                   :        0.001 s           0.001 s
  | Hartree multipole summation                :        0.004 s           0.004 s
  | Integration                                :        0.004 s           0.004 s
  | Solution of K.-S. eqns.                    :        0.001 s           0.001 s
  | Total energy evaluation                    :        0.000 s           0.000 s

  Partial memory accounting:
  | Current value for overall tracked memory usage:
  |   Minimum:        0.007 MB (on task 4)
  |   Maximum:        0.008 MB (on task 0)
  |   Average:        0.007 MB
  | Peak value for overall tracked memory usage:
  |   Minimum:        0.083 MB (on task 4 after allocating gradient_basis_wave)
  |   Maximum:        0.084 MB (on task 0 after allocating gradient_basis_wave)
  |   Average:        0.083 MB
  | Largest tracked array allocation so far:
  |   Minimum:        0.057 MB (gradient_basis_wave on task 0)
  |   Maximum:        0.057 MB (gradient_basis_wave on task 0)
  |   Average:        0.057 MB
  Note:  These values currently only include a subset of arrays which are explicitly tracked.
  The "true" memory usage will be greater.
------------------------------------------------------------

------------------------------------------------------------
          Begin self-consistency iteration #    9

  Date     :  20190817, Time     :  153151.984
------------------------------------------------------------
  Evaluating new KS density.
  Integration grid: deviation in total charge (<rho> - N_e) =   1.065814E-14
  Pulay mixing of updated and previous charge densities.
  Renormalizing the density to the exact electron count on the 3D integration grid.
  | Formal number of electrons (from input files) :       9.0000000000
  | Integrated number of electrons on 3D grid     :       8.9999993610
  | Charge integration error                      :      -0.0000006390
  | Normalization factor for density and gradient :       1.0000000710

  Evaluating partitioned Hartree potential by multipole expansion.
  | Original multipole sum: apparent total charge =   0.100000E+01
  | Sum of charges compensated after spline to logarithmic grids =   0.277308E-03
  | Analytical far-field extrapolation by fixed multipoles:
  | Hartree multipole sum: apparent total charge =   0.100000E+01
  Summing up the Hartree potential.
  Time summed over all CPUs for potential: real work        0.027 s, elapsed        0.027 s
  | RMS charge density error from multipole expansion :   0.106674E-01

  Integrating Hamiltonian matrix: batch-based integration.
  Time summed over all CPUs for integration: real work        0.032 s, elapsed        0.034 s

  Updating Kohn-Sham eigenvalues and eigenvectors using ELSI and the ELPA eigensolver.
  Starting ELPA eigensolver
  Finished transformation to standard eigenproblem
  | Time :     0.000 s
  Finished solving standard eigenproblem
  | Time :     0.000 s
  Finished back-transformation of eigenvectors
  | Time :     0.000 s

  Obtaining occupation numbers and chemical potential using ELSI.
  | Chemical potential (Fermi level):   -20.69329688 eV
  Highest occupied state (VBM) at    -20.69329688 eV
  | Occupation number:      1.00000000

  Lowest unoccupied state (CBM) at   -20.69329688 eV
  | Occupation number:      1.00000000

  Overall HOMO-LUMO gap:      0.00000000 eV.
  This system has fractional occupation numbers. Thus, it is a degenerate system
  within the approximate finite broadening function (occupation_type)
  applied to determine the occupation numbers.
  This may not be harmful. However, for some systems (free atoms), a different, non-degenerate
  ground state might exist by using a smaller broadening (see keyword occupation_type).

  Total energy components:
  | Sum of eigenvalues            :         -45.66536298 Ha       -1242.61775035 eV
  | XC energy correction          :          -8.84186086 Ha        -240.59927568 eV
  | XC potential correction       :          11.36514457 Ha         309.26131878 eV
  | Free-atom electrostatic energy:         -35.71003035 Ha        -971.71936649 eV
  | Hartree energy correction     :           2.97153474 Ha          80.85957439 eV
  | Entropy correction            :          -0.00010367 Ha          -0.00282095 eV
  | ---------------------------
  | Total energy                  :         -75.88057489 Ha       -2064.81549935 eV
  | Total energy, T -> 0          :         -75.88067856 Ha       -2064.81832030 eV  <-- do not rely on this value for anything but (periodic) metals
  | Electronic free energy        :         -75.88078222 Ha       -2064.82114124 eV

  Derived energy quantities:
  | Kinetic energy                :          75.81755249 Ha        2063.10057271 eV
  | Electrostatic energy          :        -142.85626651 Ha       -3887.31679637 eV
  | Energy correction for multipole
  | error in Hartree potential    :           0.00757283 Ha           0.20606710 eV
  | Sum of eigenvalues per atom                           :        -414.20591678 eV
  | Total energy (T->0) per atom                          :        -688.27277343 eV  <-- do not rely on this value for anything but (periodic) metals
  | Electronic free energy per atom                       :        -688.27371375 eV

  Self-consistency convergence accuracy:
  | Change of charge density      :  0.2619E-05
  | Change of sum of eigenvalues  :  0.4063E-03 eV
  | Change of total energy        : -0.1994E-07 eV

  Writing Kohn-Sham eigenvalues.

  State    Occupation    Eigenvalue [Ha]    Eigenvalue [eV]
      1       2.00000         -19.300146         -525.18369
      2       2.00000          -1.414551          -38.49189
      3       2.00000          -0.937488          -25.51034
      4       2.00000          -0.800265          -21.77631
      5       1.00000          -0.760465          -20.69330
      6       0.00000          -0.310086           -8.43787
      7       0.00000          -0.236253           -6.42876
      8       0.00000          -0.011630           -0.31648
      9       0.00000          -0.003673           -0.09994
     10       0.00000           0.056912            1.54864
     11       0.00000           0.211199            5.74701

  Highest occupied state (VBM) at    -20.69329688 eV
  | Occupation number:      1.00000000

  Lowest unoccupied state (CBM) at   -20.69329688 eV
  | Occupation number:      1.00000000

  Overall HOMO-LUMO gap:      0.00000000 eV.
  This system has fractional occupation numbers. Thus, it is a degenerate system
  within the approximate finite broadening function (occupation_type)
  applied to determine the occupation numbers.
  This may not be harmful. However, for some systems (free atoms), a different, non-degenerate
  ground state might exist by using a smaller broadening (see keyword occupation_type).

  Self-consistency cycle converged.

  End self-consistency iteration #     9       :  max(cpu_time)    wall_clock(cpu1)
  | Time for this iteration                    :        0.014 s           0.014 s
  | Charge density update                      :        0.003 s           0.003 s
  | Density mixing                             :        0.001 s           0.001 s
  | Hartree multipole update                   :        0.001 s           0.001 s
  | Hartree multipole summation                :        0.004 s           0.004 s
  | Integration                                :        0.004 s           0.004 s
  | Solution of K.-S. eqns.                    :        0.001 s           0.001 s
  | Total energy evaluation                    :        0.000 s           0.000 s

  Partial memory accounting:
  | Current value for overall tracked memory usage:
  |   Minimum:        0.007 MB (on task 4)
  |   Maximum:        0.008 MB (on task 0)
  |   Average:        0.007 MB
  | Peak value for overall tracked memory usage:
  |   Minimum:        0.083 MB (on task 4 after allocating gradient_basis_wave)
  |   Maximum:        0.084 MB (on task 0 after allocating gradient_basis_wave)
  |   Average:        0.083 MB
  | Largest tracked array allocation so far:
  |   Minimum:        0.057 MB (gradient_basis_wave on task 0)
  |   Maximum:        0.057 MB (gradient_basis_wave on task 0)
  |   Average:        0.057 MB
  Note:  These values currently only include a subset of arrays which are explicitly tracked.
  The "true" memory usage will be greater.
------------------------------------------------------------

  Energy and forces in a compact form:
  | Total energy uncorrected      :         -0.206481549934879E+04 eV
  | Total energy corrected        :         -0.206481832029671E+04 eV  <-- do not rely on this value for anything but (periodic) metals
  | Electronic free energy        :         -0.206482114124462E+04 eV

  ------------------------------------ 
  Start decomposition of the XC Energy 
  ------------------------------------ 
  X and C from original XC functional choice 
  Hartree-Fock Energy :          0.000000000 Ha              0.000000000 eV
  X Energy            :         -8.553019101 Ha           -232.739491391 eV
  C Energy            :         -0.288841764 Ha             -7.859784294 eV
  Total XC Energy     :         -8.841860865 Ha           -240.599275685 eV
  ------------------------------------ 
  LDA X and C from self-consistent density 
  X Energy LDA        :         -7.748496043 Ha           -210.847305126 eV
  C Energy LDA        :         -0.608323229 Ha            -16.553317295 eV
  ------------------------------------ 
  End decomposition of the XC Energy 
  ------------------------------------ 

------------------------------------------------------------
   
  ESP charge fitting starts.
  | Calculation :  00000001  of  00000001
  | Full density
  Computing multipole expansion for total density.
  | Original multipole sum: apparent total charge =   0.100000E+01
  | Sum of charges compensated after spline to logarithmic grids =   0.277308E-03
  Generating points for esp charges.
  Partitioning the integration grid into batches with parallel hashing+maxmin method.
  | Number of batches:        9
  | Maximal batch size:     124
  | Minimal batch size:      60
  | Average batch size:     108.111
  | Standard deviation of batch sizes:      25.523

  Integration load balanced across     8 MPI tasks.
  Work distribution over tasks is as follows:
  Initializing partition tables, free-atom densities, potentials, etc. across the integration grid (initialize_grid_storage).
  | Original list of interatomic distances with           3 x          3 entries is created.
  | Net number of integration points:      973
  | of which are non-zero points    :      973
  Summing up potential from multipole expanded  density.
  Summing up the Hartree potential.
  Time summed over all CPUs for potential: real work        0.008 s, elapsed        0.013 s
  Fitting esp charges to potential.
  |
  | ESP charges fitted to the electrostatic potential :
  |
  | Atom         1: O, ESP charge:      0.05015308
  |
  | Atom         2: H, ESP charge:      0.47484998
  |
  | Atom         3: H, ESP charge:      0.47499693

  RRMS:       0.00064092

  Done.
  |------------------------------------------------------
  | Final ELSI Output
  |------------------------------------------------------
  |
  | Physical Properties
  |   Number of electrons       :        0.90000000E+01
  |   Number of spins           :                     1
  |   Number of k-points        :                     1
  |   Number of states          :                    11
  |
  | Matrix Properties
  |   Matrix format             :           BLACS_DENSE
  |   Number of basis functions :                    24
  |   Matrix sparsity           :        0.45833333E+00
  |
  | Computational Details
  |   Parallel mode             :            MULTI_PROC
  |   Number of MPI tasks       :                     8
  |   Solver requested          :                  ELPA
  |   Number of ELSI calls      :                    10
  |
  |------------------------------------------------------
  | ELSI Project (c)  elsi-interchange.org
  |------------------------------------------------------

------------------------------------------------------------------------------
  Final output of selected total energy values:

  The following output summarizes some interesting total energy values
  at the end of a run (AFTER all relaxation, molecular dynamics, etc.).

  | Total energy of the DFT / Hartree-Fock s.c.f. calculation      :          -2064.815499349 eV
  | Final zero-broadening corrected energy (caution - metals only) :          -2064.818320297 eV
  | For reference only, the value of 1 Hartree used in FHI-aims is :             27.211384500 eV

  Before relying on these values, please be sure to understand exactly which
  total energy value is referred to by a given number. Different objects may
  all carry the same name 'total energy'. Definitions:

  Total energy of the DFT / Hartree-Fock s.c.f. calculation:
  | Note that this energy does not include ANY quantities calculated after the
  | s.c.f. cycle, in particular not ANY RPA, MP2, etc. many-body perturbation terms.

  Final zero-broadening corrected energy:
  | For metallic systems only, a broadening of the occupation numbers at the Fermi
  | level can be extrapolated back to zero broadening by an electron-gas inspired
  | formula. For all systems that are not real metals, this value can be
  | meaningless and should be avoided.

------------------------------------------------------------------------------
  Methods described in the following list of references were used in this FHI-aims run.
  If you publish the results, please make sure to cite these reference if they apply.
  FHI-aims is an academic code, and for our developers (often, Ph.D. students
  and postdocs), scientific credit in the community is essential.
  Thank you for helping us!

  For any use of FHI-aims, please cite:

    Volker Blum, Ralf Gehrke, Felix Hanke, Paula Havu, Ville Havu,
    Xinguo Ren, Karsten Reuter, and Matthias Scheffler
    'Ab initio molecular simulations with numeric atom-centered orbitals'
    Computer Physics Communications 180, 2175-2196 (2009)
    http://dx.doi.org/10.1016/j.cpc.2009.06.022


  The ELSI infrastructure was used in your run to solve the Kohn-Sham electronic structure.
  Please check out http://elsi-interchange.org to learn more.
  If scalability is important for your project, please acknowledge ELSI by citing:

    V. W-z. Yu, F. Corsetti, A. Garcia, W. P. Huhn, M. Jacquelin, W. Jia,
    B. Lange, L. Lin, J. Lu, W. Mi, A. Seifitokaldani, A. Vazquez-Mayagoitia,
    C. Yang, H. Yang, and V. Blum
    'ELSI: A unified software interface for Kohn-Sham electronic structure solvers'
    Computer Physics Communications 222, 267-285 (2018).
    http://dx.doi.org/10.1016/j.cpc.2017.09.007


  For the real-space grid partitioning and parallelization used in this calculation, please cite:

    Ville Havu, Volker Blum, Paula Havu, and Matthias Scheffler,
    'Efficient O(N) integration for all-electron electronic structure calculation'
    'using numerically tabulated basis functions'
    Journal of Computational Physics 228, 8367-8379 (2009).
    http://dx.doi.org/10.1016/j.jcp.2009.08.008

  Of course, there are many other important community references, e.g., those cited in the
  above references. Our list is limited to references that describe implementations in the
  FHI-aims code. The reason is purely practical (length of this list) - please credit others as well.

------------------------------------------------------------
          Leaving FHI-aims.
          Date     :  20190817, Time     :  153152.005

          Computational steps:
          | Number of self-consistency cycles          :            9
          | Number of SCF (re)initializations          :            1

          Detailed time accounting                     :  max(cpu_time)    wall_clock(cpu1)
          | Total time                                 :        0.293 s           0.294 s
          | Preparation time                           :        0.088 s           0.088 s
          | Boundary condition initalization           :        0.000 s           0.000 s
          | Grid partitioning                          :        0.004 s           0.005 s
          | Preloading free-atom quantities on grid    :        0.002 s           0.002 s
          | Free-atom superposition energy             :        0.002 s           0.001 s
          | Total time for integrations                :        0.046 s           0.047 s
          | Total time for solution of K.-S. equations :        0.010 s           0.011 s
          | Total time for density update              :        0.027 s           0.027 s
          | Total time for mixing                      :        0.005 s           0.008 s
          | Total time for Hartree multipole update    :        0.008 s           0.008 s
          | Total time for Hartree multipole sum       :        0.032 s           0.032 s
          | Total time for total energy evaluation     :        0.001 s           0.001 s

          Partial memory accounting:
          | Residual value for overall tracked memory usage across tasks:     0.000000 MB (should be 0.000000 MB)
          | Peak values for overall tracked memory usage:
          |   Minimum:        0.083 MB (on task 4 after allocating gradient_basis_wave)
          |   Maximum:        0.084 MB (on task 0 after allocating gradient_basis_wave)
          |   Average:        0.083 MB
          | Largest tracked array allocation:
          |   Minimum:        0.057 MB (gradient_basis_wave on task 0)
          |   Maximum:        0.057 MB (gradient_basis_wave on task 0)
          |   Average:        0.057 MB
          Note:  These values currently only include a subset of arrays which are explicitly tracked.
          The "true" memory usage will be greater.

          Have a nice day.
------------------------------------------------------------
