  MPI-parallelism will be employed.
------------------------------------------------------------
          Invoking FHI-aims ...

          When using FHI-aims, please cite the following reference:

          Volker Blum, Ralf Gehrke, Felix Hanke, Paula Havu,
          Ville Havu, Xinguo Ren, Karsten Reuter, and Matthias Scheffler,
          'Ab Initio Molecular Simulations with Numeric Atom-Centered Orbitals',
          Computer Physics Communications 180, 2175-2196 (2009)

          For any questions about FHI-aims, please visit the aimsclub website
          with its forums and wiki. Contributions to both the forums and the
          wiki are warmly encouraged - they are for you, and everyone is welcome there.

------------------------------------------------------------



  Date     :  20190817, Time     :  153139.217
  Time zero on CPU 1             :   0.291630000000000E-01  s.
  Internal wall clock time zero  :           335287899.217  s.

  FHI-aims created a unique identifier for this run for later identification
  aims_uuid : A77A345D-5D2B-42EA-AAE6-180CF5FC02DC

  Build configuration of the current instance of FHI-aims
  -------------------------------------------------------
  FHI-aims version      : 190813
  Commit number         : 3da7baeb3
  CMake host system     : Linux-4.4.180-94.97-default
  CMake version         : 3.5.2
  Fortran compiler      : /mpcdf/soft/SLE_12_SP3/packages/x86_64/intel_parallel_studio/2018.4/compilers_and_libraries_2018.5.274/linux/mpi/bin64/mpiifort (Intel) version 18.0.5.20180823
  Fortran compiler flags: -O3 -ip -fp-model precise
  C compiler            : /mpcdf/soft/SLE_12_SP3/packages/skylake/intel/18.0.5/bin/icc (Intel) version 18.0.5.20180823
  C compiler flags      : -O3 -ip -fp-model precise
  Architecture          :
  Using MPI
  Using Scalapack
  Using C files
  Using SPGlib
  Using i-PI
  Linking against: /mpcdf/soft/SLE_12_SP3/packages/x86_64/anaconda/3.5.1.0/lib/libmkl_intel_lp64.so
                   /mpcdf/soft/SLE_12_SP3/packages/x86_64/anaconda/3.5.1.0/lib/libmkl_sequential.so
                   /mpcdf/soft/SLE_12_SP3/packages/x86_64/anaconda/3.5.1.0/lib/libmkl_core.so
                   /mpcdf/soft/SLE_12_SP3/packages/x86_64/anaconda/3.5.1.0/lib/libmkl_blacs_intelmpi_lp64.so
                   /mpcdf/soft/SLE_12_SP3/packages/x86_64/anaconda/3.5.1.0/lib/libmkl_scalapack_lp64.so

  Using        8 parallel tasks.
  Task        0 on host co1631 reporting.
  Task        1 on host co1631 reporting.
  Task        2 on host co1631 reporting.
  Task        3 on host co1631 reporting.
  Task        4 on host co1631 reporting.
  Task        5 on host co1631 reporting.
  Task        6 on host co1631 reporting.
  Task        7 on host co1631 reporting.

  Performing system and environment tests:
  | Environment variable OMP_NUM_THREADS correctly set to 1.
  | Maximum stacksize for task 0: unlimited
  | Maximum stacksize for task 1: unlimited
  | Maximum stacksize for task 2: unlimited
  | Maximum stacksize for task 3: unlimited
  | Maximum stacksize for task 4: unlimited
  | Maximum stacksize for task 5: unlimited
  | Maximum stacksize for task 6: unlimited
  | Maximum stacksize for task 7: unlimited
  | Current stacksize for task 0: unlimited
  | Current stacksize for task 1: unlimited
  | Current stacksize for task 2: unlimited
  | Current stacksize for task 3: unlimited
  | Current stacksize for task 4: unlimited
  | Current stacksize for task 5: unlimited
  | Current stacksize for task 6: unlimited
  | Current stacksize for task 7: unlimited
  | Checking for scalapack...
  | Testing pdtran()...
  | All pdtran() tests passed.

  Obtaining array dimensions for all initial allocations:
  
  -----------------------------------------------------------------------
  Parsing control.in (first pass over file, find array dimensions only).
  The contents of control.in will be repeated verbatim below
  unless switched off by setting 'verbatim_writeout .false.' .
  in the first line of control.in .
  -----------------------------------------------------------------------
  
  #  Volker Blum, FHI 2007 : Input file for FHI-aims code project
  #
  #  Input file control.in : All computational details for structure geometry.in
  #
  #  General computational parameters:
  #
    xc             pbe
    relativistic   none
  #
    occupation_type gaussian 0.01
    mixer          pulay
      n_max_pulay       10
      charge_mix_param  0.6
    sc_accuracy_rho  1E-6
    sc_accuracy_eev  1E-4
    sc_accuracy_etot 1E-6
    sc_iter_limit 1
  #
    KS_method      serial
      empty_states   3
  #
    compute_forces .true.
  
    postprocess_anyway 1
  
  ################################################################################
  #
  #  FHI-aims code project
  #  VB, Fritz-Haber Institut, 2007
  #
  #  Suggested "safe" defaults for H atom (to be pasted into control.in file)
  #  Basis constructed for a non-relativistic H2 molecule using the
  #  PW-LDA functional.
  #
  #  Constructed for dimers: 0.5 A, 0.7 A, 1.0 A, 1.5 A, 2.5 A
  #
  ################################################################################
    species        H
  #     global species definitions
      nucleus             1
      l_hartree           4
      cut_pot             3.5  2.0  1.0
      logarithmic         0.00010000 100.00  1.0123
      radial_base         24 7.0
      radial_multiplier   2
      angular_grids       specified
        division   0.2783  110
        division   0.3822  194
        division   0.5626  302
  #      division   0.5922  434
  #      division   0.6227  590
  #      division   0.7206  770
  #      outer_grid  770
        outer_grid  302
  ################################################################################
  #
  #  Definition of "minimal" basis
  #
  ################################################################################
  #     valence basis states
      valence      1  s   1.
  #     ion occupancy
      ion_occ      1  s   0.5
  ################################################################################
  #
  #  Suggested additional basis functions. For production calculations,
  #  uncomment them one after another (the most important basis functions are
  #  listed first).
  #
  ################################################################################
  #  "First tier" - improvements: -1014.90 meV to -62.69 meV
       hydro 2 s 2.1
       hydro 2 p 3.5
  #  "Second tier" - improvements: -12.89 meV to -1.83 meV
  #     hydro 1 s 0.85
  #     hydro 2 p 3.7
  #     hydro 2 s 1.2
  #     hydro 3 d 7
  #  "Third tier" - improvements: -0.25 meV to -0.12 meV
  #     hydro 4 f 11.2
  #     hydro 3 p 4.8
  #     hydro 4 d 9
  #     hydro 3 s 3.2
  
  -----------------------------------------------------------------------
  Completed first pass over input file control.in .
  -----------------------------------------------------------------------
  
  
  -----------------------------------------------------------------------
  Parsing geometry.in (first pass over file, find array dimensions only).
  The contents of geometry.in will be repeated verbatim below
  unless switched off by setting 'verbatim_writeout .false.' .
  in the first line of geometry.in .
  -----------------------------------------------------------------------
  
  atom    0.0  0.0 0.0  H
  atom    1.0  0.0 0.0  H
  atom    2.0  0.0 0.0  H
  atom    3.0  0.0 0.0  H
  atom    4.0  0.0 0.0  H
  atom    5.0  0.0 0.0  H
  atom    6.0  0.0 0.0  H
  atom    7.0  0.0 0.0  H
  atom    8.0  0.0 0.0  H
  atom    9.0  0.0 0.0  H
  atom   10.0  0.0 0.0  H
  atom   11.0  0.0 0.0  H
  atom   12.0  0.0 0.0  H
  atom   13.0  0.0 0.0  H
  atom   14.0  0.0 0.0  H
  atom   15.0  0.0 0.0  H
  atom   16.0  0.0 0.0  H
  atom   17.0  0.0 0.0  H
  atom   18.0  0.0 0.0  H
  atom   19.0  0.0 0.0  H
  
  -----------------------------------------------------------------------
  Completed first pass over input file geometry.in .
  -----------------------------------------------------------------------
  

  Basic array size parameters:
  | Number of species                 :        1
  | Number of atoms                   :       20
  | Max. basis fn. angular momentum   :        1
  | Max. atomic/ionic basis occupied n:        1
  | Max. number of basis fn. types    :        2
  | Max. radial fns per species/type  :        2
  | Max. logarithmic grid size        :     1131
  | Max. radial integration grid size :       49
  | Max. angular integration grid size:      302
  | Max. angular grid division number :        8
  | Radial grid for Hartree potential :     1131
  | Number of spin channels           :        1

------------------------------------------------------------
          Reading file control.in.
------------------------------------------------------------
  XC: Using PBE gradient-corrected functionals.
  Non-relativistic treatment of kinetic energy.
  Occupation type: Gaussian broadening, width =   0.100000E-01 eV.
  Using pulay charge density mixing.
  Pulay mixing - number of memorized iterations:   10
  Charge density mixing - mixing parameter:     0.6000
  Convergence accuracy of self-consistent charge density:  0.1000E-05
  Convergence accuracy of sum of eigenvalues:  0.1000E-03
  Convergence accuracy of total energy:  0.1000E-05
  Maximum number of s.-c. iterations  :     1
  Kohn-Sham eigenvalues and eigenfunctions calculated by LAPACK via ELSI.
  Number of empty states per atom:        3
  Forces will be computed.
  Postprocessing will be performed even if SCF does not converge.
 
  Reading configuration options for species H                   .
  | Found nuclear charge :   1.0000
  | Found l_max for Hartree potential  :   4
  | Found cutoff potl. onset [A], width [A], scale factor :    3.50000    2.00000    1.00000
  | Found logarithmic grid data [bohr] : 0.1000E-03 0.1000E+03 0.1012E+01
  | Found data for basic radial integration grid :    24 points, outermost radius =    7.000 A
  | Found multiplier for basic radial grid :   2
  | Found angular grid specification: user-specified.
  | Specified grid contains     4 separate shells.
  | Check grid settings after all constraints further below.
  | Found free-atom valence shell :  1 s   1.000
  | No ionic wave fns used. Skipping ion_occ.
  | Found hydrogenic basis function :  2 s   2.100
  | Found hydrogenic basis function :  2 p   3.500
  Species H                   : Missing cutoff potential type.
  Defaulting to exp(1/x)/(1-x)^2 type cutoff potential.
  Species H : On-site basis accuracy parameter (for Gram-Schmidt orthonormalisation) not specified.
  Using default value basis_acc =  0.1000000E-03.
  Species H                   : Using default innermost maximum threshold i_radial=  2 for radial functions.
  Species H                   : Default cutoff onset for free atom density etc. : 0.35000000E+01 AA.
  Species H                   : Basic radial grid will be enhanced according to radial_multiplier =   2, to contain    49 grid points.
 
  Finished reading input file 'control.in'. Consistency checks are next.
 
  MPI_IN_PLACE appears to work with this MPI implementation.
  | Keeping use_mpi_in_place .true. (see manual).
  Target number of points in a grid batch is not set. Defaulting to  100
  Method for grid partitioning is not set. Defaulting to parallel hash+maxmin partitioning.
  Batch size limit is not set. Defaulting to    200
  By default, will store active basis functions for each batch.
  If in need of memory, prune_basis_once .false. can be used to disable this option.
  communication_type for Hartree potential was not specified.
  Defaulting to calc_hartree .
  Pulay mixer: Number of initial linear mixing iterations not set.
  Defaulting to    0 iterations.
  Work space size for distributed Hartree potential not set.
  Defaulting to   0.200000E+03 MB.
  Algorithm-dependent basis array size parameters:
  | n_max_pulay                         :       10
  Presetting      1001 iterations before the initial mixing cycle
  is restarted anyway using the sc_init_iter criterion / keyword.
  Presetting a factor      1.000 between actual scf density residual
  and density convergence criterion sc_accuracy_rho below which sc_init_iter
  takes no effect.
  Geometry relaxation not requested: no relaxation will be performed.
  Force calculation: scf convergence accuracy of forces not set.
  Defaulting to 'sc_accuracy_forces not_checked'.
  Handling of forces: Unphysical translation and rotation will be removed from forces.
  No accuracy limit for integral partition fn. given. Defaulting to  0.1000E-14.
  No threshold value for u(r) in integrations given. Defaulting to  0.1000E-05.
  No accuracy for occupation numbers given. Defaulting to  0.1000E-12.
  No threshold value for occupation numbers given. Defaulting to  0.0000E+00.
  No accuracy for fermi level given. Defaulting to  0.1000E-19.
  Maximum # of iterations to find E_F not set. Defaulting to  200.
  Will not use alltoall communication since running on < 1024 CPUs.
  Threshold for basis singularities not set.
  Default threshold for basis singularities:  0.1000E-04
  partition_type (choice of integration weights) for integrals was not specified.
  | Using a version of the partition function of Stratmann and coworkers ('stratmann_sparse').
  | At each grid point, the set of atoms used to build the partition table is smoothly restricted to
  | only those atoms whose free-atom density would be non-zero at that grid point.
  Partitioning for Hartree potential was not defined. Using partition_type for integrals.
  | Adjusted default value of keyword multip_moments_threshold to:       0.10000000E-11
  | This value may affect high angular momentum components of the Hartree potential in periodic systems.
  Spin handling was not defined in control.in. Defaulting to unpolarized case.
  No q(lm)/r^(l+1) cutoff set for long-range Hartree potential.
  | Using default value of  0.100000E-09 .
  | Verify using the multipole_threshold keyword.
  Defaulting to new monopole extrapolation.
  Density update method: automatic selection selected.
  Charge integration errors on the 3D integration grid will be compensated
  by explicit normalization and distribution of residual charges.
  Use the "compensate_multipole_errors" flag to change this behaviour.
------------------------------------------------------------


------------------------------------------------------------
          Reading geometry description geometry.in.
------------------------------------------------------------
  Input structure read successfully.
  The structure contains       20 atoms,  and a total of         20.000 electrons.

  Input geometry:
  | No unit cell requested.
  | Atomic structure:
  |       Atom                x [A]            y [A]            z [A]
  |    1: Species H             0.00000000        0.00000000        0.00000000
  |    2: Species H             1.00000000        0.00000000        0.00000000
  |    3: Species H             2.00000000        0.00000000        0.00000000
  |    4: Species H             3.00000000        0.00000000        0.00000000
  |    5: Species H             4.00000000        0.00000000        0.00000000
  |    6: Species H             5.00000000        0.00000000        0.00000000
  |    7: Species H             6.00000000        0.00000000        0.00000000
  |    8: Species H             7.00000000        0.00000000        0.00000000
  |    9: Species H             8.00000000        0.00000000        0.00000000
  |   10: Species H             9.00000000        0.00000000        0.00000000
  |   11: Species H            10.00000000        0.00000000        0.00000000
  |   12: Species H            11.00000000        0.00000000        0.00000000
  |   13: Species H            12.00000000        0.00000000        0.00000000
  |   14: Species H            13.00000000        0.00000000        0.00000000
  |   15: Species H            14.00000000        0.00000000        0.00000000
  |   16: Species H            15.00000000        0.00000000        0.00000000
  |   17: Species H            16.00000000        0.00000000        0.00000000
  |   18: Species H            17.00000000        0.00000000        0.00000000
  |   19: Species H            18.00000000        0.00000000        0.00000000
  |   20: Species H            19.00000000        0.00000000        0.00000000
  | The smallest distance between any two atoms is         1.00000000 AA.
  | The first atom of this pair is atom number                     18 .
  | The second atom of this pair is atom number                    19 .

  Structure-dependent array size parameters: 
  | Maximum number of distinct radial functions  :        3
  | Maximum number of basis functions            :      100
  | Number of Kohn-Sham states (occupied + empty):       40
------------------------------------------------------------

------------------------------------------------------------
          Preparing all fixed parts of the calculation.
------------------------------------------------------------
  Determining machine precision:
    2.225073858507201E-308
  Setting up grids for atomic and cluster calculations.

  Creating wave function, potential, and density for free atoms.

  Species: H

  List of occupied orbitals and eigenvalues:
    n    l              occ      energy [Ha]    energy [eV]
    1    0           1.0000        -0.237930        -6.4744

  Creating fixed part of basis set: Ionic, confined, hydrogenic.
 
  H                    hydrogenic:
 
  List of hydrogenic basis orbitals: 
    n    l      effective z      eigenvalue [eV]  inner max. [A]     outer max. [A]     outer radius [A]   
    2    0         2.100000       -14.9840           0.193241           1.317192           4.932270
    2    1         3.500000       -41.6672           0.602363           0.602363           4.056010
 

  Adding cutoff potential to free-atom effective potential.
  Creating atomic-like basis functions for current effective potential.

  Species H                   :

  List of atomic basis orbitals and eigenvalues:
    n    l      energy [Ha]    energy [eV]    outer radius [A]
    1    0        -0.237930        -6.4744       4.932270

  Assembling full basis from fixed parts.
  | Species H :   atomic orbital   1 s accepted.
  | Species H :    hydro orbital   2 s accepted.
  | Species H :    hydro orbital   2 p accepted.
 
  Basis size parameters after reduction:
  | Total number of radial functions:        3
  | Total number of basis functions :      100
 
  Per-task memory consumption for arrays in subroutine allocate_ext:
  |           0.654048MB.
  Testing on-site integration grid accuracy.
  |  Species  Function  <phi|h_atom|phi> (log., in eV)  <phi|h_atom|phi> (rad., in eV)
           1        1                 -6.4753777569                 -6.4754689169
           1        2                 13.6174740163                 13.6170999350
           1        3                 25.2564048317                 25.2564051385

  Preparing densities etc. for the partition functions (integrals / Hartree potential).

  Preparations completed.
  max(cpu_time)          :      0.053 s.
  Wall clock time (cpu1) :      0.053 s.
------------------------------------------------------------

------------------------------------------------------------
          Begin self-consistency loop: Initialization.

          Date     :  20190817, Time     :  153139.313
------------------------------------------------------------

  Initializing index lists of integration centers etc. from given atomic structure:
  | Number of centers in hartree potential         :        20
  | Number of centers in hartree multipole         :        20
  | Number of centers in electron density summation:        20
  | Number of centers in basis integrals           :        20
  | Number of centers in integrals                 :        20
  | Number of centers in hamiltonian               :        20
  Partitioning the integration grid into batches with parallel hashing+maxmin method.
  | Number of batches:     2703
  | Maximal batch size:     200
  | Minimal batch size:      49
  | Average batch size:      85.786
  | Standard deviation of batch sizes:      28.577

  Integration load balanced across     8 MPI tasks.
  Work distribution over tasks is as follows:
  Task     0 has      28940 integration points.
  Task     1 has      29067 integration points.
  Task     2 has      29027 integration points.
  Task     3 has      29046 integration points.
  Task     4 has      28935 integration points.
  Task     5 has      28924 integration points.
  Task     6 has      29037 integration points.
  Task     7 has      28904 integration points.
  Initializing partition tables, free-atom densities, potentials, etc. across the integration grid (initialize_grid_storage).
  | initialize_grid_storage: Actual outermost partition radius vs. multipole_radius_free
  | (-- VB: in principle, multipole_radius_free should be larger, hence this output)
  | Species        1: Confinement radius =              5.500000000000000 AA, multipole_radius_free =              5.505920724954856 AA.
  | Species        1: outer_partition_radius set to              5.505920724954856 AA .
  | The sparse table of interatomic distances needs          4.57 kbyte instead of         3.20 kbyte of memory.
  | Using the partition_type stratmann_smoother will reduce your memory usage.
  | Net number of integration points:   231880
  | of which are non-zero points    :   204806
  Renormalizing the initial density to the exact electron count on the 3D integration grid.
  | Initial density: Formal number of electrons (from input files) :      20.0000000000
  | Integrated number of electrons on 3D grid     :      19.9999934736
  | Charge integration error                      :      -0.0000065264
  | Normalization factor for density and gradient :       1.0000003263
  Renormalizing the free-atom superposition density to the exact electron count on the 3D integration grid.
  | Formal number of electrons (from input files) :      20.0000000000
  | Integrated number of electrons on 3D grid     :      19.9999934736
  | Charge integration error                      :      -0.0000065264
  | Normalization factor for density and gradient :       1.0000003263
  Obtaining max. number of non-zero basis functions in each batch (get_n_compute_maxes).
  | Maximal number of non-zero basis functions:       52 in task     0
  | Maximal number of non-zero basis functions:       50 in task     1
  | Maximal number of non-zero basis functions:       52 in task     2
  | Maximal number of non-zero basis functions:       52 in task     3
  | Maximal number of non-zero basis functions:       52 in task     4
  | Maximal number of non-zero basis functions:       52 in task     5
  | Maximal number of non-zero basis functions:       50 in task     6
  | Maximal number of non-zero basis functions:       52 in task     7
  Selecting the method for density update.
  Loop over occupied states selected for charge density update.
  Allocating        0.031 MB for KS_eigenvector
  Integrating Hamiltonian matrix: batch-based integration.
  Time summed over all CPUs for integration: real work        0.755 s, elapsed        0.777 s
  Integrating overlap matrix.
  Time summed over all CPUs for integration: real work        0.284 s, elapsed        0.289 s

  Updating Kohn-Sham eigenvalues and eigenvectors using ELSI and the (modified) LAPACK eigensolver.
  Overlap matrix is not singular
  | Lowest and highest eigenvalues :  0.1388E-02,  0.4235E+01
  Finished singularity check of overlap matrix
  | Time :     0.001 s
  Starting LAPACK eigensolver
  Finished Cholesky decomposition
  | Time :     0.001 s
  Finished transformation to standard eigenproblem
  | Time :     0.000 s
  Finished solving standard eigenproblem
  | Time :     0.001 s
  Finished back-transformation of eigenvectors
  | Time :     0.000 s

  Obtaining occupation numbers and chemical potential using ELSI.
  | Chemical potential (Fermi level):    -7.12292376 eV
  Writing Kohn-Sham eigenvalues.

  State    Occupation    Eigenvalue [Ha]    Eigenvalue [eV]
      1       2.00000          -0.593716          -16.15584
      2       2.00000          -0.584034          -15.89238
      3       2.00000          -0.567954          -15.45481
      4       2.00000          -0.545557          -14.84537
      5       2.00000          -0.516951          -14.06695
      6       2.00000          -0.482263          -13.12303
      7       2.00000          -0.441635          -12.01750
      8       2.00000          -0.395225          -10.75461
      9       2.00000          -0.343205           -9.33908
     10       2.00000          -0.285780           -7.77648
     11       0.00000          -0.223213           -6.07393
     12       0.00000          -0.155839           -4.24060
     13       0.00000          -0.084031           -2.28660
     14       0.00000          -0.008063           -0.21940
     15       0.00000           0.072057            1.96078
     16       0.00000           0.156562            4.26027
     17       0.00000           0.244739            6.65968
     18       0.00000           0.278557            7.57993
     19       0.00000           0.289704            7.88324
     20       0.00000           0.311989            8.48966
     21       0.00000           0.326669            8.88913
     22       0.00000           0.355819            9.68233
     23       0.00000           0.377402           10.26962
     24       0.00000           0.411551           11.19886
     25       0.00000           0.411551           11.19886
     26       0.00000           0.426319           11.60073
     27       0.00000           0.426319           11.60073
     28       0.00000           0.435001           11.83698
     29       0.00000           0.441457           12.01266
     30       0.00000           0.450987           12.27197
     31       0.00000           0.450987           12.27197
     32       0.00000           0.485649           13.21519
     33       0.00000           0.485649           13.21519
     34       0.00000           0.508880           13.84732
     35       0.00000           0.530470           14.43481
     36       0.00000           0.530470           14.43481
     37       0.00000           0.531900           14.47374
     38       0.00000           0.585698           15.93764
     39       0.00000           0.585698           15.93764
     40       0.00000           0.586563           15.96120

  Highest occupied state (VBM) at     -7.77647526 eV
  | Occupation number:      2.00000000

  Lowest unoccupied state (CBM) at    -6.07392776 eV
  | Occupation number:      0.00000000

  Overall HOMO-LUMO gap:      1.70254750 eV.
  Too few scf iterations specified.
  Switching on the force computation right away.

  Calculating total energy contributions from superposition of free atom densities.

  Total energy components:
  | Sum of eigenvalues            :          -9.51263956 Ha        -258.85209275 eV
  | XC energy correction          :          -5.89998931 Ha        -160.54687762 eV
  | XC potential correction       :           7.60620447 Ha         206.97535433 eV
  | Free-atom electrostatic energy:          -3.65291038 Ha         -99.40074896 eV
  | Hartree energy correction     :           0.00000000 Ha           0.00000000 eV
  | Entropy correction            :           0.00000000 Ha           0.00000000 eV
  | ---------------------------
  | Total energy                  :         -11.45933479 Ha        -311.82436501 eV
  | Total energy, T -> 0          :         -11.45933479 Ha        -311.82436501 eV  <-- do not rely on this value for anything but (periodic) metals
  | Electronic free energy        :         -11.45933479 Ha        -311.82436501 eV

  Derived energy quantities:
  | Kinetic energy                :           7.90534694 Ha         215.11543518 eV
  | Electrostatic energy          :         -13.46469242 Ha        -366.39292257 eV
  | Energy correction for multipole
  | error in Hartree potential    :           0.00000000 Ha           0.00000000 eV
  | Sum of eigenvalues per atom                           :         -12.94260464 eV
  | Total energy (T->0) per atom                          :         -15.59121825 eV  <-- do not rely on this value for anything but (periodic) metals
  | Electronic free energy per atom                       :         -15.59121825 eV
  Initialize hartree_potential_storage
  Max. number of atoms included in rho_multipole:           20

  End scf initialization - timings             :  max(cpu_time)    wall_clock(cpu1)
  | Time for scf. initialization               :        0.363 s           0.364 s
  | Boundary condition initialization          :        0.000 s           0.000 s
  | Integration                                :        0.134 s           0.134 s
  | Solution of K.-S. eqns.                    :        0.003 s           0.003 s
  | Grid partitioning                          :        0.099 s           0.100 s
  | Preloading free-atom quantities on grid    :        0.002 s           0.002 s
  | Free-atom superposition energy             :        0.032 s           0.032 s
  | Total energy evaluation                    :        0.000 s           0.000 s

  Partial memory accounting:
  | Current value for overall tracked memory usage:
  |   Minimum:        0.108 MB (on task 0)
  |   Maximum:        0.108 MB (on task 0)
  |   Average:        0.108 MB
  | Peak value for overall tracked memory usage:
  |   Minimum:        0.414 MB (on task 0 after allocating eval_tmp)
  |   Maximum:        1.901 MB (on task 1 after allocating grid_partition)
  |   Average:        1.093 MB
  | Largest tracked array allocation so far:
  |   Minimum:        0.134 MB (all_coords on task 4)
  |   Maximum:        1.267 MB (all_coords on task 1)
  |   Average:        0.663 MB
  Note:  These values currently only include a subset of arrays which are explicitly tracked.
  The "true" memory usage will be greater.
------------------------------------------------------------

------------------------------------------------------------
          Begin self-consistency iteration #    1

  Date     :  20190817, Time     :  153139.677
------------------------------------------------------------
  Evaluating new KS density and force components.
  Integration grid: deviation in total charge (<rho> - N_e) =   1.421085E-14
  Pulay mixing of updated and previous charge densities.
  Renormalizing the density to the exact electron count on the 3D integration grid.
  | Formal number of electrons (from input files) :      20.0000000000
  | Integrated number of electrons on 3D grid     :      20.0000000000
  | Charge integration error                      :      -0.0000000000
  | Normalization factor for density and gradient :       1.0000000000

  Evaluating partitioned Hartree potential by multipole expansion.
  | Original multipole sum: apparent total charge =  -0.180012E-12
  | Sum of charges compensated after spline to logarithmic grids =  -0.412338E-05
  | Analytical far-field extrapolation by fixed multipoles:
  | Hartree multipole sum: apparent total charge =  -0.179736E-12
  Summing up the Hartree potential.
  Time summed over all CPUs for potential: real work        4.716 s, elapsed        4.764 s
  | RMS charge density error from multipole expansion :   0.373798E-02

  Integrating Hamiltonian matrix: batch-based integration.
  Time summed over all CPUs for integration: real work        0.741 s, elapsed        0.758 s

  Updating Kohn-Sham eigenvalues and eigenvectors using ELSI and the (modified) LAPACK eigensolver.
  Starting LAPACK eigensolver
  Finished Cholesky decomposition
  | Time :     0.000 s
  Finished transformation to standard eigenproblem
  | Time :     0.001 s
  Finished solving standard eigenproblem
  | Time :     0.000 s
  Finished back-transformation of eigenvectors
  | Time :     0.000 s

  Obtaining occupation numbers and chemical potential using ELSI.
  | Chemical potential (Fermi level):    -5.13119753 eV
  Writing Kohn-Sham eigenvalues.

  State    Occupation    Eigenvalue [Ha]    Eigenvalue [eV]
      1       2.00000          -0.519710          -14.14203
      2       2.00000          -0.511303          -13.91327
      3       2.00000          -0.496135          -13.50053
      4       2.00000          -0.474616          -12.91495
      5       2.00000          -0.446882          -12.16029
      6       2.00000          -0.413058          -11.23989
      7       2.00000          -0.373287          -10.15766
      8       2.00000          -0.327741           -8.91827
      9       2.00000          -0.276619           -7.52719
     10       2.00000          -0.220164           -5.99098
     11       0.00000          -0.158673           -4.31771
     12       0.00000          -0.091224           -2.48234
     13       0.00000          -0.019581           -0.53283
     14       0.00000           0.056310            1.53227
     15       0.00000           0.136624            3.71772
     16       0.00000           0.221484            6.02690
     17       0.00000           0.308141            8.38495
     18       0.00000           0.324813            8.83862
     19       0.00000           0.334599            9.10490
     20       0.00000           0.357643            9.73197
     21       0.00000           0.376330           10.24047
     22       0.00000           0.413665           11.25640
     23       0.00000           0.422495           11.49667
     24       0.00000           0.475775           12.94650
     25       0.00000           0.475775           12.94650
     26       0.00000           0.483660           13.16106
     27       0.00000           0.489310           13.31479
     28       0.00000           0.489310           13.31479
     29       0.00000           0.498797           13.57296
     30       0.00000           0.513173           13.96415
     31       0.00000           0.513173           13.96415
     32       0.00000           0.547175           14.88938
     33       0.00000           0.547175           14.88938
     34       0.00000           0.567345           15.43823
     35       0.00000           0.585049           15.91999
     36       0.00000           0.591460           16.09446
     37       0.00000           0.591460           16.09446
     38       0.00000           0.646302           17.58676
     39       0.00000           0.646302           17.58676
     40       0.00000           0.657683           17.89648

  Highest occupied state (VBM) at     -5.99097586 eV
  | Occupation number:      2.00000000

  Lowest unoccupied state (CBM) at    -4.31771121 eV
  | Occupation number:      0.00000000

  Overall HOMO-LUMO gap:      1.67326466 eV.

  Total energy components:
  | Sum of eigenvalues            :          -8.11903182 Ha        -220.93009660 eV
  | XC energy correction          :          -6.45391867 Ha        -175.62006240 eV
  | XC potential correction       :           8.30992362 Ha         226.12452675 eV
  | Free-atom electrostatic energy:          -3.65291038 Ha         -99.40074896 eV
  | Hartree energy correction     :          -1.45907458 Ha         -39.70343928 eV
  | Entropy correction            :           0.00000000 Ha           0.00000000 eV
  | ---------------------------
  | Total energy                  :         -11.37501183 Ha        -309.52982049 eV
  | Total energy, T -> 0          :         -11.37501183 Ha        -309.52982049 eV  <-- do not rely on this value for anything but (periodic) metals
  | Electronic free energy        :         -11.37501183 Ha        -309.52982049 eV

  Derived energy quantities:
  | Kinetic energy                :          10.09865187 Ha         274.79829905 eV
  | Electrostatic energy          :         -15.01974503 Ha        -408.70805713 eV
  | Energy correction for multipole
  | error in Hartree potential    :          -0.00392000 Ha          -0.10666856 eV
  | Sum of eigenvalues per atom                           :         -11.04650483 eV
  | Total energy (T->0) per atom                          :         -15.47649102 eV  <-- do not rely on this value for anything but (periodic) metals
  | Electronic free energy per atom                       :         -15.47649102 eV

  atomic forces [eV/Ang]:
  -----------------------
  atom #    1
   Hellmann-Feynman              :  0.100123E+01  0.433134E-14 -0.203268E-13
   Ionic forces                  :  0.000000E+00  0.000000E+00  0.000000E+00
   Multipole                     : -0.108002E-02  0.362387E-16  0.489223E-15
   Pulay + GGA                   : -0.382641E-01 -0.877814E-14  0.336686E-13
   ----------------------------------------------------------------
   Total forces(   1)            :  0.961882E+00 -0.441056E-14  0.138310E-13
  atom #    2
   Hellmann-Feynman              : -0.223043E+01  0.219235E-14 -0.941966E-15
   Ionic forces                  :  0.000000E+00  0.000000E+00  0.000000E+00
   Multipole                     : -0.127161E-01 -0.524416E-16 -0.188511E-15
   Pulay + GGA                   :  0.110560E+00 -0.411170E-14 -0.442670E-14
   ----------------------------------------------------------------
   Total forces(   2)            : -0.213259E+01 -0.197180E-14 -0.555718E-14
  atom #    3
   Hellmann-Feynman              :  0.177824E+01  0.295572E-14  0.618251E-15
   Ionic forces                  :  0.000000E+00  0.000000E+00  0.000000E+00
   Multipole                     :  0.808412E-02 -0.187466E-15  0.133805E-15
   Pulay + GGA                   : -0.115981E-01 -0.329773E-14 -0.182866E-14
   ----------------------------------------------------------------
   Total forces(   3)            :  0.177473E+01 -0.529475E-15 -0.107661E-14
  atom #    4
   Hellmann-Feynman              : -0.134698E+01  0.537595E-15  0.109161E-14
   Ionic forces                  :  0.000000E+00  0.000000E+00  0.000000E+00
   Multipole                     :  0.111328E-02 -0.951267E-16 -0.124048E-15
   Pulay + GGA                   :  0.204774E-01 -0.557519E-15 -0.352352E-14
   ----------------------------------------------------------------
   Total forces(   4)            : -0.132539E+01 -0.115051E-15 -0.255595E-14
  atom #    5
   Hellmann-Feynman              :  0.117160E+01 -0.327886E-15  0.604984E-15
   Ionic forces                  :  0.000000E+00  0.000000E+00  0.000000E+00
   Multipole                     :  0.168485E-02 -0.522674E-17 -0.341480E-16
   Pulay + GGA                   : -0.189765E-01  0.167813E-14 -0.646722E-15
   ----------------------------------------------------------------
   Total forces(   5)            :  0.115431E+01  0.134502E-14 -0.758863E-16
  atom #    6
   Hellmann-Feynman              : -0.100622E+01  0.110349E-14 -0.202173E-15
   Ionic forces                  :  0.000000E+00  0.000000E+00  0.000000E+00
   Multipole                     : -0.137063E-02 -0.209070E-16 -0.529643E-16
   Pulay + GGA                   :  0.167637E-01 -0.221893E-14  0.780527E-15
   ----------------------------------------------------------------
   Total forces(   6)            : -0.990829E+00 -0.113634E-14  0.525389E-15
  atom #    7
   Hellmann-Feynman              :  0.932941E+00  0.115772E-14  0.771288E-15
   Ionic forces                  :  0.000000E+00  0.000000E+00  0.000000E+00
   Multipole                     :  0.136841E-02 -0.487829E-17 -0.104361E-15
   Pulay + GGA                   : -0.146981E-01 -0.309981E-14 -0.211857E-14
   ----------------------------------------------------------------
   Total forces(   7)            :  0.919612E+00 -0.194697E-14 -0.145165E-14
  atom #    8
   Hellmann-Feynman              : -0.861002E+00 -0.403837E-15 -0.281432E-14
   Ionic forces                  :  0.000000E+00  0.000000E+00  0.000000E+00
   Multipole                     : -0.135384E-02  0.529643E-16  0.245308E-15
   Pulay + GGA                   :  0.137348E-01  0.769376E-15  0.394166E-14
   ----------------------------------------------------------------
   Total forces(   8)            : -0.848621E+00  0.418504E-15  0.137265E-14
  atom #    9
   Hellmann-Feynman              :  0.832199E+00  0.218168E-15  0.418780E-15
   Ionic forces                  :  0.000000E+00  0.000000E+00  0.000000E+00
   Multipole                     :  0.130855E-02  0.369356E-16 -0.731744E-16
   Pulay + GGA                   : -0.132350E-01 -0.159172E-14 -0.289910E-15
   ----------------------------------------------------------------
   Total forces(   9)            :  0.820272E+00 -0.133661E-14  0.556959E-16
  atom #   10
   Hellmann-Feynman              : -0.811450E+00  0.748663E-16  0.923256E-15
   Ionic forces                  :  0.000000E+00  0.000000E+00  0.000000E+00
   Multipole                     : -0.129510E-02  0.118473E-15  0.171437E-15
   Pulay + GGA                   :  0.129868E-01  0.189557E-15 -0.228025E-14
   ----------------------------------------------------------------
   Total forces(  10)            : -0.799758E+00  0.382896E-15 -0.118556E-14
  atom #   11
   Hellmann-Feynman              :  0.811450E+00  0.134600E-14  0.131385E-14
   Ionic forces                  :  0.000000E+00  0.000000E+00  0.000000E+00
   Multipole                     :  0.129510E-02  0.529643E-16  0.223008E-16
   Pulay + GGA                   : -0.129868E-01 -0.239733E-14 -0.299945E-14
   ----------------------------------------------------------------
   Total forces(  11)            :  0.799758E+00 -0.998369E-15 -0.166330E-14
  atom #   12
   Hellmann-Feynman              : -0.832199E+00 -0.199354E-15 -0.281737E-14
   Ionic forces                  :  0.000000E+00  0.000000E+00  0.000000E+00
   Multipole                     : -0.130855E-02  0.588880E-16 -0.559261E-16
   Pulay + GGA                   :  0.132350E-01  0.813978E-15  0.419254E-14
   ----------------------------------------------------------------
   Total forces(  12)            : -0.820272E+00  0.673511E-15  0.131925E-14
  atom #   13
   Hellmann-Feynman              :  0.861002E+00  0.183133E-14  0.273846E-14
   Ionic forces                  :  0.000000E+00  0.000000E+00  0.000000E+00
   Multipole                     :  0.135384E-02 -0.120564E-15 -0.243915E-16
   Pulay + GGA                   : -0.137348E-01 -0.384131E-14 -0.474728E-14
   ----------------------------------------------------------------
   Total forces(  13)            :  0.848621E+00 -0.213054E-14 -0.203321E-14
  atom #   14
   Hellmann-Feynman              : -0.932941E+00 -0.342586E-14  0.147228E-14
   Ionic forces                  :  0.000000E+00  0.000000E+00  0.000000E+00
   Multipole                     : -0.136841E-02  0.228583E-15  0.207327E-16
   Pulay + GGA                   :  0.146981E-01  0.605466E-14 -0.210742E-14
   ----------------------------------------------------------------
   Total forces(  14)            : -0.919612E+00  0.285738E-14 -0.614405E-15
  atom #   15
   Hellmann-Feynman              :  0.100622E+01  0.200512E-15  0.805215E-15
   Ionic forces                  :  0.000000E+00  0.000000E+00  0.000000E+00
   Multipole                     :  0.137063E-02  0.139380E-16  0.665538E-16
   Pulay + GGA                   : -0.167637E-01 -0.140495E-14 -0.127114E-14
   ----------------------------------------------------------------
   Total forces(  15)            :  0.990829E+00 -0.119050E-14 -0.399375E-15
  atom #   16
   Hellmann-Feynman              : -0.117160E+01 -0.588414E-14  0.204912E-14
   Ionic forces                  :  0.000000E+00  0.000000E+00  0.000000E+00
   Multipole                     : -0.168485E-02 -0.216039E-16  0.432077E-16
   Pulay + GGA                   :  0.189765E-01  0.101413E-13 -0.403086E-14
   ----------------------------------------------------------------
   Total forces(  16)            : -0.115431E+01  0.423553E-14 -0.193853E-14
  atom #   17
   Hellmann-Feynman              :  0.134698E+01 -0.170367E-14  0.318524E-14
   Ionic forces                  :  0.000000E+00  0.000000E+00  0.000000E+00
   Multipole                     : -0.111328E-02 -0.109762E-15 -0.205585E-15
   Pulay + GGA                   : -0.204774E-01  0.214087E-14 -0.520723E-14
   ----------------------------------------------------------------
   Total forces(  17)            :  0.132539E+01  0.327437E-15 -0.222757E-14
  atom #   18
   Hellmann-Feynman              : -0.177824E+01  0.881265E-14 -0.646973E-14
   Ionic forces                  :  0.000000E+00  0.000000E+00  0.000000E+00
   Multipole                     : -0.808412E-02 -0.287819E-15 -0.487829E-16
   Pulay + GGA                   :  0.115981E-01 -0.159395E-13  0.146349E-13
   ----------------------------------------------------------------
   Total forces(  18)            : -0.177473E+01 -0.741464E-14  0.811636E-14
  atom #   19
   Hellmann-Feynman              :  0.223043E+01 -0.594951E-14  0.163689E-13
   Ionic forces                  :  0.000000E+00  0.000000E+00  0.000000E+00
   Multipole                     :  0.127161E-01 -0.174225E-15  0.149311E-15
   Pulay + GGA                   : -0.110560E+00  0.107713E-13 -0.262480E-13
   ----------------------------------------------------------------
   Total forces(  19)            :  0.213259E+01  0.464754E-14 -0.972983E-14
  atom #   20
   Hellmann-Feynman              : -0.100123E+01 -0.111759E-14  0.291590E-13
   Ionic forces                  :  0.000000E+00  0.000000E+00  0.000000E+00
   Multipole                     :  0.108002E-02 -0.156802E-15  0.114291E-15
   Pulay + GGA                   :  0.382641E-01  0.301060E-15 -0.470212E-13
   ----------------------------------------------------------------
   Total forces(  20)            : -0.961882E+00 -0.973332E-15 -0.177478E-13


  Self-consistency convergence accuracy:
  | Change of charge density      :  0.3045E+00
  | Change of sum of eigenvalues  :  0.3792E+02 eV
  | Change of total energy        :  0.2295E+01 eV
  | Change of forces              :  0.1281E+01 eV/A

  End self-consistency iteration #     1       :  max(cpu_time)    wall_clock(cpu1)
  | Time for this iteration                    :        0.978 s           0.978 s
  | Charge density & force component update    :        0.277 s           0.277 s
  | Density mixing                             :        0.003 s           0.003 s
  | Hartree multipole update                   :        0.004 s           0.004 s
  | Hartree multipole summation                :        0.596 s           0.596 s
  | Integration                                :        0.095 s           0.095 s
  | Solution of K.-S. eqns.                    :        0.001 s           0.001 s
  | Total energy evaluation                    :        0.001 s           0.001 s

  Partial memory accounting:
  | Current value for overall tracked memory usage:
  |   Minimum:        0.108 MB (on task 0)
  |   Maximum:        0.108 MB (on task 0)
  |   Average:        0.108 MB
  | Peak value for overall tracked memory usage:
  |   Minimum:        1.054 MB (on task 0 after allocating hessian_basis_wave)
  |   Maximum:        1.901 MB (on task 1 after allocating grid_partition)
  |   Average:        1.413 MB
  | Largest tracked array allocation so far:
  |   Minimum:        0.476 MB (hessian_basis_wave on task 0)
  |   Maximum:        1.267 MB (all_coords on task 1)
  |   Average:        0.829 MB
  Note:  These values currently only include a subset of arrays which are explicitly tracked.
  The "true" memory usage will be greater.
------------------------------------------------------------
  Removing unitary transformations (pure translations, rotations) from forces on atoms.
  Atomic forces before filtering:
  | Net force on center of mass :  -0.169486E-13 -0.926638E-14 -0.230366E-13 eV/A
  | Net torque on center of mass:   0.000000E+00  0.282718E-12  0.685767E-13 eV
  Atomic forces after filtering:
  | Net force on center of mass :   0.178406E-15 -0.380296E-29  0.000000E+00 eV/A
  | Net torque on center of mass:   0.000000E+00  0.000000E+00 -0.268325E-28 eV

  Energy and forces in a compact form:
  | Total energy uncorrected      :         -0.309529820490651E+03 eV
  | Total energy corrected        :         -0.309529820490651E+03 eV  <-- do not rely on this value for anything but (periodic) metals
  | Electronic free energy        :         -0.309529820490651E+03 eV
  Total atomic forces (unitary forces cleaned) [eV/Ang]:
  |    1          0.961881753883149E+00         -0.296757859127205E-14          0.109439698736165E-13
  |    2         -0.213258638734260E+01         -0.631934068458125E-15         -0.801904312509097E-14
  |    3          0.177472765708429E+01          0.707265271260044E-15         -0.311333040325680E-14
  |    4         -0.132539010456197E+01          0.101856715651999E-14         -0.416753698708701E-14
  |    5          0.115431194363174E+01          0.237551512814896E-14         -0.126232905575223E-14
  |    6         -0.990828940484823E+00         -0.208968843991406E-15         -0.235913215050614E-15
  |    7          0.919611633298032E+00         -0.112271727650369E-14         -0.178780774101009E-14
  |    8         -0.848621088497422E+00          0.113962980421040E-14          0.146162398222082E-14
  |    9          0.820272428659507E+00         -0.718610003595962E-15          0.569814266251525E-15
  |   10         -0.799758079479232E+00          0.897775992183350E-15         -0.246301264764438E-15
  |   11          0.799758079479283E+00         -0.586611822544382E-15         -0.298900984370366E-15
  |   12         -0.820272428659513E+00          0.982146088795265E-15          0.310878791903119E-14
  |   13          0.848621088497419E+00         -0.192503042570996E-14          0.181470213568802E-15
  |   14         -0.919611633298012E+00          0.295976463744819E-14          0.202541430668966E-14
  |   15          0.990828940484797E+00         -0.119123244236201E-14          0.266558546170663E-14
  |   16         -0.115431194363173E+01          0.413167711001920E-14          0.155156713604157E-14
  |   17          0.132539010456195E+01          0.120457482502277E-15          0.168766803404761E-14
  |   18         -0.177472765708433E+01         -0.772474486332467E-14          0.124567413908771E-13
  |   19          0.213258638734260E+01          0.423431020475874E-14         -0.496430785059951E-14
  |   20         -0.961881753883117E+00         -0.148968053808417E-14         -0.125571719570694E-13

  ------------------------------------ 
  Start decomposition of the XC Energy 
  ------------------------------------ 
  X and C from original XC functional choice 
  Hartree-Fock Energy :          0.000000000 Ha              0.000000000 eV
  X Energy            :         -5.975912936 Ha           -162.612864643 eV
  C Energy            :         -0.478005732 Ha            -13.007197761 eV
  Total XC Energy     :         -6.453918668 Ha           -175.620062404 eV
  ------------------------------------ 
  LDA X and C from self-consistent density 
  X Energy LDA        :         -5.326374026 Ha           -144.938011623 eV
  C Energy LDA        :         -0.928922476 Ha            -25.277266668 eV
  ------------------------------------ 
  End decomposition of the XC Energy 
  ------------------------------------ 

------------------------------------------------------------

 ***********************************************************
 *
 * WARNING! SELF-CONSISTENCY CYCLE DID NOT CONVERGE
 * USING YOUR PRESELECTED ACCURACY CRITERIA.
 * DO NOT RELY ON ANY FINAL DATA WITHOUT FURTHER CHECKS.
 *
 ***********************************************************

  |------------------------------------------------------
  | Final ELSI Output
  |------------------------------------------------------
  |
  | Physical Properties
  |   Number of electrons       :        0.20000000E+02
  |   Number of states          :                    40
  |
  | Matrix Properties
  |   Matrix format             :           BLACS_DENSE
  |   Number of basis functions :                   100
  |
  | Computational Details
  |   Parallel mode             :           SINGLE_PROC
  |   Solver requested          :                LAPACK
  |   Number of ELSI calls      :                     2
  |
  |------------------------------------------------------
  | ELSI Project (c)  elsi-interchange.org
  |------------------------------------------------------

------------------------------------------------------------------------------
  Final output of selected total energy values:

  The following output summarizes some interesting total energy values
  at the end of a run (AFTER all relaxation, molecular dynamics, etc.).

  | Total energy of the DFT / Hartree-Fock s.c.f. calculation      :           -309.529820491 eV
  | Final zero-broadening corrected energy (caution - metals only) :           -309.529820491 eV
  | For reference only, the value of 1 Hartree used in FHI-aims is :             27.211384500 eV

  Before relying on these values, please be sure to understand exactly which
  total energy value is referred to by a given number. Different objects may
  all carry the same name 'total energy'. Definitions:

  Total energy of the DFT / Hartree-Fock s.c.f. calculation:
  | Note that this energy does not include ANY quantities calculated after the
  | s.c.f. cycle, in particular not ANY RPA, MP2, etc. many-body perturbation terms.

  Final zero-broadening corrected energy:
  | For metallic systems only, a broadening of the occupation numbers at the Fermi
  | level can be extrapolated back to zero broadening by an electron-gas inspired
  | formula. For all systems that are not real metals, this value can be
  | meaningless and should be avoided.

------------------------------------------------------------------------------
  Methods described in the following list of references were used in this FHI-aims run.
  If you publish the results, please make sure to cite these reference if they apply.
  FHI-aims is an academic code, and for our developers (often, Ph.D. students
  and postdocs), scientific credit in the community is essential.
  Thank you for helping us!

  For any use of FHI-aims, please cite:

    Volker Blum, Ralf Gehrke, Felix Hanke, Paula Havu, Ville Havu,
    Xinguo Ren, Karsten Reuter, and Matthias Scheffler
    'Ab initio molecular simulations with numeric atom-centered orbitals'
    Computer Physics Communications 180, 2175-2196 (2009)
    http://dx.doi.org/10.1016/j.cpc.2009.06.022


  The ELSI infrastructure was used in your run to solve the Kohn-Sham electronic structure.
  Please check out http://elsi-interchange.org to learn more.
  If scalability is important for your project, please acknowledge ELSI by citing:

    V. W-z. Yu, F. Corsetti, A. Garcia, W. P. Huhn, M. Jacquelin, W. Jia,
    B. Lange, L. Lin, J. Lu, W. Mi, A. Seifitokaldani, A. Vazquez-Mayagoitia,
    C. Yang, H. Yang, and V. Blum
    'ELSI: A unified software interface for Kohn-Sham electronic structure solvers'
    Computer Physics Communications 222, 267-285 (2018).
    http://dx.doi.org/10.1016/j.cpc.2017.09.007


  For the real-space grid partitioning and parallelization used in this calculation, please cite:

    Ville Havu, Volker Blum, Paula Havu, and Matthias Scheffler,
    'Efficient O(N) integration for all-electron electronic structure calculation'
    'using numerically tabulated basis functions'
    Journal of Computational Physics 228, 8367-8379 (2009).
    http://dx.doi.org/10.1016/j.jcp.2009.08.008

  Of course, there are many other important community references, e.g., those cited in the
  above references. Our list is limited to references that describe implementations in the
  FHI-aims code. The reason is purely practical (length of this list) - please credit others as well.

------------------------------------------------------------
          Leaving FHI-aims.
          Date     :  20190817, Time     :  153140.678

          Computational steps:
          | Number of self-consistency cycles          :            1
          | Number of SCF (re)initializations          :            1

          Detailed time accounting                     :  max(cpu_time)    wall_clock(cpu1)
          | Total time                                 :        1.459 s           1.461 s
          | Preparation time                           :        0.053 s           0.053 s
          | Boundary condition initalization           :        0.000 s           0.000 s
          | Grid partitioning                          :        0.099 s           0.100 s
          | Preloading free-atom quantities on grid    :        0.002 s           0.002 s
          | Free-atom superposition energy             :        0.032 s           0.032 s
          | Total time for integrations                :        0.229 s           0.229 s
          | Total time for solution of K.-S. equations :        0.004 s           0.004 s
          | Total time for density & force components  :        0.277 s           0.277 s
          | Total time for mixing                      :        0.003 s           0.003 s
          | Total time for Hartree multipole update    :        0.004 s           0.004 s
          | Total time for Hartree multipole sum       :        0.596 s           0.596 s
          | Total time for total energy evaluation     :        0.001 s           0.001 s

          Partial memory accounting:
          | Residual value for overall tracked memory usage across tasks:     0.000000 MB (should be 0.000000 MB)
          | Peak values for overall tracked memory usage:
          |   Minimum:        1.054 MB (on task 0 after allocating grid_partition)
          |   Maximum:        1.901 MB (on task 1 after allocating grid_partition)
          |   Average:        1.413 MB
          | Largest tracked array allocation:
          |   Minimum:        0.476 MB (all_coords on task 0)
          |   Maximum:        1.267 MB (all_coords on task 1)
          |   Average:        0.829 MB
          Note:  These values currently only include a subset of arrays which are explicitly tracked.
          The "true" memory usage will be greater.

------------------------------------------------------------
