  MPI-parallelism will be employed.
------------------------------------------------------------
          Invoking FHI-aims ...
          Version 180101-
          Git rev. (modified): fa29f3a Merge branch master of fhiaims.rzberlin.mp[...]
          Compiled on 2018/01/19 at 14:47:46 on host theobook132.

          When using FHI-aims, please cite the following reference:

          Volker Blum, Ralf Gehrke, Felix Hanke, Paula Havu,
          Ville Havu, Xinguo Ren, Karsten Reuter, and Matthias Scheffler,
          'Ab Initio Molecular Simulations with Numeric Atom-Centered Orbitals',
          Computer Physics Communications 180, 2175-2196 (2009)

          For any questions about FHI-aims, please visit the aimsclub website
          with its forums and wiki. Contributions to both the forums and the
          wiki are warmly encouraged - they are for you, and everyone is welcome there.

------------------------------------------------------------



  Date     :  20180215, Time     :  214330.595
  Time zero on CPU 1             :   0.400000000000000E-01  s.
  Internal wall clock time zero  :           287963010.595  s.

  FHI-aims created a unique identifier for this run for later identification
  aims_uuid : 8A1268BF-775B-4617-A223-F105B8015EFE

  Using        8 parallel tasks.
  Task        0 on host theobook132 reporting.
  Task        1 on host theobook132 reporting.
  Task        2 on host theobook132 reporting.
  Task        3 on host theobook132 reporting.
  Task        4 on host theobook132 reporting.
  Task        5 on host theobook132 reporting.
  Task        6 on host theobook132 reporting.
  Task        7 on host theobook132 reporting.

  Performing system and environment tests:
  *** Environment variable OMP_NUM_THREADS is not set
  *** For performance reasons you might want to set it to 1
  | Stacksize not measured: no C compiler
  | Checking for scalapack...
  | No scalapack compiled in.

  Obtaining array dimensions for all initial allocations:
  
  -----------------------------------------------------------------------
  Parsing control.in (first pass over file, find array dimensions only).
  The contents of control.in will be repeated verbatim below
  unless switched off by setting 'verbatim_writeout .false.' .
  in the first line of control.in .
  -----------------------------------------------------------------------
  
  ################################################################################
  #
  #		Control.in generated by mkcontrol
  #
  ################################################################################
  xc			pbe
  vdw_correction_hirshfeld
  relativistic		none
  sc_accuracy_rho		1E-5
  sc_accuracy_eev		1E-3
  sc_accuracy_etot	1E-6
  sc_iter_limit		1000	
  
  compute_forces .true.
  final_forces_cleaned .true.
  
  ################################################################################
  #
  #  FHI-aims code project
  #  VB, Fritz-Haber Institut, 2009
  #
  #  Suggested "light" defaults for H atom (to be pasted into control.in file)
  #  Be sure to double-check any results obtained with these settings for post-processing,
  #  e.g., with the "tight" defaults and larger basis sets.
  #
  ################################################################################
    species        H
  #     global species definitions
      nucleus             1
      mass                1.00794
  #
      l_hartree           4
  #
      cut_pot             3.5  1.5  1.0
      basis_dep_cutoff    1e-4
  #
      radial_base         24 5.0
      radial_multiplier   1
      angular_grids       specified
        division   0.2421   50
        division   0.3822  110
        division   0.4799  194
        division   0.5341  302
  #      division   0.5626  434
  #      division   0.5922  590
  #      division   0.6542  770
  #      division   0.6868 1202
  #      outer_grid  770
        outer_grid  302
  ################################################################################
  #
  #  Definition of "minimal" basis
  #
  ################################################################################
  #     valence basis states
      valence      1  s   1.
  #     ion occupancy
      ion_occ      1  s   0.5
  ################################################################################
  #
  #  Suggested additional basis functions. For production calculations,
  #  uncomment them one after another (the most important basis functions are
  #  listed first).
  #
  #  Basis constructed for dimers: 0.5 A, 0.7 A, 1.0 A, 1.5 A, 2.5 A
  #
  ################################################################################
  #  "First tier" - improvements: -1014.90 meV to -62.69 meV
       hydro 2 s 2.1
       hydro 2 p 3.5
  #  "Second tier" - improvements: -12.89 meV to -1.83 meV
  #     hydro 1 s 0.85
  #     hydro 2 p 3.7
  #     hydro 2 s 1.2
  #     hydro 3 d 7
  #  "Third tier" - improvements: -0.25 meV to -0.12 meV
  #     hydro 4 f 11.2
  #     hydro 3 p 4.8
  #     hydro 4 d 9
  #     hydro 3 s 3.2
  
  ################################################################################
  #
  #  FHI-aims code project
  #  VB, Fritz-Haber Institut, 2009
  #
  #  Suggested "light" defaults for C atom (to be pasted into control.in file)
  #  Be sure to double-check any results obtained with these settings forpost-processing,
  #  e.g., with the "tight" defaults and larger basis sets.
  #
  ################################################################################
    species        C
  #     global species definitions
      nucleus             6
      mass                12.0107
  #
      l_hartree           4
  #
      cut_pot             3.5  1.5  1.0
      basis_dep_cutoff    1e-4
  #
      radial_base         34 5.0
      radial_multiplier   1
      angular_grids specified
        division   0.3326   50
        division   0.5710  110
        division   0.7727  194
        division   0.8772  302
  #      division   0.9334  434
  #      division   0.9625  590
  #      division   0.9924  770
  #      division   1.0230  974
  #      division   1.4589 1202
  #     outer_grid  974
       outer_grid 302
  ################################################################################
  #
  #  Definition of "minimal" basis
  #
  ################################################################################
  #     valence basis states
      valence      2  s   2.
      valence      2  p   2.
  #     ion occupancy
      ion_occ      2  s   1.
      ion_occ      2  p   1.
  ################################################################################
  #
  #  Suggested additional basis functions. For production calculations,
  #  uncomment them one after another (the most important basis functions are
  #  listed first).
  #
  #  Constructed for dimers: 1.0 A, 1.25 A, 1.5 A, 2.0 A, 3.0 A
  #
  ################################################################################
  #  "First tier" - improvements: -1214.57 meV to -155.61 meV
       hydro 2 p 1.7
       hydro 3 d 6
       hydro 2 s 4.9
  #  "Second tier" - improvements: -67.75 meV to -5.23 meV
  #     hydro 4 f 9.8
  #     hydro 3 p 5.2
  #     hydro 3 s 4.3
  #     hydro 5 g 14.4
  #     hydro 3 d 6.2
  #  "Third tier" - improvements: -2.43 meV to -0.60 meV
  #     hydro 2 p 5.6
  #     hydro 2 s 1.4
  #     hydro 3 d 4.9
  #     hydro 4 f 11.2
  #  "Fourth tier" - improvements: -0.39 meV to -0.18 meV
  #     hydro 2 p 2.1
  #     hydro 5 g 16.4
  #     hydro 4 d 13.2
  #     hydro 3 s 13.6
  #     hydro 4 f 17.6
  #  Further basis functions - improvements: -0.08 meV and below
  #     hydro 3 s 2
  #     hydro 3 p 6
  #     hydro 4 d 20
  
  -----------------------------------------------------------------------
  Completed first pass over input file control.in .
  -----------------------------------------------------------------------
  
  
  -----------------------------------------------------------------------
  Parsing geometry.in (first pass over file, find array dimensions only).
  The contents of geometry.in will be repeated verbatim below
  unless switched off by setting 'verbatim_writeout .false.' .
  in the first line of geometry.in .
  -----------------------------------------------------------------------
  
  #=======================================#
  # iterations/iteration0037/aims-chain-node-0.43724/geometry.in
  #=======================================#
  atom -1.4679774358824913 -1.1129436563627770 -0.1575929614683470 C
  atom -0.6804276589015595 -0.0385522714356338 0.5708414259490245 C
  atom 0.6804275989560908 0.0385523764198130 0.5708414823725747 C
  atom 1.4679774353333321 1.1129436354320315 -0.1575930389153020 C
  atom -0.9453551122810423 -1.2956439900374965 -1.1143646721272358 H
  atom -2.4414460524495740 -0.6815299445947265 -0.4435107886237341 H
  atom -1.6497721034910000 -2.0874593729457969 0.3102166172554184 H
  atom -1.2739951455113716 0.8424829394881983 0.8344104080761119 H
  atom 1.2739950615095770 -0.8424827870612455 0.8344106719187816 H
  atom 0.9453549297661747 1.2956442716519367 -1.1143645839619509 H
  atom 1.6497726622319482 2.0874592079574330 0.3102166231808732 H
  atom 2.4414458207199172 0.6815295914882695 -0.4435111836562180 H
  
  -----------------------------------------------------------------------
  Completed first pass over input file geometry.in .
  -----------------------------------------------------------------------
  

  Basic array size parameters:
  | Number of species                 :        2
  | Number of atoms                   :       12
  | Max. basis fn. angular momentum   :        2
  | Max. atomic/ionic basis occupied n:        2
  | Max. number of basis fn. types    :        2
  | Max. radial fns per species/type  :        3
  | Max. logarithmic grid size        :     1277
  | Max. radial integration grid size :       34
  | Max. angular integration grid size:      302
  | Max. angular grid division number :        8
  | Radial grid for Hartree potential :     1277
  | Number of spin channels           :        1

------------------------------------------------------------
          Reading file control.in.
------------------------------------------------------------
  XC: Using PBE gradient-corrected functionals.
  Non-relativistic treatment of kinetic energy.
  Convergence accuracy of self-consistent charge density:  0.1000E-04
  Convergence accuracy of sum of eigenvalues:  0.1000E-02
  Convergence accuracy of total energy:  0.1000E-05
  Maximum number of s.-c. iterations  :  1000
  Forces will be computed.
  Cleaning forces before final output.
 
  Reading configuration options for species H                   .
  | Found nuclear charge :   1.0000
  | Found atomic mass :    1.00794000000000      amu
  | Found l_max for Hartree potential  :   4
  | Found cutoff potl. onset [A], width [A], scale factor :    3.50000    1.50000    1.00000
  | Threshold for basis-dependent cutoff potential is   0.100000E-03
  | Found data for basic radial integration grid :    24 points, outermost radius =    5.000 A
  | Found multiplier for basic radial grid :   1
  | Found angular grid specification: user-specified.
  | Specified grid contains     5 separate shells.
  | Check grid settings after all constraints further below.
  | Found free-atom valence shell :  1 s   1.000
  | No ionic wave fns used. Skipping ion_occ.
  | Found hydrogenic basis function :  2 s   2.100
  | Found hydrogenic basis function :  2 p   3.500
  Species H                   : Missing cutoff potential type.
  Defaulting to exp(1/x)/(1-x)^2 type cutoff potential.
  Species H : No 'logarithmic' tag. Using default grid for free atom:
  | Default logarithmic grid data [bohr] : 0.1000E-03 0.1000E+03 0.1012E+01
  Species H : On-site basis accuracy parameter (for Gram-Schmidt orthonormalisation) not specified.
  Using default value basis_acc =  0.1000000E-03.
  Species H                   : Using default innermost maximum threshold i_radial=  2 for radial functions.
  Species H                   : Default cutoff onset for free atom density etc. : 0.35000000E+01 AA.
  Species H                   : Basic radial grid will be enhanced according to radial_multiplier =   1, to contain    24 grid points.
 
  Reading configuration options for species C                   .
  | Found nuclear charge :   6.0000
  | Found atomic mass :    12.0107000000000      amu
  | Found l_max for Hartree potential  :   4
  | Found cutoff potl. onset [A], width [A], scale factor :    3.50000    1.50000    1.00000
  | Threshold for basis-dependent cutoff potential is   0.100000E-03
  | Found data for basic radial integration grid :    34 points, outermost radius =    5.000 A
  | Found multiplier for basic radial grid :   1
  | Found angular grid specification: user-specified.
  | Specified grid contains     5 separate shells.
  | Check grid settings after all constraints further below.
  | Found free-atom valence shell :  2 s   2.000
  | Found free-atom valence shell :  2 p   2.000
  | No ionic wave fns used. Skipping ion_occ.
  | No ionic wave fns used. Skipping ion_occ.
  | Found hydrogenic basis function :  2 p   1.700
  | Found hydrogenic basis function :  3 d   6.000
  | Found hydrogenic basis function :  2 s   4.900
  Species C                   : Missing cutoff potential type.
  Defaulting to exp(1/x)/(1-x)^2 type cutoff potential.
  Species C : No 'logarithmic' tag. Using default grid for free atom:
  | Default logarithmic grid data [bohr] : 0.1000E-03 0.1000E+03 0.1012E+01
  Species C : On-site basis accuracy parameter (for Gram-Schmidt orthonormalisation) not specified.
  Using default value basis_acc =  0.1000000E-03.
  Species C                   : Using default innermost maximum threshold i_radial=  2 for radial functions.
  Species C                   : Default cutoff onset for free atom density etc. : 0.35000000E+01 AA.
  Species C                   : Basic radial grid will be enhanced according to radial_multiplier =   1, to contain    34 grid points.
 
  Finished reading input file 'control.in'. Consistency checks are next.
 
  MPI_IN_PLACE appears to work with this MPI implementation.
  | Keeping use_mpi_in_place .true. (see manual).
  Target number of points in a grid batch is not set. Defaulting to  100
  Method for grid partitioning is not set. Defaulting to parallel hash+maxmin partitioning.
  Batch size limit is not set. Defaulting to    200
  By default, will store active basis functions for each batch.
  If in need of memory, prune_basis_once .false. can be used to disable this option.
  communication_type for Hartree potential was not specified.
  Defaulting to calc_hartree .
  Defaulting to Pulay charge density mixer.
  Pulay mixer: Number of relevant iterations not set.
  Defaulting to    8 iterations.
  Pulay mixer: Number of initial linear mixing iterations not set.
  Defaulting to    0 iterations.
  Work space size for distributed Hartree potential not set.
  Defaulting to   0.200000E+03 MB.
  Mixing parameter for charge density mixing has not been set.
  Using default: charge_mix_param =     0.0500.
  The mixing parameter will be adjusted in iteration number     2 of the first full s.c.f. cycle only.
  Algorithm-dependent basis array size parameters:
  | n_max_pulay                         :        8
  Presetting        40 iterations before the initial mixing cycle
  is restarted anyway using the sc_init_iter criterion / keyword.
  Presetting a factor      1.000 between actual scf density residual
  and density convergence criterion sc_accuracy_rho below which sc_init_iter
  takes no effect.
  Geometry relaxation not requested: no relaxation will be performed.
  Force calculation: scf convergence accuracy of forces not set.
  Defaulting to 'sc_accuracy_forces not_checked'.
  Handling of forces: Unphysical translation and rotation will be removed from forces.
  No accuracy limit for integral partition fn. given. Defaulting to  0.1000E-14.
  No threshold value for u(r) in integrations given. Defaulting to  0.1000E-05.
  No occupation type (smearing scheme) given. Defaulting to Gaussian broadening, width =  0.1000E-01 eV.
  The width will be adjusted in iteration number     2 of the first full s.c.f. cycle only.
  S.C.F. convergence parameters will be adjusted in iteration number     2 of the first full s.c.f. cycle only.
  No accuracy for occupation numbers given. Defaulting to  0.1000E-12.
  No threshold value for occupation numbers given. Defaulting to  0.0000E+00.
  No accuracy for fermi level given. Defaulting to  0.1000E-19.
  Maximum # of iterations to find E_F not set. Defaulting to  200.
  Preferred method for the eigenvalue solver ('KS_method') not specified in 'control.in'.
  Calling BLACS routine to test compilation state
  The best choice would be 'elsi', but your version of FHI-aims is compiled without ScaLAPACK support.
  Defaulting to 'lapack_fast' instead (serial solution, time will not improve with more CPUs).
  Will not use alltoall communication since running on < 1024 CPUs.
  Threshold for basis singularities not set.
  Default threshold for basis singularities:  0.1000E-04
  partition_type (choice of integration weights) for integrals was not specified.
  | Using a version of the partition function of Stratmann and coworkers ('stratmann_smoother').
  | At each grid point, the set of atoms used to build the partition table is smoothly restricted to
  | only those atoms whose free-atom density would be non-zero at that grid point.
  Partitioning for Hartree potential was not defined. Using partition_type for integrals.
  | Adjusted default value of keyword multip_moments_threshold to:       0.10000000E-11
  | This value may affect high angular momentum components of the Hartree potential in periodic systems.
  Spin handling was not defined in control.in. Defaulting to unpolarized case.
  No q(lm)/r^(l+1) cutoff set for long-range Hartree potential.
  | Using default value of  0.100000E-09 .
  | Verify using the multipole_threshold keyword.
  Defaulting to new monopole extrapolation.
  Density update method: automatic selection selected.
------------------------------------------------------------


------------------------------------------------------------
          Reading geometry description geometry.in.
------------------------------------------------------------
  Input structure read successfully.
  The structure contains       12 atoms,  and a total of         32.000 electrons.

  Input geometry:
  | No unit cell requested.
  | Atomic structure:
  |       Atom                x [A]            y [A]            z [A]
  |    1: Species C            -1.46797744       -1.11294366       -0.15759296
  |    2: Species C            -0.68042766       -0.03855227        0.57084143
  |    3: Species C             0.68042760        0.03855238        0.57084148
  |    4: Species C             1.46797744        1.11294364       -0.15759304
  |    5: Species H            -0.94535511       -1.29564399       -1.11436467
  |    6: Species H            -2.44144605       -0.68152994       -0.44351079
  |    7: Species H            -1.64977210       -2.08745937        0.31021662
  |    8: Species H            -1.27399515        0.84248294        0.83441041
  |    9: Species H             1.27399506       -0.84248279        0.83441067
  |   10: Species H             0.94535493        1.29564427       -1.11436458
  |   11: Species H             1.64977266        2.08745921        0.31021662
  |   12: Species H             2.44144582        0.68152959       -0.44351118
  |

  | The smallest distance between any two atoms is         1.09453826 AA.
  |
  | The first atom of this pair is atom number                      3 .
  | The second atom of this pair is atom number                     9 .

  Number of empty states per atom not set in control.in - providing a guess from actual geometry.
  | Total number of empty states used during s.c.f. cycle:       24
  If you use a very high smearing, use empty_states (per atom!) in control.in to increase this value.

  Structure-dependent array size parameters: 
  | Maximum number of distinct radial functions  :        9
  | Maximum number of basis functions            :       96
  | Number of Kohn-Sham states (occupied + empty):       40
------------------------------------------------------------

------------------------------------------------------------
          Preparing all fixed parts of the calculation.
------------------------------------------------------------
  Determining machine precision:
    2.225073858507201E-308
  Setting up grids for atomic and cluster calculations.

  Creating wave function, potential, and density for free atoms.

  Species: H

  List of occupied orbitals and eigenvalues:
    n    l              occ      energy [Ha]    energy [eV]
    1    0           1.0000        -0.237589        -6.4651


  Species: C

  List of occupied orbitals and eigenvalues:
    n    l              occ      energy [Ha]    energy [eV]
    1    0           2.0000       -10.038835      -273.1706
    2    0           2.0000        -0.502696       -13.6791
    2    1           2.0000        -0.191971        -5.2238

  Creating fixed part of basis set: Ionic, confined, hydrogenic.
 
  H                    hydrogenic:
 
  List of hydrogenic basis orbitals: 
    n    l      effective z      eigenvalue [eV]  inner max. [A]     outer max. [A]     outer radius [A]   
    2    0         2.100000       -14.9728           0.193243           1.317208           4.583499
    2    1         3.500000       -41.6669           0.602369           0.602369           3.723403
 
 
  C                    hydrogenic:
 
  List of hydrogenic basis orbitals: 
    n    l      effective z      eigenvalue [eV]  inner max. [A]     outer max. [A]     outer radius [A]   
    2    1         1.700000        -9.7616           1.230570           1.230570           4.607917
    3    2         6.000000       -54.4224           0.792453           0.792453           3.883070
    2    0         4.900000       -81.6679           0.082559           0.562749           3.078220
 

  Adding cutoff potential to free-atom effective potential.
  Creating atomic-like basis functions for current effective potential.

  Species H                   :

  List of atomic basis orbitals and eigenvalues:
    n    l      energy [Ha]    energy [eV]    outer radius [A]
    1    0        -0.237589        -6.4651       4.527807


  Species C                   :

  List of atomic basis orbitals and eigenvalues:
    n    l      energy [Ha]    energy [eV]    outer radius [A]
    1    0       -10.038835      -273.1706       1.934409
    2    0        -0.502696       -13.6791       4.496620
    2    1        -0.191971        -5.2238       4.551928

  Assembling full basis from fixed parts.
  | Species H :   atomic orbital   1 s accepted.
  | Species H :    hydro orbital   2 s accepted.
  | Species H :    hydro orbital   2 p accepted.
  | Species C :   atomic orbital   1 s accepted.
  | Species C :    hydro orbital   2 s accepted.
  | Species C :   atomic orbital   2 s accepted.
  | Species C :   atomic orbital   2 p accepted.
  | Species C :    hydro orbital   2 p accepted.
  | Species C :    hydro orbital   3 d accepted.
 
  Basis size parameters after reduction:
  | Total number of radial functions:        9
  | Total number of basis functions :       96
 
  Per-task memory consumption for arrays in subroutine allocate_ext:
  |           2.209696MB.
  Testing on-site integration grid accuracy.
  |  Species  Function  <phi|h_atom|phi> (log., in eV)  <phi|h_atom|phi> (rad., in eV)
           1        1                 -6.4663192853                 -6.4651273558
           1        2                 13.7111246313                 13.7170609718
           1        3                 25.2673269279                 25.2674696378
           2        4               -273.1705927641               -273.1705631568
           2        5                -10.7109323383                -10.7107120029
           2        6                 17.4381822266                 17.4352413244
           2        7                 -5.2255326521                 -5.2270484734
           2        8                  8.6835629259                  8.6603288385
           2        9                 27.4952418996                 27.4953360207

  Preparing densities etc. for the partition functions (integrals / Hartree potential).

  Preparations completed.
  max(cpu_time)          :      0.128 s.
  Wall clock time (cpu1) :      0.139 s.
------------------------------------------------------------

------------------------------------------------------------
          Begin self-consistency loop: Initialization.

          Date     :  20180215, Time     :  214330.749
------------------------------------------------------------

  Initializing index lists of integration centers etc. from given atomic structure:
  | Number of centers in hartree potential         :        12
  | Number of centers in hartree multipole         :        12
  | Number of centers in electron density summation:        12
  | Number of centers in basis integrals           :        12
  | Number of centers in integrals                 :        12
  | Number of centers in hamiltonian               :        12
  Partitioning the integration grid into batches with parallel hashing+maxmin method.
  | Number of batches:      768
  | Maximal batch size:     168
  | Minimal batch size:      50
  | Average batch size:      79.354
  | Standard deviation of batch sizes:      19.331

  Integration load balanced across     8 MPI tasks.
  Work distribution over tasks is as follows:
  Task     0 has       7618 integration points.
  Task     1 has       7598 integration points.
  Task     2 has       7657 integration points.
  Task     3 has       7576 integration points.
  Task     4 has       7641 integration points.
  Task     5 has       7618 integration points.
  Task     6 has       7640 integration points.
  Task     7 has       7596 integration points.
  Initializing partition tables, free-atom densities, potentials, etc. across the integration grid (initialize_grid_storage).
  | initialize_grid_storage: Actual outermost partition radius vs. multipole_radius_free
  | (-- VB: in principle, multipole_radius_free should be larger, hence this output)
  | Species        1: Confinement radius =              4.999999999999999 AA, multipole_radius_free =              5.054417573612229 AA.
  | Species        1: outer_partition_radius set to              5.054417573612229 AA .
  | Species        2: Confinement radius =              4.999999999999999 AA, multipole_radius_free =              5.019602836301480 AA.
  | Species        2: outer_partition_radius set to              5.019602836301480 AA .
  | Original list of interatomic distances with          12 x         12 entries is created.
  | Net number of integration points:    60944
  | of which are non-zero points    :    52378
  Renormalizing the initial density to the exact electron count on the 3D integration grid.
  | Initial density: Formal number of electrons (from input files) :      32.0000000000
  | Integrated number of electrons on 3D grid     :      31.9997920632
  | Charge integration error                      :      -0.0002079368
  | Normalization factor for density and gradient :       1.0000064981
  Obtaining max. number of non-zero basis functions in each batch (get_n_compute_maxes).
  | Maximal number of non-zero basis functions:       96 in task     0
  | Maximal number of non-zero basis functions:       96 in task     1
  | Maximal number of non-zero basis functions:       96 in task     2
  | Maximal number of non-zero basis functions:       96 in task     3
  | Maximal number of non-zero basis functions:       96 in task     4
  | Maximal number of non-zero basis functions:       96 in task     5
  | Maximal number of non-zero basis functions:       96 in task     6
  | Maximal number of non-zero basis functions:       96 in task     7
  Selecting the method for density update.
  Loop over occupied states selected for charge density update.
  Allocating        0.031 MB for KS_eigenvector
  Integrating Hamiltonian matrix: batch-based integration.
  Time summed over all CPUs for integration: real work        1.376 s, elapsed        2.003 s => Consider using load balancing!
  Integrating overlap matrix.
  Time summed over all CPUs for integration: real work        0.496 s, elapsed        0.608 s

  Updating Kohn-Sham eigenvalues, eigenvectors, occupation numbers, and Fermi level.
  Solving generalized eigenproblem
  Updating Kohn-Sham eigenvalues and eigenfunctions.
  Transforming overlap matrix and checking for singularities.
  Overlap matrix is nonsingular:
  | Lowest eigenvalue:  0.435483E-02
  Solving real generalised eigenvalue problem by standard LAPACK (fast)

  Obtaining occupation numbers and chemical potential using ELSI.
  | Chemical potential (Fermi level):    -7.19124274eV
  Writing Kohn-Sham eigenvalues.

  State    Occupation    Eigenvalue [Ha]    Eigenvalue [eV]
      1       2.00000         -10.164713         -276.59592
      2       2.00000         -10.164713         -276.59592
      3       2.00000         -10.146014         -276.08709
      4       2.00000         -10.145478         -276.07251
      5       2.00000          -0.919376          -25.01749
      6       2.00000          -0.849620          -23.11934
      7       2.00000          -0.780570          -21.24038
      8       2.00000          -0.666907          -18.14746
      9       2.00000          -0.584642          -15.90892
     10       2.00000          -0.575447          -15.65872
     11       2.00000          -0.555040          -15.10341
     12       2.00000          -0.533220          -14.50967
     13       2.00000          -0.516011          -14.04137
     14       2.00000          -0.508387          -13.83391
     15       2.00000          -0.476912          -12.97744
     16       2.00000          -0.342804           -9.32818
     17       0.00000          -0.231013           -6.28620
     18       0.00000          -0.034853           -0.94839
     19       0.00000          -0.022465           -0.61129
     20       0.00000          -0.014054           -0.38242
     21       0.00000          -0.007050           -0.19184
     22       0.00000           0.004300            0.11701
     23       0.00000           0.025761            0.70099
     24       0.00000           0.049356            1.34304
     25       0.00000           0.051133            1.39139
     26       0.00000           0.070268            1.91209
     27       0.00000           0.107832            2.93426
     28       0.00000           0.176432            4.80095
     29       0.00000           0.196756            5.35401
     30       0.00000           0.219976            5.98584
     31       0.00000           0.224295            6.10338
     32       0.00000           0.236844            6.44486
     33       0.00000           0.248074            6.75044
     34       0.00000           0.268823            7.31504
     35       0.00000           0.306466            8.33937
     36       0.00000           0.370234           10.07459
     37       0.00000           0.403558           10.98137
     38       0.00000           0.468882           12.75893
     39       0.00000           0.479285           13.04202
     40       0.00000           0.484499           13.18390

  Highest occupied state (VBM) at     -9.32817965 eV
  | Occupation number:      2.00000000

  Lowest unoccupied state (CBM) at    -6.28619608 eV
  | Occupation number:      0.00000000

  Overall HOMO-LUMO gap:      3.04198357 eV.
  Calculating total energy contributions from superposition of free atom densities.

  Total energy components:
  | Sum of eigenvalues            :         -95.85971165 Ha       -2608.47547170 eV
  | XC energy correction          :         -23.63956126 Ha        -643.26519099 eV
  | XC potential correction       :          30.36582997 Ha         826.29627487 eV
  | Free-atom electrostatic energy:         -68.12704398 Ha       -1853.83118859 eV
  | Hartree energy correction     :           0.00000000 Ha           0.00000000 eV
  | vdW energy correction         :           0.00000000 Ha           0.00000000 eV
  | Entropy correction            :           0.00000000 Ha           0.00000000 eV
  | ---------------------------
  | Total energy                  :        -157.26048693 Ha       -4279.27557641 eV
  | Total energy, T -> 0          :        -157.26048693 Ha       -4279.27557641 eV  <-- do not rely on this value for anything but (periodic) metals
  | Electronic free energy        :        -157.26048693 Ha       -4279.27557641 eV

  Derived energy quantities:
  | Kinetic energy                :         154.20741619 Ha        4196.19729462 eV
  | Electrostatic energy          :        -287.82834185 Ha       -7832.20768004 eV
  | Energy correction for multipole
  | error in Hartree potential    :           0.00000000 Ha           0.00000000 eV
  | Sum of eigenvalues per atom                           :        -217.37295597 eV
  | Total energy (T->0) per atom                          :        -356.60629803 eV  <-- do not rely on this value for anything but (periodic) metals
  | Electronic free energy per atom                       :        -356.60629803 eV
  Initialize hartree_potential_storage
  Max. number of atoms included in rho_multipole:           12

  End scf initialization - timings             :  max(cpu_time)    wall_clock(cpu1)
  | Time for scf. initialization               :        0.584 s           0.586 s
  | Boundary condition initialization          :        0.000 s           0.002 s
  | Integration                                :        0.352 s           0.351 s
  | Solution of K.-S. eqns.                    :        0.012 s           0.011 s
  | Grid partitioning                          :        0.084 s           0.081 s
  | Preloading free-atom quantities on grid    :        0.004 s           0.005 s
  | Free-atom superposition energy             :        0.024 s           0.025 s
  | Total energy evaluation                    :        0.000 s           0.000 s

  Partial memory accounting:
  | Current value for overall tracked memory usage on task 0  :           0.179 MB
  | Peak value for overall tracked memory usage on task 0     :           0.569 MB after allocating wave
  | Largest tracked array allocation on task 0 so far         :           0.129 MB  when allocating H_times_psi
  Note:  These values currently only include a subset of arrays which are explicitly tracked.
  The "true" memory usage will be greater.
------------------------------------------------------------

------------------------------------------------------------
          Begin self-consistency iteration #    1

  Date     :  20180215, Time     :  214331.336
------------------------------------------------------------
  Evaluating new KS density.
  Integration grid: deviation in total charge (<rho> - N_e) =  -3.552714E-15
  Pulay mixing of updated and previous charge densities.

  Evaluating partitioned Hartree potential by multipole expansion.
  | Analytical far-field extrapolation by fixed multipoles:
  | Hartree multipole sum: apparent total charge =  -0.235799E-03
  Summing up the Hartree potential.
  Time summed over all CPUs for potential: real work        1.246 s, elapsed        1.294 s
  | RMS charge density error from multipole expansion :   0.127323E-02

  Integrating Hamiltonian matrix: batch-based integration.
  Time summed over all CPUs for integration: real work        1.311 s, elapsed        1.542 s

  Updating Kohn-Sham eigenvalues, eigenvectors, occupation numbers, and Fermi level.
  Solving generalized eigenproblem
  Updating Kohn-Sham eigenvalues and eigenfunctions.
  Solving real generalised eigenvalue problem by standard LAPACK (fast)

  Obtaining occupation numbers and chemical potential using ELSI.
  | Chemical potential (Fermi level):    -6.83802850eV
  Writing Kohn-Sham eigenvalues.

  State    Occupation    Eigenvalue [Ha]    Eigenvalue [eV]
      1       2.00000         -10.130448         -275.66353
      2       2.00000         -10.130448         -275.66353
      3       2.00000         -10.117739         -275.31768
      4       2.00000         -10.117203         -275.30309
      5       2.00000          -0.899789          -24.48451
      6       2.00000          -0.831004          -22.61276
      7       2.00000          -0.761776          -20.72898
      8       2.00000          -0.650761          -17.70811
      9       2.00000          -0.567081          -15.43106
     10       2.00000          -0.557277          -15.16427
     11       2.00000          -0.538198          -14.64510
     12       2.00000          -0.516938          -14.06659
     13       2.00000          -0.497897          -13.54847
     14       2.00000          -0.492125          -13.39140
     15       2.00000          -0.460870          -12.54090
     16       2.00000          -0.326400           -8.88179
     17       0.00000          -0.215066           -5.85225
     18       0.00000          -0.026292           -0.71545
     19       0.00000          -0.012677           -0.34495
     20       0.00000          -0.004696           -0.12778
     21       0.00000           0.002997            0.08154
     22       0.00000           0.016152            0.43953
     23       0.00000           0.035969            0.97875
     24       0.00000           0.059766            1.62632
     25       0.00000           0.062309            1.69551
     26       0.00000           0.082849            2.25444
     27       0.00000           0.120550            3.28033
     28       0.00000           0.189290            5.15083
     29       0.00000           0.206862            5.62900
     30       0.00000           0.229949            6.25724
     31       0.00000           0.235576            6.41034
     32       0.00000           0.247803            6.74305
     33       0.00000           0.260672            7.09325
     34       0.00000           0.281376            7.65663
     35       0.00000           0.318041            8.65433
     36       0.00000           0.381593           10.38368
     37       0.00000           0.413564           11.25366
     38       0.00000           0.480720           13.08106
     39       0.00000           0.490236           13.34000
     40       0.00000           0.495870           13.49331

  Highest occupied state (VBM) at     -8.88179343 eV
  | Occupation number:      2.00000000

  Lowest unoccupied state (CBM) at    -5.85224580 eV
  | Occupation number:      0.00000000

  Overall HOMO-LUMO gap:      3.02954763 eV.

  Total energy components:
  | Sum of eigenvalues            :         -95.19190623 Ha       -2590.30356168 eV
  | XC energy correction          :         -23.69921946 Ha        -644.88857309 eV
  | XC potential correction       :          30.44313328 Ha         828.39980512 eV
  | Free-atom electrostatic energy:         -68.12704398 Ha       -1853.83118859 eV
  | Hartree energy correction     :          -0.63792571 Ha         -17.35884189 eV
  | vdW energy correction         :           0.00000000 Ha           0.00000000 eV
  | Entropy correction            :           0.00000000 Ha           0.00000000 eV
  | ---------------------------
  | Total energy                  :        -157.21296210 Ha       -4277.98236014 eV
  | Total energy, T -> 0          :        -157.21296210 Ha       -4277.98236014 eV  <-- do not rely on this value for anything but (periodic) metals
  | Electronic free energy        :        -157.21296210 Ha       -4277.98236014 eV

  Derived energy quantities:
  | Kinetic energy                :         154.52764080 Ha        4204.91104967 eV
  | Electrostatic energy          :        -288.04138344 Ha       -7838.00483671 eV
  | Energy correction for multipole
  | error in Hartree potential    :           0.00220737 Ha           0.06006560 eV
  | Sum of eigenvalues per atom                           :        -215.85863014 eV
  | Total energy (T->0) per atom                          :        -356.49853001 eV  <-- do not rely on this value for anything but (periodic) metals
  | Electronic free energy per atom                       :        -356.49853001 eV

  Self-consistency convergence accuracy:
  | Change of charge density      :  0.4834E+00
  | Change of sum of eigenvalues  :  0.1817E+02 eV
  | Change of total energy        :  0.1293E+01 eV

  End self-consistency iteration #     1       :  max(cpu_time)    wall_clock(cpu1)
  | Time for this iteration                    :        0.580 s           0.580 s
  | Charge density update                      :        0.184 s           0.181 s
  | Density mixing                             :        0.004 s           0.002 s
  | Hartree multipole update                   :        0.012 s           0.011 s
  | Hartree multipole summation                :        0.176 s           0.174 s
  | Integration                                :        0.208 s           0.207 s
  | Solution of K.-S. eqns.                    :        0.004 s           0.002 s
  | Total energy evaluation                    :        0.000 s           0.001 s

  Partial memory accounting:
  | Current value for overall tracked memory usage on task 0  :           0.179 MB
  | Peak value for overall tracked memory usage on task 0     :           0.695 MB after allocating gradient_basis_wave
  | Largest tracked array allocation on task 0 so far         :           0.387 MB  when allocating gradient_basis_wave
  Note:  These values currently only include a subset of arrays which are explicitly tracked.
  The "true" memory usage will be greater.
------------------------------------------------------------

------------------------------------------------------------
          Begin self-consistency iteration #    2

  Date     :  20180215, Time     :  214331.917
------------------------------------------------------------
  Evaluating new KS density.
  Integration grid: deviation in total charge (<rho> - N_e) =  -1.065814E-14
  Pulay mixing of updated and previous charge densities.

  Evaluating partitioned Hartree potential by multipole expansion.
  | Analytical far-field extrapolation by fixed multipoles:
  | Hartree multipole sum: apparent total charge =  -0.479001E-03
  Summing up the Hartree potential.
  Time summed over all CPUs for potential: real work        1.285 s, elapsed        1.592 s
  | RMS charge density error from multipole expansion :   0.125150E-01

  Integrating Hamiltonian matrix: batch-based integration.
  Time summed over all CPUs for integration: real work        1.474 s, elapsed        2.115 s => Consider using load balancing!

  Updating Kohn-Sham eigenvalues, eigenvectors, occupation numbers, and Fermi level.
  Solving generalized eigenproblem
  Updating Kohn-Sham eigenvalues and eigenfunctions.
  Solving real generalised eigenvalue problem by standard LAPACK (fast)

  Obtaining occupation numbers and chemical potential using ELSI.
  | Chemical potential (Fermi level):    -3.87817952eV
  Highest occupied state (VBM) at     -5.21055746 eV
  | Occupation number:      2.00000000

  Lowest unoccupied state (CBM) at    -2.32065945 eV
  | Occupation number:      0.00000000

  Overall HOMO-LUMO gap:      2.88989801 eV.

  Checking to see if s.c.f. parameters should be adjusted.
  The system likely has a gap. Increased the default Pulay mixing parameter (charge_mix_param). Value:   0.200000 .
  Kept the default occupation width. Value:   0.010000 eV.

  Total energy components:
  | Sum of eigenvalues            :         -89.62959920 Ha       -2438.94548654 eV
  | XC energy correction          :         -24.24796610 Ha        -659.82072879 eV
  | XC potential correction       :          31.15387227 Ha         847.73999706 eV
  | Free-atom electrostatic energy:         -68.12704398 Ha       -1853.83118859 eV
  | Hartree energy correction     :          -6.16688835 Ha        -167.80957008 eV
  | vdW energy correction         :           0.00000000 Ha           0.00000000 eV
  | Entropy correction            :           0.00000000 Ha           0.00000000 eV
  | ---------------------------
  | Total energy                  :        -157.01762536 Ha       -4272.66697694 eV
  | Total energy, T -> 0          :        -157.01762536 Ha       -4272.66697694 eV  <-- do not rely on this value for anything but (periodic) metals
  | Electronic free energy        :        -157.01762536 Ha       -4272.66697694 eV

  Derived energy quantities:
  | Kinetic energy                :         156.88476778 Ha        4269.05173814 eV
  | Electrostatic energy          :        -289.65442704 Ha       -7881.89798628 eV
  | Energy correction for multipole
  | error in Hartree potential    :           0.02087219 Ha           0.56796109 eV
  | Sum of eigenvalues per atom                           :        -203.24545721 eV
  | Total energy (T->0) per atom                          :        -356.05558141 eV  <-- do not rely on this value for anything but (periodic) metals
  | Electronic free energy per atom                       :        -356.05558141 eV

  Self-consistency convergence accuracy:
  | Change of charge density      :  0.4449E+00
  | Change of sum of eigenvalues  :  0.1514E+03 eV
  | Change of total energy        :  0.5315E+01 eV

  End self-consistency iteration #     2       :  max(cpu_time)    wall_clock(cpu1)
  | Time for this iteration                    :        0.728 s           0.740 s
  | Charge density update                      :        0.200 s           0.200 s
  | Density mixing                             :        0.004 s           0.005 s
  | Hartree multipole update                   :        0.016 s           0.017 s
  | Hartree multipole summation                :        0.216 s           0.216 s
  | Integration                                :        0.288 s           0.287 s
  | Solution of K.-S. eqns.                    :        0.004 s           0.004 s
  | Total energy evaluation                    :        0.000 s           0.000 s

  Partial memory accounting:
  | Current value for overall tracked memory usage on task 0  :           0.180 MB
  | Peak value for overall tracked memory usage on task 0     :           0.695 MB after allocating gradient_basis_wave
  | Largest tracked array allocation on task 0 so far         :           0.387 MB  when allocating gradient_basis_wave
  Note:  These values currently only include a subset of arrays which are explicitly tracked.
  The "true" memory usage will be greater.
------------------------------------------------------------

------------------------------------------------------------
          Begin self-consistency iteration #    3

  Date     :  20180215, Time     :  214332.657
------------------------------------------------------------
  Evaluating new KS density.
  Integration grid: deviation in total charge (<rho> - N_e) =   1.421085E-14
  Pulay mixing of updated and previous charge densities.

  Evaluating partitioned Hartree potential by multipole expansion.
  | Analytical far-field extrapolation by fixed multipoles:
  | Hartree multipole sum: apparent total charge =  -0.467258E-03
  Summing up the Hartree potential.
  Time summed over all CPUs for potential: real work        1.333 s, elapsed        1.848 s
  | RMS charge density error from multipole expansion :   0.157187E-01

  Integrating Hamiltonian matrix: batch-based integration.
  Time summed over all CPUs for integration: real work        1.340 s, elapsed        1.464 s

  Updating Kohn-Sham eigenvalues, eigenvectors, occupation numbers, and Fermi level.
  Solving generalized eigenproblem
  Updating Kohn-Sham eigenvalues and eigenfunctions.
  Solving real generalised eigenvalue problem by standard LAPACK (fast)

  Obtaining occupation numbers and chemical potential using ELSI.
  | Chemical potential (Fermi level):    -4.15250778eV
  Highest occupied state (VBM) at     -5.77132385 eV
  | Occupation number:      2.00000000

  Lowest unoccupied state (CBM) at    -2.86649133 eV
  | Occupation number:      0.00000000

  Overall HOMO-LUMO gap:      2.90483252 eV.

  Total energy components:
  | Sum of eigenvalues            :         -90.48212060 Ha       -2462.14377394 eV
  | XC energy correction          :         -24.21259274 Ha        -658.85817090 eV
  | XC potential correction       :          31.10453998 Ha         846.39759701 eV
  | Free-atom electrostatic energy:         -68.12704398 Ha       -1853.83118859 eV
  | Hartree energy correction     :          -5.29346607 Ha        -144.04254067 eV
  | vdW energy correction         :           0.00000000 Ha           0.00000000 eV
  | Entropy correction            :           0.00000000 Ha           0.00000000 eV
  | ---------------------------
  | Total energy                  :        -157.01068342 Ha       -4272.47807710 eV
  | Total energy, T -> 0          :        -157.01068342 Ha       -4272.47807710 eV  <-- do not rely on this value for anything but (periodic) metals
  | Electronic free energy        :        -157.01068342 Ha       -4272.47807710 eV

  Derived energy quantities:
  | Kinetic energy                :         156.25948286 Ha        4252.03686985 eV
  | Electrostatic energy          :        -289.05757353 Ha       -7865.65677605 eV
  | Energy correction for multipole
  | error in Hartree potential    :           0.02535101 Ha           0.68983600 eV
  | Sum of eigenvalues per atom                           :        -205.17864783 eV
  | Total energy (T->0) per atom                          :        -356.03983976 eV  <-- do not rely on this value for anything but (periodic) metals
  | Electronic free energy per atom                       :        -356.03983976 eV

  Self-consistency convergence accuracy:
  | Change of charge density      :  0.2086E+00
  | Change of sum of eigenvalues  : -0.2320E+02 eV
  | Change of total energy        :  0.1889E+00 eV

  End self-consistency iteration #     3       :  max(cpu_time)    wall_clock(cpu1)
  | Time for this iteration                    :        0.748 s           0.738 s
  | Charge density update                      :        0.272 s           0.262 s
  | Density mixing                             :        0.012 s           0.009 s
  | Hartree multipole update                   :        0.020 s           0.018 s
  | Hartree multipole summation                :        0.248 s           0.249 s
  | Integration                                :        0.200 s           0.196 s
  | Solution of K.-S. eqns.                    :        0.004 s           0.002 s
  | Total energy evaluation                    :        0.004 s           0.000 s

  Partial memory accounting:
  | Current value for overall tracked memory usage on task 0  :           0.180 MB
  | Peak value for overall tracked memory usage on task 0     :           0.696 MB after allocating gradient_basis_wave
  | Largest tracked array allocation on task 0 so far         :           0.387 MB  when allocating gradient_basis_wave
  Note:  These values currently only include a subset of arrays which are explicitly tracked.
  The "true" memory usage will be greater.
------------------------------------------------------------

------------------------------------------------------------
          Begin self-consistency iteration #    4

  Date     :  20180215, Time     :  214333.395
------------------------------------------------------------
  Evaluating new KS density.
  Integration grid: deviation in total charge (<rho> - N_e) =   0.000000E+00
  Pulay mixing of updated and previous charge densities.

  Evaluating partitioned Hartree potential by multipole expansion.
  | Analytical far-field extrapolation by fixed multipoles:
  | Hartree multipole sum: apparent total charge =  -0.532180E-03
  Summing up the Hartree potential.
  Time summed over all CPUs for potential: real work        1.282 s, elapsed        1.416 s
  | RMS charge density error from multipole expansion :   0.212007E-01

  Integrating Hamiltonian matrix: batch-based integration.
  Time summed over all CPUs for integration: real work        1.510 s, elapsed        2.016 s => Consider using load balancing!

  Updating Kohn-Sham eigenvalues, eigenvectors, occupation numbers, and Fermi level.
  Solving generalized eigenproblem
  Updating Kohn-Sham eigenvalues and eigenfunctions.
  Solving real generalised eigenvalue problem by standard LAPACK (fast)

  Obtaining occupation numbers and chemical potential using ELSI.
  | Chemical potential (Fermi level):    -3.52299381eV
  Highest occupied state (VBM) at     -5.14480459 eV
  | Occupation number:      2.00000000

  Lowest unoccupied state (CBM) at    -2.27937907 eV
  | Occupation number:      0.00000000

  Overall HOMO-LUMO gap:      2.86542552 eV.

  Total energy components:
  | Sum of eigenvalues            :         -89.60701320 Ha       -2438.33088995 eV
  | XC energy correction          :         -24.34806109 Ha        -662.54445221 eV
  | XC potential correction       :          31.27779341 Ha         851.11206272 eV
  | Free-atom electrostatic energy:         -68.12704398 Ha       -1853.83118859 eV
  | Hartree energy correction     :          -6.19661525 Ha        -168.61848006 eV
  | vdW energy correction         :           0.00000000 Ha           0.00000000 eV
  | Entropy correction            :           0.00000000 Ha           0.00000000 eV
  | ---------------------------
  | Total energy                  :        -157.00094011 Ha       -4272.21294810 eV
  | Total energy, T -> 0          :        -157.00094011 Ha       -4272.21294810 eV  <-- do not rely on this value for anything but (periodic) metals
  | Electronic free energy        :        -157.00094011 Ha       -4272.21294810 eV

  Derived energy quantities:
  | Kinetic energy                :         156.31247643 Ha        4253.47889819 eV
  | Electrostatic energy          :        -288.96535544 Ha       -7863.14739408 eV
  | Energy correction for multipole
  | error in Hartree potential    :           0.03258748 Ha           0.88675052 eV
  | Sum of eigenvalues per atom                           :        -203.19424083 eV
  | Total energy (T->0) per atom                          :        -356.01774567 eV  <-- do not rely on this value for anything but (periodic) metals
  | Electronic free energy per atom                       :        -356.01774567 eV

  Self-consistency convergence accuracy:
  | Change of charge density      :  0.1226E+00
  | Change of sum of eigenvalues  :  0.2381E+02 eV
  | Change of total energy        :  0.2651E+00 eV

  End self-consistency iteration #     4       :  max(cpu_time)    wall_clock(cpu1)
  | Time for this iteration                    :        0.684 s           0.681 s
  | Charge density update                      :        0.192 s           0.191 s
  | Density mixing                             :        0.008 s           0.006 s
  | Hartree multipole update                   :        0.012 s           0.010 s
  | Hartree multipole summation                :        0.192 s           0.191 s
  | Integration                                :        0.272 s           0.271 s
  | Solution of K.-S. eqns.                    :        0.004 s           0.002 s
  | Total energy evaluation                    :        0.000 s           0.009 s

  Partial memory accounting:
  | Current value for overall tracked memory usage on task 0  :           0.180 MB
  | Peak value for overall tracked memory usage on task 0     :           0.696 MB after allocating gradient_basis_wave
  | Largest tracked array allocation on task 0 so far         :           0.387 MB  when allocating gradient_basis_wave
  Note:  These values currently only include a subset of arrays which are explicitly tracked.
  The "true" memory usage will be greater.
------------------------------------------------------------

------------------------------------------------------------
          Begin self-consistency iteration #    5

  Date     :  20180215, Time     :  214334.078
------------------------------------------------------------
  Evaluating new KS density.
  Integration grid: deviation in total charge (<rho> - N_e) =   7.105427E-15
  Pulay mixing of updated and previous charge densities.

  Evaluating partitioned Hartree potential by multipole expansion.
  | Analytical far-field extrapolation by fixed multipoles:
  | Hartree multipole sum: apparent total charge =  -0.558068E-03
  Summing up the Hartree potential.
  Time summed over all CPUs for potential: real work        1.361 s, elapsed        1.557 s
  | RMS charge density error from multipole expansion :   0.217347E-01

  Integrating Hamiltonian matrix: batch-based integration.
  Time summed over all CPUs for integration: real work        1.386 s, elapsed        1.666 s

  Updating Kohn-Sham eigenvalues, eigenvectors, occupation numbers, and Fermi level.
  Solving generalized eigenproblem
  Updating Kohn-Sham eigenvalues and eigenfunctions.
  Solving real generalised eigenvalue problem by standard LAPACK (fast)

  Obtaining occupation numbers and chemical potential using ELSI.
  | Chemical potential (Fermi level):    -3.35732400eV
  Highest occupied state (VBM) at     -4.90975182 eV
  | Occupation number:      2.00000000

  Lowest unoccupied state (CBM) at    -2.05499901 eV
  | Occupation number:      0.00000000

  Overall HOMO-LUMO gap:      2.85475281 eV.

  Total energy components:
  | Sum of eigenvalues            :         -89.37778501 Ha       -2432.09327380 eV
  | XC energy correction          :         -24.36681069 Ha        -663.05465459 eV
  | XC potential correction       :          31.30220322 Ha         851.77628762 eV
  | Free-atom electrostatic energy:         -68.12704398 Ha       -1853.83118859 eV
  | Hartree energy correction     :          -6.43053439 Ha        -174.98374385 eV
  | vdW energy correction         :           0.00000000 Ha           0.00000000 eV
  | Entropy correction            :           0.00000000 Ha           0.00000000 eV
  | ---------------------------
  | Total energy                  :        -156.99997085 Ha       -4272.18657321 eV
  | Total energy, T -> 0          :        -156.99997085 Ha       -4272.18657321 eV  <-- do not rely on this value for anything but (periodic) metals
  | Electronic free energy        :        -156.99997085 Ha       -4272.18657321 eV

  Derived energy quantities:
  | Kinetic energy                :         156.27912989 Ha        4252.57149275 eV
  | Electrostatic energy          :        -288.91229005 Ha       -7861.70341137 eV
  | Energy correction for multipole
  | error in Hartree potential    :           0.03195570 Ha           0.86955885 eV
  | Sum of eigenvalues per atom                           :        -202.67443948 eV
  | Total energy (T->0) per atom                          :        -356.01554777 eV  <-- do not rely on this value for anything but (periodic) metals
  | Electronic free energy per atom                       :        -356.01554777 eV

  Self-consistency convergence accuracy:
  | Change of charge density      :  0.2954E-01
  | Change of sum of eigenvalues  :  0.6238E+01 eV
  | Change of total energy        :  0.2637E-01 eV

  End self-consistency iteration #     5       :  max(cpu_time)    wall_clock(cpu1)
  | Time for this iteration                    :        0.752 s           0.769 s
  | Charge density update                      :        0.264 s           0.268 s
  | Density mixing                             :        0.012 s           0.015 s
  | Hartree multipole update                   :        0.024 s           0.025 s
  | Hartree multipole summation                :        0.208 s           0.213 s
  | Integration                                :        0.224 s           0.225 s
  | Solution of K.-S. eqns.                    :        0.004 s           0.021 s
  | Total energy evaluation                    :        0.000 s           0.000 s

  Partial memory accounting:
  | Current value for overall tracked memory usage on task 0  :           0.180 MB
  | Peak value for overall tracked memory usage on task 0     :           0.696 MB after allocating gradient_basis_wave
  | Largest tracked array allocation on task 0 so far         :           0.387 MB  when allocating gradient_basis_wave
  Note:  These values currently only include a subset of arrays which are explicitly tracked.
  The "true" memory usage will be greater.
------------------------------------------------------------

------------------------------------------------------------
          Begin self-consistency iteration #    6

  Date     :  20180215, Time     :  214334.847
------------------------------------------------------------
  Evaluating new KS density.
  Integration grid: deviation in total charge (<rho> - N_e) =   7.105427E-15
  Pulay mixing of updated and previous charge densities.

  Evaluating partitioned Hartree potential by multipole expansion.
  | Analytical far-field extrapolation by fixed multipoles:
  | Hartree multipole sum: apparent total charge =  -0.575343E-03
  Summing up the Hartree potential.
  Time summed over all CPUs for potential: real work        1.305 s, elapsed        1.586 s
  | RMS charge density error from multipole expansion :   0.220296E-01

  Integrating Hamiltonian matrix: batch-based integration.
  Time summed over all CPUs for integration: real work        1.327 s, elapsed        1.540 s

  Updating Kohn-Sham eigenvalues, eigenvectors, occupation numbers, and Fermi level.
  Solving generalized eigenproblem
  Updating Kohn-Sham eigenvalues and eigenfunctions.
  Solving real generalised eigenvalue problem by standard LAPACK (fast)

  Obtaining occupation numbers and chemical potential using ELSI.
  | Chemical potential (Fermi level):    -3.28255099eV
  Highest occupied state (VBM) at     -4.83430865 eV
  | Occupation number:      2.00000000

  Lowest unoccupied state (CBM) at    -1.98169476 eV
  | Occupation number:      0.00000000

  Overall HOMO-LUMO gap:      2.85261390 eV.

  Total energy components:
  | Sum of eigenvalues            :         -89.28775105 Ha       -2429.64332498 eV
  | XC energy correction          :         -24.37680976 Ha        -663.32674321 eV
  | XC potential correction       :          31.31517633 Ha         852.12930389 eV
  | Free-atom electrostatic energy:         -68.12704398 Ha       -1853.83118859 eV
  | Hartree energy correction     :          -6.52334723 Ha        -177.50930969 eV
  | vdW energy correction         :           0.00000000 Ha           0.00000000 eV
  | Entropy correction            :           0.00000000 Ha           0.00000000 eV
  | ---------------------------
  | Total energy                  :        -156.99977569 Ha       -4272.18126259 eV
  | Total energy, T -> 0          :        -156.99977569 Ha       -4272.18126259 eV  <-- do not rely on this value for anything but (periodic) metals
  | Electronic free energy        :        -156.99977569 Ha       -4272.18126259 eV

  Derived energy quantities:
  | Kinetic energy                :         156.23643628 Ha        4251.40974063 eV
  | Electrostatic energy          :        -288.85940221 Ha       -7860.26426001 eV
  | Energy correction for multipole
  | error in Hartree potential    :           0.03127891 Ha           0.85114247 eV
  | Sum of eigenvalues per atom                           :        -202.47027708 eV
  | Total energy (T->0) per atom                          :        -356.01510522 eV  <-- do not rely on this value for anything but (periodic) metals
  | Electronic free energy per atom                       :        -356.01510522 eV

  Self-consistency convergence accuracy:
  | Change of charge density      :  0.1453E-01
  | Change of sum of eigenvalues  :  0.2450E+01 eV
  | Change of total energy        :  0.5311E-02 eV

  End self-consistency iteration #     6       :  max(cpu_time)    wall_clock(cpu1)
  | Time for this iteration                    :        0.740 s           0.738 s
  | Charge density update                      :        0.268 s           0.274 s
  | Density mixing                             :        0.028 s           0.028 s
  | Hartree multipole update                   :        0.012 s           0.013 s
  | Hartree multipole summation                :        0.212 s           0.213 s
  | Integration                                :        0.208 s           0.207 s
  | Solution of K.-S. eqns.                    :        0.004 s           0.002 s
  | Total energy evaluation                    :        0.000 s           0.000 s

  Partial memory accounting:
  | Current value for overall tracked memory usage on task 0  :           0.180 MB
  | Peak value for overall tracked memory usage on task 0     :           0.696 MB after allocating gradient_basis_wave
  | Largest tracked array allocation on task 0 so far         :           0.387 MB  when allocating gradient_basis_wave
  Note:  These values currently only include a subset of arrays which are explicitly tracked.
  The "true" memory usage will be greater.
------------------------------------------------------------

------------------------------------------------------------
          Begin self-consistency iteration #    7

  Date     :  20180215, Time     :  214335.585
------------------------------------------------------------
  Evaluating new KS density.
  Integration grid: deviation in total charge (<rho> - N_e) =   0.000000E+00
  Pulay mixing of updated and previous charge densities.

  Evaluating partitioned Hartree potential by multipole expansion.
  | Analytical far-field extrapolation by fixed multipoles:
  | Hartree multipole sum: apparent total charge =  -0.578772E-03
  Summing up the Hartree potential.
  Time summed over all CPUs for potential: real work        1.263 s, elapsed        1.390 s
  | RMS charge density error from multipole expansion :   0.220013E-01

  Integrating Hamiltonian matrix: batch-based integration.
  Time summed over all CPUs for integration: real work        1.426 s, elapsed        1.887 s => Consider using load balancing!

  Updating Kohn-Sham eigenvalues, eigenvectors, occupation numbers, and Fermi level.
  Solving generalized eigenproblem
  Updating Kohn-Sham eigenvalues and eigenfunctions.
  Solving real generalised eigenvalue problem by standard LAPACK (fast)

  Obtaining occupation numbers and chemical potential using ELSI.
  | Chemical potential (Fermi level):    -3.26682284eV
  Highest occupied state (VBM) at     -4.81098996 eV
  | Occupation number:      2.00000000

  Lowest unoccupied state (CBM) at    -1.95914019 eV
  | Occupation number:      0.00000000

  Overall HOMO-LUMO gap:      2.85184977 eV.

  Total energy components:
  | Sum of eigenvalues            :         -89.26506261 Ha       -2429.02594111 eV
  | XC energy correction          :         -24.37794765 Ha        -663.35770684 eV
  | XC potential correction       :          31.31671495 Ha         852.17117178 eV
  | Free-atom electrostatic energy:         -68.12704398 Ha       -1853.83118859 eV
  | Hartree energy correction     :          -6.54640153 Ha        -178.13664910 eV
  | vdW energy correction         :           0.00000000 Ha           0.00000000 eV
  | Entropy correction            :           0.00000000 Ha           0.00000000 eV
  | ---------------------------
  | Total energy                  :        -156.99974082 Ha       -4272.18031386 eV
  | Total energy, T -> 0          :        -156.99974082 Ha       -4272.18031386 eV  <-- do not rely on this value for anything but (periodic) metals
  | Electronic free energy        :        -156.99974082 Ha       -4272.18031386 eV

  Derived energy quantities:
  | Kinetic energy                :         156.23426668 Ha        4251.35070283 eV
  | Electrostatic energy          :        -288.85605985 Ha       -7860.17330985 eV
  | Energy correction for multipole
  | error in Hartree potential    :           0.03101381 Ha           0.84392881 eV
  | Sum of eigenvalues per atom                           :        -202.41882843 eV
  | Total energy (T->0) per atom                          :        -356.01502616 eV  <-- do not rely on this value for anything but (periodic) metals
  | Electronic free energy per atom                       :        -356.01502616 eV

  Self-consistency convergence accuracy:
  | Change of charge density      :  0.5921E-02
  | Change of sum of eigenvalues  :  0.6174E+00 eV
  | Change of total energy        :  0.9487E-03 eV

  End self-consistency iteration #     7       :  max(cpu_time)    wall_clock(cpu1)
  | Time for this iteration                    :        0.676 s           0.679 s
  | Charge density update                      :        0.208 s           0.207 s
  | Density mixing                             :        0.012 s           0.016 s
  | Hartree multipole update                   :        0.012 s           0.011 s
  | Hartree multipole summation                :        0.188 s           0.187 s
  | Integration                                :        0.252 s           0.253 s
  | Solution of K.-S. eqns.                    :        0.004 s           0.004 s
  | Total energy evaluation                    :        0.000 s           0.001 s

  Partial memory accounting:
  | Current value for overall tracked memory usage on task 0  :           0.180 MB
  | Peak value for overall tracked memory usage on task 0     :           0.696 MB after allocating gradient_basis_wave
  | Largest tracked array allocation on task 0 so far         :           0.387 MB  when allocating gradient_basis_wave
  Note:  These values currently only include a subset of arrays which are explicitly tracked.
  The "true" memory usage will be greater.
------------------------------------------------------------

------------------------------------------------------------
          Begin self-consistency iteration #    8

  Date     :  20180215, Time     :  214336.265
------------------------------------------------------------
  Evaluating new KS density.
  Integration grid: deviation in total charge (<rho> - N_e) =   7.105427E-15
  Pulay mixing of updated and previous charge densities.

  Evaluating partitioned Hartree potential by multipole expansion.
  | Analytical far-field extrapolation by fixed multipoles:
  | Hartree multipole sum: apparent total charge =  -0.586967E-03
  Summing up the Hartree potential.
  Time summed over all CPUs for potential: real work        1.458 s, elapsed        2.580 s
  | RMS charge density error from multipole expansion :   0.220398E-01

  Integrating Hamiltonian matrix: batch-based integration.
  Time summed over all CPUs for integration: real work        1.489 s, elapsed        2.138 s => Consider using load balancing!

  Updating Kohn-Sham eigenvalues, eigenvectors, occupation numbers, and Fermi level.
  Solving generalized eigenproblem
  Updating Kohn-Sham eigenvalues and eigenfunctions.
  Solving real generalised eigenvalue problem by standard LAPACK (fast)

  Obtaining occupation numbers and chemical potential using ELSI.
  | Chemical potential (Fermi level):    -3.22422959eV
  Highest occupied state (VBM) at     -4.75612952 eV
  | Occupation number:      2.00000000

  Lowest unoccupied state (CBM) at    -1.90674915 eV
  | Occupation number:      0.00000000

  Overall HOMO-LUMO gap:      2.84938037 eV.

  Total energy components:
  | Sum of eigenvalues            :         -89.20696688 Ha       -2427.44507580 eV
  | XC energy correction          :         -24.38348313 Ha        -663.50833490 eV
  | XC potential correction       :          31.32396263 Ha         852.36839119 eV
  | Free-atom electrostatic energy:         -68.12704398 Ha       -1853.83118859 eV
  | Hartree energy correction     :          -6.60617527 Ha        -179.76317523 eV
  | vdW energy correction         :           0.00000000 Ha           0.00000000 eV
  | Entropy correction            :           0.00000000 Ha           0.00000000 eV
  | ---------------------------
  | Total energy                  :        -156.99970662 Ha       -4272.17938334 eV
  | Total energy, T -> 0          :        -156.99970662 Ha       -4272.17938334 eV  <-- do not rely on this value for anything but (periodic) metals
  | Electronic free energy        :        -156.99970662 Ha       -4272.17938334 eV

  Derived energy quantities:
  | Kinetic energy                :         156.23519270 Ha        4251.37590111 eV
  | Electrostatic energy          :        -288.85141620 Ha       -7860.04694955 eV
  | Energy correction for multipole
  | error in Hartree potential    :           0.03063525 Ha           0.83362769 eV
  | Sum of eigenvalues per atom                           :        -202.28708965 eV
  | Total energy (T->0) per atom                          :        -356.01494861 eV  <-- do not rely on this value for anything but (periodic) metals
  | Electronic free energy per atom                       :        -356.01494861 eV

  Self-consistency convergence accuracy:
  | Change of charge density      :  0.4566E-02
  | Change of sum of eigenvalues  :  0.1581E+01 eV
  | Change of total energy        :  0.9305E-03 eV

  End self-consistency iteration #     8       :  max(cpu_time)    wall_clock(cpu1)
  | Time for this iteration                    :        0.988 s           0.991 s
  | Charge density update                      :        0.296 s           0.296 s
  | Density mixing                             :        0.020 s           0.027 s
  | Hartree multipole update                   :        0.024 s           0.018 s
  | Hartree multipole summation                :        0.352 s           0.354 s
  | Integration                                :        0.292 s           0.289 s
  | Solution of K.-S. eqns.                    :        0.004 s           0.004 s
  | Total energy evaluation                    :        0.000 s           0.001 s

  Partial memory accounting:
  | Current value for overall tracked memory usage on task 0  :           0.180 MB
  | Peak value for overall tracked memory usage on task 0     :           0.696 MB after allocating gradient_basis_wave
  | Largest tracked array allocation on task 0 so far         :           0.387 MB  when allocating gradient_basis_wave
  Note:  These values currently only include a subset of arrays which are explicitly tracked.
  The "true" memory usage will be greater.
------------------------------------------------------------

------------------------------------------------------------
          Begin self-consistency iteration #    9

  Date     :  20180215, Time     :  214337.257
------------------------------------------------------------
  Evaluating new KS density.
  Integration grid: deviation in total charge (<rho> - N_e) =  -7.105427E-15
  Pulay mixing of updated and previous charge densities.

  Evaluating partitioned Hartree potential by multipole expansion.
  | Analytical far-field extrapolation by fixed multipoles:
  | Hartree multipole sum: apparent total charge =  -0.588587E-03
  Summing up the Hartree potential.
  Time summed over all CPUs for potential: real work        1.254 s, elapsed        1.283 s
  | RMS charge density error from multipole expansion :   0.220475E-01

  Integrating Hamiltonian matrix: batch-based integration.
  Time summed over all CPUs for integration: real work        1.315 s, elapsed        1.565 s

  Updating Kohn-Sham eigenvalues, eigenvectors, occupation numbers, and Fermi level.
  Solving generalized eigenproblem
  Updating Kohn-Sham eigenvalues and eigenfunctions.
  Solving real generalised eigenvalue problem by standard LAPACK (fast)

  Obtaining occupation numbers and chemical potential using ELSI.
  | Chemical potential (Fermi level):    -3.21576182eV
  Highest occupied state (VBM) at     -4.74591826 eV
  | Occupation number:      2.00000000

  Lowest unoccupied state (CBM) at    -1.89711450 eV
  | Occupation number:      0.00000000

  Overall HOMO-LUMO gap:      2.84880375 eV.

  Total energy components:
  | Sum of eigenvalues            :         -89.19516579 Ha       -2427.12395199 eV
  | XC energy correction          :         -24.38481988 Ha        -663.54470966 eV
  | XC potential correction       :          31.32570229 Ha         852.41572982 eV
  | Free-atom electrostatic energy:         -68.12704398 Ha       -1853.83118859 eV
  | Hartree energy correction     :          -6.61837894 Ha        -180.09525400 eV
  | vdW energy correction         :           0.00000000 Ha           0.00000000 eV
  | Entropy correction            :           0.00000000 Ha           0.00000000 eV
  | ---------------------------
  | Total energy                  :        -156.99970630 Ha       -4272.17937442 eV
  | Total energy, T -> 0          :        -156.99970630 Ha       -4272.17937442 eV  <-- do not rely on this value for anything but (periodic) metals
  | Electronic free energy        :        -156.99970630 Ha       -4272.17937442 eV

  Derived energy quantities:
  | Kinetic energy                :         156.23734846 Ha        4251.43456211 eV
  | Electrostatic energy          :        -288.85223488 Ha       -7860.06922687 eV
  | Energy correction for multipole
  | error in Hartree potential    :           0.03058103 Ha           0.83215209 eV
  | Sum of eigenvalues per atom                           :        -202.26032933 eV
  | Total energy (T->0) per atom                          :        -356.01494787 eV  <-- do not rely on this value for anything but (periodic) metals
  | Electronic free energy per atom                       :        -356.01494787 eV

  Self-consistency convergence accuracy:
  | Change of charge density      :  0.8888E-03
  | Change of sum of eigenvalues  :  0.3211E+00 eV
  | Change of total energy        :  0.8916E-05 eV

  End self-consistency iteration #     9       :  max(cpu_time)    wall_clock(cpu1)
  | Time for this iteration                    :        0.608 s           0.608 s
  | Charge density update                      :        0.200 s           0.199 s
  | Density mixing                             :        0.012 s           0.013 s
  | Hartree multipole update                   :        0.012 s           0.010 s
  | Hartree multipole summation                :        0.172 s           0.172 s
  | Integration                                :        0.212 s           0.210 s
  | Solution of K.-S. eqns.                    :        0.000 s           0.002 s
  | Total energy evaluation                    :        0.004 s           0.000 s

  Partial memory accounting:
  | Current value for overall tracked memory usage on task 0  :           0.180 MB
  | Peak value for overall tracked memory usage on task 0     :           0.696 MB after allocating gradient_basis_wave
  | Largest tracked array allocation on task 0 so far         :           0.387 MB  when allocating gradient_basis_wave
  Note:  These values currently only include a subset of arrays which are explicitly tracked.
  The "true" memory usage will be greater.
------------------------------------------------------------

------------------------------------------------------------
          Begin self-consistency iteration #   10

  Date     :  20180215, Time     :  214337.866
------------------------------------------------------------
  Evaluating new KS density.
  Integration grid: deviation in total charge (<rho> - N_e) =   7.105427E-15
  Pulay mixing of updated and previous charge densities.

  Evaluating partitioned Hartree potential by multipole expansion.
  | Analytical far-field extrapolation by fixed multipoles:
  | Hartree multipole sum: apparent total charge =  -0.588608E-03
  Summing up the Hartree potential.
  Time summed over all CPUs for potential: real work        1.370 s, elapsed        1.629 s
[...]
  |   Hirshfeld dipole moment :      0.08788540
  |   Hirshfeld second moments:      0.10785429      -0.00434345       0.00129264
  |                                 -0.00434345       0.09061959       0.00711263
  |                                  0.00129264       0.00711263       0.10397973
  ----------------------------------------------------------------------
  | Atom     8: H
  |   Hirshfeld charge        :      0.03206575
  |   Free atom volume        :      9.95071624
  |   Hirshfeld volume        :      6.51610446
  |   Hirshfeld dipole vector :     -0.05334868       0.06658685       0.02589885
  |   Hirshfeld dipole moment :      0.08916637
  |   Hirshfeld second moments:      0.09607554       0.00870198      -0.00445515
  |                                  0.00870198       0.08980384      -0.00024136
  |                                 -0.00445515      -0.00024136       0.09406419
  ----------------------------------------------------------------------
  | Atom     9: H
  |   Hirshfeld charge        :      0.03206574
  |   Free atom volume        :      9.95071624
  |   Hirshfeld volume        :      6.51610448
  |   Hirshfeld dipole vector :      0.05334868      -0.06658685       0.02589887
  |   Hirshfeld dipole moment :      0.08916637
  |   Hirshfeld second moments:      0.09607554       0.00870198       0.00445514
  |                                  0.00870198       0.08980384       0.00024136
  |                                  0.00445514       0.00024136       0.09406419
  ----------------------------------------------------------------------
  | Atom    10: H
  |   Hirshfeld charge        :      0.04095537
  |   Free atom volume        :      9.95071624
  |   Hirshfeld volume        :      6.29025785
  |   Hirshfeld dipole vector :     -0.03782421       0.01594680      -0.07795540
  |   Hirshfeld dipole moment :      0.08810230
  |   Hirshfeld second moments:      0.09919271      -0.00140226      -0.00643203
  |                                 -0.00140226       0.10423052       0.00667564
  |                                 -0.00643203       0.00667564       0.09076832
  ----------------------------------------------------------------------
  | Atom    11: H
  |   Hirshfeld charge        :      0.04124490
  |   Free atom volume        :      9.95071624
  |   Hirshfeld volume        :      6.14595568
  |   Hirshfeld dipole vector :      0.01556244       0.07940189       0.03430733
  |   Hirshfeld dipole moment :      0.08788540
  |   Hirshfeld second moments:      0.10785429      -0.00434346      -0.00129264
  |                                 -0.00434346       0.09061960      -0.00711263
  |                                 -0.00129264      -0.00711263       0.10397972
  ----------------------------------------------------------------------
  | Atom    12: H
  |   Hirshfeld charge        :      0.04424061
  |   Free atom volume        :      9.95071624
  |   Hirshfeld volume        :      6.10514947
  |   Hirshfeld dipole vector :      0.07937253      -0.03447192      -0.02498363
  |   Hirshfeld dipole moment :      0.09006939
  |   Hirshfeld second moments:      0.09061772       0.00418456       0.00649077
  |                                  0.00418456       0.10587310      -0.00160547
  |                                  0.00649077      -0.00160547       0.10997312
  ----------------------------------------------------------------------


  Total energy components:
  | Sum of eigenvalues            :         -89.19369291 Ha       -2427.08387262 eV
  | XC energy correction          :         -24.38505475 Ha        -663.55110098 eV
  | XC potential correction       :          31.32600496 Ha         852.42396594 eV
  | Free-atom electrostatic energy:         -68.12704398 Ha       -1853.83118859 eV
  | Hartree energy correction     :          -6.61992026 Ha        -180.13719560 eV
  | vdW energy correction         :          -0.00241514 Ha          -0.06571922 eV
  | Entropy correction            :           0.00000000 Ha           0.00000000 eV
  | ---------------------------
  | Total energy                  :        -157.00212207 Ha       -4272.24511107 eV
  | Total energy, T -> 0          :        -157.00212207 Ha       -4272.24511107 eV  <-- do not rely on this value for anything but (periodic) metals
  | Electronic free energy        :        -157.00212207 Ha       -4272.24511107 eV

  Derived energy quantities:
  | Kinetic energy                :         156.23813008 Ha        4251.45583127 eV
  | Electrostatic energy          :        -288.85278227 Ha       -7860.08412214 eV
  | Energy correction for multipole
  | error in Hartree potential    :           0.03058265 Ha           0.83219632 eV
  | Sum of eigenvalues per atom                           :        -202.25698939 eV
  | Total energy (T->0) per atom                          :        -356.02042592 eV  <-- do not rely on this value for anything but (periodic) metals
  | Electronic free energy per atom                       :        -356.02042592 eV

  atomic forces [eV/Ang]:
  -----------------------
  atom #    1
   Hellmann-Feynman              : -0.226646E+00 -0.182112E+00 -0.267107E+00
   Ionic forces                  :  0.000000E+00  0.000000E+00  0.000000E+00
   Multipole                     : -0.242060E+00 -0.304554E+00 -0.147267E+00
   Pulay + GGA                   :  0.443730E+00  0.336346E+00  0.657580E+00
   Van der Waals                 :  0.164131E-02  0.546165E-02 -0.438232E-02
   ----------------------------------------------------------------
   Total forces(   1)            : -0.233346E-01 -0.144859E+00  0.238824E+00
  atom #    2
   Hellmann-Feynman              :  0.188307E+01  0.111433E+01 -0.787786E+00
   Ionic forces                  :  0.000000E+00  0.000000E+00  0.000000E+00
   Multipole                     : -0.204947E+00 -0.753341E-01  0.214470E+00
   Pulay + GGA                   : -0.162926E+01 -0.973170E+00  0.518814E+00
   Van der Waals                 :  0.539786E-04 -0.217595E-03  0.388432E-02
   ----------------------------------------------------------------
   Total forces(   2)            :  0.489161E-01  0.656070E-01 -0.506172E-01
  atom #    3
   Hellmann-Feynman              : -0.188307E+01 -0.111433E+01 -0.787786E+00
   Ionic forces                  :  0.000000E+00  0.000000E+00  0.000000E+00
   Multipole                     :  0.204947E+00  0.753341E-01  0.214470E+00
   Pulay + GGA                   :  0.162926E+01  0.973170E+00  0.518814E+00
   Van der Waals                 : -0.539723E-04  0.217600E-03  0.388432E-02
   ----------------------------------------------------------------
   Total forces(   3)            : -0.489160E-01 -0.656070E-01 -0.506171E-01
  atom #    4
   Hellmann-Feynman              :  0.226646E+00  0.182112E+00 -0.267107E+00
   Ionic forces                  :  0.000000E+00  0.000000E+00  0.000000E+00
   Multipole                     :  0.242060E+00  0.304554E+00 -0.147267E+00
   Pulay + GGA                   : -0.443730E+00 -0.336346E+00  0.657580E+00
   Van der Waals                 : -0.164131E-02 -0.546165E-02 -0.438232E-02
   ----------------------------------------------------------------
   Total forces(   4)            :  0.233346E-01  0.144859E+00  0.238824E+00
  atom #    5
   Hellmann-Feynman              : -0.662076E-01 -0.154177E+00  0.231626E+00
   Ionic forces                  :  0.000000E+00  0.000000E+00  0.000000E+00
   Multipole                     : -0.553086E-03 -0.437605E-01 -0.112776E+00
   Pulay + GGA                   : -0.139276E-01  0.428916E-01  0.922732E-01
   Van der Waals                 :  0.337278E-02  0.410188E-02  0.193118E-03
   ----------------------------------------------------------------
   Total forces(   5)            : -0.773155E-01 -0.150944E+00  0.211316E+00
  atom #    6
   Hellmann-Feynman              :  0.288136E-01 -0.923578E-01  0.278985E+00
   Ionic forces                  :  0.000000E+00  0.000000E+00  0.000000E+00
   Multipole                     : -0.121170E+00 -0.161720E-01 -0.745805E-01
   Pulay + GGA                   :  0.886611E-01 -0.355068E-01  0.211551E-01
   Van der Waals                 :  0.369945E-02 -0.251372E-03 -0.636797E-03
   ----------------------------------------------------------------
   Total forces(   6)            :  0.415254E-05 -0.144288E+00  0.224923E+00
  atom #    7
   Hellmann-Feynman              :  0.225497E-01 -0.145065E+00  0.273384E+00
   Ionic forces                  :  0.000000E+00  0.000000E+00  0.000000E+00
   Multipole                     : -0.579404E-01 -0.123905E+00  0.150359E-01
   Pulay + GGA                   :  0.355487E-01  0.113016E+00 -0.374172E-01
   Van der Waals                 :  0.376237E-02  0.397529E-02  0.106422E-02
   ----------------------------------------------------------------
   Total forces(   7)            :  0.392040E-02 -0.151978E+00  0.252067E+00
  atom #    8
   Hellmann-Feynman              :  0.948988E-01  0.505811E+00 -0.974271E+00
   Ionic forces                  :  0.000000E+00  0.000000E+00  0.000000E+00
   Multipole                     : -0.362494E-01  0.139175E+00  0.994206E-01
   Pulay + GGA                   :  0.642833E-01 -0.987336E-01  0.242063E-02
   Van der Waals                 :  0.227555E-02 -0.238244E-02 -0.122533E-03
   ----------------------------------------------------------------
   Total forces(   8)            :  0.125208E+00  0.543869E+00 -0.872552E+00
  atom #    9
   Hellmann-Feynman              : -0.948987E-01 -0.505811E+00 -0.974270E+00
   Ionic forces                  :  0.000000E+00  0.000000E+00  0.000000E+00
   Multipole                     :  0.362494E-01 -0.139175E+00  0.994206E-01
   Pulay + GGA                   : -0.642833E-01  0.987336E-01  0.242060E-02
   Van der Waals                 : -0.227555E-02  0.238244E-02 -0.122535E-03
   ----------------------------------------------------------------
   Total forces(   9)            : -0.125208E+00 -0.543870E+00 -0.872552E+00
  atom #   10
   Hellmann-Feynman              :  0.662075E-01  0.154177E+00  0.231626E+00
   Ionic forces                  :  0.000000E+00  0.000000E+00  0.000000E+00
   Multipole                     :  0.553088E-03  0.437605E-01 -0.112776E+00
   Pulay + GGA                   :  0.139276E-01 -0.428916E-01  0.922732E-01
   Van der Waals                 : -0.337278E-02 -0.410188E-02  0.193120E-03
   ----------------------------------------------------------------
   Total forces(  10)            :  0.773154E-01  0.150944E+00  0.211316E+00
  atom #   11
   Hellmann-Feynman              : -0.225495E-01  0.145065E+00  0.273384E+00
   Ionic forces                  :  0.000000E+00  0.000000E+00  0.000000E+00
   Multipole                     :  0.579404E-01  0.123905E+00  0.150359E-01
   Pulay + GGA                   : -0.355488E-01 -0.113016E+00 -0.374172E-01
   Van der Waals                 : -0.376237E-02 -0.397529E-02  0.106422E-02
   ----------------------------------------------------------------
   Total forces(  11)            : -0.392031E-02  0.151978E+00  0.252067E+00
  atom #   12
   Hellmann-Feynman              : -0.288137E-01  0.923578E-01  0.278985E+00
   Ionic forces                  :  0.000000E+00  0.000000E+00  0.000000E+00
   Multipole                     :  0.121170E+00  0.161719E-01 -0.745806E-01
   Pulay + GGA                   : -0.886611E-01  0.355068E-01  0.211551E-01
   Van der Waals                 : -0.369945E-02  0.251371E-03 -0.636797E-03
   ----------------------------------------------------------------
   Total forces(  12)            : -0.425460E-05  0.144288E+00  0.224923E+00

  Timings for VdW correction (Tkatchenko-Scheffler 2009 or later):
  | CPU time:        0.040 s, Wall clock time:        0.043 s.
  Removing unitary transformations (pure translations, rotations) from forces on atoms.
  Atomic forces before filtering:
  | Net force on center of mass :   0.856964E-08 -0.813129E-08  0.792246E-02 eV/A
  | Net torque on center of mass:  -0.513435E-08 -0.715679E-08 -0.147681E-02 eV
  Atomic forces after filtering:
  | Net force on center of mass :   0.340882E-16  0.156105E-15  0.267609E-15 eV/A
  | Net torque on center of mass:   0.401236E-15  0.944085E-16  0.341260E-15 eV

  Energy and forces in a compact form:
  | Total energy uncorrected      :         -0.427224511106816E+04 eV
  | Total energy corrected        :         -0.427224511106816E+04 eV  <-- do not rely on this value for anything but (periodic) metals
  | Electronic free energy        :         -0.427224511106816E+04 eV
  Total atomic forces (unitary forces cleaned) [eV/Ang]:
  |   1         -0.232976696955205E-01         -0.144907560028545E+00          0.238163632107990E+00
  |   2          0.489173893097853E-01          0.655844516736463E-01         -0.512774324561469E-01
  |   3         -0.489172959482147E-01         -0.655844760089054E-01         -0.512773366728833E-01
  |   4          0.232976462453692E-01          0.144907593482310E+00          0.238163636387931E+00
  |   5         -0.772725828520903E-01         -0.150975497519596E+00          0.210655944669137E+00
  |   6          0.267514622674733E-04         -0.144368902861101E+00          0.224262896179968E+00
  |   7          0.398961572790370E-02         -0.152033135804065E+00          0.251407009217328E+00
  |   8          0.125180366929607E+00          0.543827230333773E+00         -0.873212221197917E+00
  |   9         -0.125180270300080E+00         -0.543827336132576E+00         -0.873211932896094E+00
  |  10          0.772724371049529E-01          0.150975582117365E+00          0.210656007496632E+00
  |  11         -0.398953266967206E-02          0.152033150078261E+00          0.251407033447710E+00
  |  12         -0.268553143086063E-04          0.144368900669434E+00          0.224262763716346E+00

  ------------------------------------ 
  Start decomposition of the XC Energy 
  ------------------------------------ 
  X and C from original XC functional choice 
  Hartree-Fock Energy :          0.000000000 Ha              0.000000000 eV
  X Energy            :        -23.370953103 Ha           -635.955991023 eV
  C Energy            :         -1.014101651 Ha            -27.595109960 eV
  Total XC Energy     :        -24.385054755 Ha           -663.551100983 eV
  ------------------------------------ 
  LDA X and C from self-consistent density 
  X Energy LDA        :        -21.122460409 Ha           -574.771391782 eV
  C Energy LDA        :         -1.972839663 Ha            -53.683698629 eV
  ------------------------------------ 
  End decomposition of the XC Energy 
  ------------------------------------ 

------------------------------------------------------------

------------------------------------------------------------------------------
  Final output of selected total energy values:

  The following output summarizes some interesting total energy values
  at the end of a run (AFTER all relaxation, molecular dynamics, etc.).

  | Total energy of the DFT / Hartree-Fock s.c.f. calculation      :          -4272.245111068 eV
  | Final zero-broadening corrected energy (caution - metals only) :          -4272.245111068 eV
  | For reference only, the value of 1 Hartree used in FHI-aims is :             27.211384500 eV

  Before relying on these values, please be sure to understand exactly which
  total energy value is referred to by a given number. Different objects may
  all carry the same name 'total energy'. Definitions:

  Total energy of the DFT / Hartree-Fock s.c.f. calculation:
  | Note that this energy does not include ANY quantities calculated after the
  | s.c.f. cycle, in particular not ANY RPA, MP2, etc. many-body perturbation terms.

  Final zero-broadening corrected energy:
  | For metallic systems only, a broadening of the occupation numbers at the Fermi
  | level can be extrapolated back to zero broadening by an electron-gas inspired
  | formula. For all systems that are not real metals, this value can be
  | meaningless and should be avoided.

------------------------------------------------------------------------------
  Methods described in the following list of references were used in this FHI-aims run.
  If you publish the results, please make sure to cite these reference if they apply.
  FHI-aims is an academic code, and for our developers (often, Ph.D. students
  and postdocs), scientific credit in the community is essential.
  Thank you for helping us!

  For any use of FHI-aims, please cite:

    Volker Blum, Ralf Gehrke, Felix Hanke, Paula Havu, Ville Havu,
    Xinguo Ren, Karsten Reuter, and Matthias Scheffler
    'Ab initio molecular simulations with numeric atom-centered orbitals'
    Computer Physics Communications 180, 2175-2196 (2009)
    http://dx.doi.org/10.1016/j.cpc.2009.06.022


  For the real-space grid partitioning and parallelization used in this calculation, please cite:

    Ville Havu, Volker Blum, Paula Havu, and Matthias Scheffler,
    'Efficient O(N) integration for all-electron electronic structure calculation'
    'using numerically tabulated basis functions'
    Journal of Computational Physics 228, 8367-8379 (2009).
    http://dx.doi.org/10.1016/j.jcp.2009.08.008

  Of course, there are many other important community references, e.g., those cited in the
  above references. Our list is limited to references that describe implementations in the
  FHI-aims code. The reason is purely practical (length of this list) - please credit others as well.

------------------------------------------------------------
          Leaving FHI-aims.
          Date     :  20180215, Time     :  214341.202

          Computational steps:
          | Number of self-consistency cycles          :           13
          | Number of SCF (re)initializations          :            1

          Detailed time accounting                     :  max(cpu_time)    wall_clock(cpu1)
          | Total time                                 :       10.048 s          10.607 s
          | Preparation time                           :        0.128 s           0.139 s
          | Boundary condition initalization           :        0.000 s           0.002 s
          | Grid partitioning                          :        0.084 s           0.081 s
          | Preloading free-atom quantities on grid    :        0.004 s           0.005 s
          | Free-atom superposition energy             :        0.024 s           0.025 s
          | Total time for integrations                :        3.252 s           3.229 s
          | Total time for solution of K.-S. equations :        0.060 s           0.062 s
          | Total time for density & force components  :        3.232 s           3.227 s
          | Total time for mixing                      :        0.172 s           0.223 s
          | Total time for Hartree multipole update    :        0.236 s           0.218 s
          | Total time for Hartree multipole sum       :        3.148 s           3.161 s
          | Total time for total energy evaluation     :        0.012 s           0.019 s
          | Total time for vdW correction              :        0.040 s           0.043 s

          Partial memory accounting:
          | Residual value for overall tracked memory usage across tasks :           0.000 MB (should be 0.000 MB)
          | Peak values for overall tracked memory usage (after allocating hessian_basis_wave):
          |   Minimum:        1.599 MB (on task 1)
          |   Maximum:        1.599 MB (on task 1)
          |   Average:        1.599 MB
          | Largest tracked array allocation (hessian_basis_wave):
          |   Minimum:        0.774 MB (on task 1)
          |   Maximum:        0.774 MB (on task 1)
          |   Average:        0.774 MB
          Note:  These values currently only include a subset of arrays which are explicitly tracked.
          The "true" memory usage will be greater.

          Have a nice day.
------------------------------------------------------------
