  MPI-parallelism will be employed.
------------------------------------------------------------
          Invoking FHI-aims ...

          When using FHI-aims, please cite the following reference:

          Volker Blum, Ralf Gehrke, Felix Hanke, Paula Havu,
          Ville Havu, Xinguo Ren, Karsten Reuter, and Matthias Scheffler,
          'Ab Initio Molecular Simulations with Numeric Atom-Centered Orbitals',
          Computer Physics Communications 180, 2175-2196 (2009)

          For any questions about FHI-aims, please visit the aimsclub website
          with its forums and wiki. Contributions to both the forums and the
          wiki are warmly encouraged - they are for you, and everyone is welcome there.

------------------------------------------------------------



  Date     :  20190817, Time     :  154503.922
  Time zero on CPU 1             :   0.278360000000000E-01  s.
  Internal wall clock time zero  :           335288703.922  s.

  FHI-aims created a unique identifier for this run for later identification
  aims_uuid : 32BC99E1-B413-4D38-A08C-072FD50992CB

  Build configuration of the current instance of FHI-aims
  -------------------------------------------------------
  FHI-aims version      : 190813
  Commit number         : 3da7baeb3
  CMake host system     : Linux-4.4.180-94.97-default
  CMake version         : 3.5.2
  Fortran compiler      : /mpcdf/soft/SLE_12_SP3/packages/x86_64/intel_parallel_studio/2018.4/compilers_and_libraries_2018.5.274/linux/mpi/bin64/mpiifort (Intel) version 18.0.5.20180823
  Fortran compiler flags: -O3 -ip -fp-model precise
  C compiler            : /mpcdf/soft/SLE_12_SP3/packages/skylake/intel/18.0.5/bin/icc (Intel) version 18.0.5.20180823
  C compiler flags      : -O3 -ip -fp-model precise
  Architecture          :
  Using MPI
  Using Scalapack
  Using C files
  Using SPGlib
  Using i-PI
  Linking against: /mpcdf/soft/SLE_12_SP3/packages/x86_64/anaconda/3.5.1.0/lib/libmkl_intel_lp64.so
                   /mpcdf/soft/SLE_12_SP3/packages/x86_64/anaconda/3.5.1.0/lib/libmkl_sequential.so
                   /mpcdf/soft/SLE_12_SP3/packages/x86_64/anaconda/3.5.1.0/lib/libmkl_core.so
                   /mpcdf/soft/SLE_12_SP3/packages/x86_64/anaconda/3.5.1.0/lib/libmkl_blacs_intelmpi_lp64.so
                   /mpcdf/soft/SLE_12_SP3/packages/x86_64/anaconda/3.5.1.0/lib/libmkl_scalapack_lp64.so

  Using        8 parallel tasks.
  Task        0 on host co1631 reporting.
  Task        1 on host co1631 reporting.
  Task        2 on host co1631 reporting.
  Task        3 on host co1631 reporting.
  Task        4 on host co1631 reporting.
  Task        5 on host co1631 reporting.
  Task        6 on host co1631 reporting.
  Task        7 on host co1631 reporting.

  Performing system and environment tests:
  | Environment variable OMP_NUM_THREADS correctly set to 1.
  | Maximum stacksize for task 0: unlimited
  | Maximum stacksize for task 1: unlimited
  | Maximum stacksize for task 2: unlimited
  | Maximum stacksize for task 3: unlimited
  | Maximum stacksize for task 4: unlimited
  | Maximum stacksize for task 5: unlimited
  | Maximum stacksize for task 6: unlimited
  | Maximum stacksize for task 7: unlimited
  | Current stacksize for task 0: unlimited
  | Current stacksize for task 1: unlimited
  | Current stacksize for task 2: unlimited
  | Current stacksize for task 3: unlimited
  | Current stacksize for task 4: unlimited
  | Current stacksize for task 5: unlimited
  | Current stacksize for task 6: unlimited
  | Current stacksize for task 7: unlimited
  | Checking for scalapack...
  | Testing pdtran()...
  | All pdtran() tests passed.

  Obtaining array dimensions for all initial allocations:
  
  -----------------------------------------------------------------------
  Parsing control.in (first pass over file, find array dimensions only).
  The contents of control.in will be repeated verbatim below
  unless switched off by setting 'verbatim_writeout .false.' .
  in the first line of control.in .
  -----------------------------------------------------------------------
  
  #########################################################################################
  #
  #  Volker Blum, FHI 2008 : Test run input file control.in for simple H2O
  #
  #########################################################################################
  #
  #  Physical model
  #
    xc                 pbe
    spin               none
    relativistic       none
    charge             0.
  #
  #  SCF convergence
  #
    occupation_type    gaussian 0.01
    mixer              pulay
      n_max_pulay        10
      charge_mix_param   0.5
    sc_accuracy_rho    1E-3
    sc_accuracy_eev    1E-2
    sc_accuracy_etot   1E-4
    sc_accuracy_forces 1E-3
    sc_iter_limit      100
  #
  #  Eigenvalue solution
  #
  #  KS_method	     lapack
  #  compute_kinetic
  #
  #  Relaxation
  #
  #relax_geometry   bfgs 1.e-2
  #
  #
  #  Outputs
  #
  # output cube total_density
  #   cube origin 0.0  0.0  0.0
  #   cube edge 29  0.15 0.0  0.0
  #   cube edge 29  0.0  0.15 0.0
  #   cube edge 29  0.0  0.0  0.15
  # output cube eigenstate 5
  # output cube eigenstate 6
    MD_run        0.01 GLE_thermostat 300 6
  #  MD_run        0.015 NVT_parrinello 300 0.1
  #  MD_run        0.1 NVE
   MD_gle_A    3.904138445158e-1     4.681059722010e+1     3.079778738058e+1     4.428079381336e+1     5.057825203477e+1     2.591193419597e+1     1.513907125942e+1
   MD_gle_A   -4.789343294190e+1     2.037551040972e+1     6.597801861779e+1    -8.528273506602e+0    -2.230839572773e+0     6.593086307870e+0    -6.653653981891e+1
   MD_gle_A   -2.905096373618e+1    -6.597801861779e+1     2.086885297843e+1     1.145471984072e+1     3.111465343867e+1     1.101562087523e+1    -3.264959166486e+1
   MD_gle_A   -4.435072214164e+1     8.528273506602e+0    -1.145471984072e+1     2.386233403354e+1     8.792083035892e-1     2.994937741424e+1     1.530348823334e+1
   MD_gle_A   -4.916924816292e+1     2.230839572773e+0    -3.111465343867e+1    -8.792083035892e-1     2.606519350778e+1    -3.458690409590e+1     9.744362519913e+1
   MD_gle_A   -1.301834364438e+1    -6.593086307870e+0    -1.101562087523e+1    -2.994937741424e+1     3.458690409590e+1     2.365664840227e+2    -3.253589816948e+2
   MD_gle_A   -3.003491620426e+1     6.653653981891e+1     3.264959166486e+1    -1.530348823334e+1    -9.744362519913e+1     3.253589816948e+2     3.833684611452e+2
   MD_gle_C    2.999985914100e+2     5.937593337000e+0     2.144376751500e+2     5.883055908000e+1    -1.119803766000e+2    -6.793381764000e+1     1.379789732400e+1
   MD_gle_C    5.937593337000e+0     3.781851303000e+2    -5.794518522000e+1    -2.178772681500e+2    -1.649310659100e+2    -6.557113452000e+1     3.833830743000e+1
   MD_gle_C    2.144376751500e+2    -5.794518522000e+1     7.325759985000e+2     2.188507713000e+2    -3.704586531000e+2    -3.385193865000e+1    -4.827706758000e+0
   MD_gle_C    5.883055908000e+1    -2.178772681500e+2     2.188507713000e+2     6.960431520000e+2    -3.630171093000e+2     1.702940985000e+2    -6.073265904000e+1
   MD_gle_C   -1.119803766000e+2    -1.649310659100e+2    -3.704586531000e+2    -3.630171093000e+2     1.437872295000e+3     1.124747403900e+2     3.533754279000e+0
   MD_gle_C   -6.793381764000e+1    -6.557113452000e+1    -3.385193865000e+1     1.702940985000e+2     1.124747403900e+2     1.489339230300e+3    -1.607601813300e+2
   MD_gle_C    1.379789732400e+1     3.833830743000e+1    -4.827706758000e+0    -6.073265904000e+1     3.533754279000e+0    -1.607601813300e+2     4.445083650000e+2
    MD_time_step  0.001
    MD_MB_init    300
    MD_clean_rotations  .false.
    MD_RNG_seed 18
  #  output_level MD_light
    MD_restart     .false.
  
  ################################################################################
  #
  #  FHI-aims code project
  #  VB, Fritz-Haber Institut, 2007
  #
  #  Settings for O atom (to be pasted into control.in file).
  #
  #  Tier 1, l_hartree=4, sparse grids (302 max.) For tightly converged calculations,
  #  check the convergence of these parameters.
  #
  ################################################################################
    species        O
      mass                15.9994
      nucleus             8
      l_hartree         4
      cut_pot             3.5  2.0  1.0
      logarithmic         0.00010000 100.00  1.0123
      radial_base         36 7.0
      radial_multiplier   2
      angular_grids specified
        division   0.4087  110
        division   0.5181  194
  #      division   0.6184  302
  #      division   0.7315  434
  #      division   0.7934  590
  #      division   0.9656  770
  #      division   1.4041  974
  #      outer_grid 974
        outer_grid 194
  ################################################################################
  #
  #  Definition of "minimal" basis
  #
  ################################################################################
  #     valence basis states
      valence      2  s   2.
      valence      2  p   4.
  #     ion occupancy
      ion_occ      2  s   1.
      ion_occ      2  p   3.
  ################################################################################
  #
  #  Suggested additional basis functions. For production calculations,
  #  uncomment them one after another (the most important basis functions are
  #  listed first).
  #
  #  Many basis functions are listed, but it is likely that the functions
  #  after the "third tier" reflect small numerical adjustments only for a very
  #  specific structure.
  #
  ################################################################################
  #  "First tier" - improvements: -699.05 meV to -49.91 meV
       hydro 2 p 1.8
       hydro 3 d 7.6
       hydro 3 s 6.4
  #  "Second tier" - improvements: -30.97 meV to -5.39 meV
  #     hydro 4 f 11.6
  #     hydro 3 p 6.2
  #     hydro 3 d 5.6
  #     hydro 5 g 17.6
  #     hydro 1 s 0.75
  #  "Third tier" - improvements: -2.83 meV to -0.50 meV
  #     ionic 2 p 9.4486
  #     hydro 4 f 10.8
  #     hydro 4 d 4.7
  #     hydro 2 s 6.8
  #  "Fourth tier" - improvements: -0.40 meV to -0.12 meV
  #     hydro 3 p 5
  #     hydro 3 s 3.3
  #     hydro 5 g 15.6
  #     hydro 4 f 17.6
  #     hydro 4 d 14
  # Further basis functions - -0.08 meV and below
  #     hydro 3 s 2.1
  #     hydro 4 d 11.6
  #     hydro 3 p 16
  #     hydro 2 s 17.2
  
  ################################################################################
  #
  #  VB, Fritz-Haber Institut, 2007
  #
  #  Settings for H atom (to be pasted into control.in file)
  #
  #  Tier 1, l_hartree=4, sparse grids (302 max.) For tightly converged calculations,
  #  check the convergence of these parameters.
  #
  ################################################################################
    species        H
      mass                1.00794
      nucleus             1
      l_hartree         4
      cut_pot             3.5  2.0  1.0
      logarithmic         0.00010000 100.00  1.0123
      radial_base         24 7.0
      radial_multiplier   2
      angular_grids       specified
        division   0.2783  110
        division   0.3822  194
  #      division   0.5626  302
  #      division   0.5922  434
  #      division   0.6227  590
  #      division   0.7206  770
  #      outer_grid  770
        outer_grid  194
  ################################################################################
  #
  #  Definition of "minimal" basis
  #
  ################################################################################
  #     valence basis states
      valence      1  s   1.
  #     ion occupancy
      ion_occ      1  s   0.5
  ################################################################################
  #
  #  Suggested additional basis functions. For production calculations,
  #  uncomment them one after another (the most important basis functions are
  #  listed first).
  #
  ################################################################################
  #  "First tier" - improvements: -1014.90 meV to -62.69 meV
       hydro 2 s 2.1
       hydro 2 p 3.5
  #  "Second tier" - improvements: -12.89 meV to -1.83 meV
  #     hydro 1 s 0.85
  #     hydro 2 p 3.7
  #     hydro 2 s 1.2
  #     hydro 3 d 7
  #  "Third tier" - improvements: -0.25 meV to -0.12 meV
  #     hydro 4 f 11.2
  #     hydro 3 p 4.8
  #     hydro 4 d 9
  #     hydro 3 s 3.2
  
  
  -----------------------------------------------------------------------
  Completed first pass over input file control.in .
  -----------------------------------------------------------------------
  
  
  -----------------------------------------------------------------------
  Parsing geometry.in (first pass over file, find array dimensions only).
  The contents of geometry.in will be repeated verbatim below
  unless switched off by setting 'verbatim_writeout .false.' .
  in the first line of geometry.in .
  -----------------------------------------------------------------------
  
  # Geometry for water -- needs to be relaxed as the water molecule
  # described here has a 90degree bond angle and a
  # 1 Angstrom bond distance ...
  atom    0.00000000    0.00000000    0.00000000    O
  atom    0.70700000   -0.70700000    0.00000000    H
  atom   -0.70700000   -0.70700000    0.00000000    H
  
  -----------------------------------------------------------------------
  Completed first pass over input file geometry.in .
  -----------------------------------------------------------------------
  

  Basic array size parameters:
  | Number of species                 :        2
  | Number of atoms                   :        3
  | Max. basis fn. angular momentum   :        2
  | Max. atomic/ionic basis occupied n:        2
  | Max. number of basis fn. types    :        2
  | Max. radial fns per species/type  :        3
  | Max. logarithmic grid size        :     1301
  | Max. radial integration grid size :       73
  | Max. angular integration grid size:      194
  | Max. angular grid division number :        8
  | Radial grid for Hartree potential :     1301
  | Number of spin channels           :        1

------------------------------------------------------------
          Reading file control.in.
------------------------------------------------------------
  XC: Using PBE gradient-corrected functionals.
  Spin treatment: No spin polarisation.
  Non-relativistic treatment of kinetic energy.
  Charge =   0.000000E+00: Neutral system requested explicitly.
  Occupation type: Gaussian broadening, width =   0.100000E-01 eV.
  Using pulay charge density mixing.
  Pulay mixing - number of memorized iterations:   10
  Charge density mixing - mixing parameter:     0.5000
  Convergence accuracy of self-consistent charge density:  0.1000E-02
  Convergence accuracy of sum of eigenvalues:  0.1000E-01
  Convergence accuracy of total energy:  0.1000E-03
  Convergence accuracy of forces:  0.1000E-02
  Maximum number of s.-c. iterations  :   100
  Running Born-Oppenheimer  molecular dynamics with the Generalized Langevin Eq.  colored-noise thermostat (Ceriotti et al.).
 Character of the thermostat defined below
 WARNING: experimental version. Use at your own risk.
   | simulation time =       0.010000 ps
   | at temperature  =     300.000000 K
   | with extra number of dof  =     6
 ** Please do not use it if you do not understand this implementation.
 | C matrix was specified
 | Reading specialized Cp matrix
 | Detailed balance is (probably) broken
  Molecular dynamics time step =       0.001000 ps
  Initializing MD run with Maxwell-Boltzmann momentum distribution at T =     300.000000 K
  Explicitly not using rotational cleaning for initial velocities.
  Found seed for MD random number generator :       18
  Explicitly requesting no molecular dynamics restart.
 
  Reading configuration options for species O                   .
  | Found atomic mass :    15.9994000000000      amu
  | Found nuclear charge :   8.0000
  | Found l_max for Hartree potential  :   4
  | Found cutoff potl. onset [A], width [A], scale factor :    3.50000    2.00000    1.00000
  | Found logarithmic grid data [bohr] : 0.1000E-03 0.1000E+03 0.1012E+01
  | Found data for basic radial integration grid :    36 points, outermost radius =    7.000 A
  | Found multiplier for basic radial grid :   2
  | Found angular grid specification: user-specified.
  | Specified grid contains     3 separate shells.
  | Check grid settings after all constraints further below.
  | Found free-atom valence shell :  2 s   2.000
  | Found free-atom valence shell :  2 p   4.000
  | No ionic wave fns used. Skipping ion_occ.
  | No ionic wave fns used. Skipping ion_occ.
  | Found hydrogenic basis function :  2 p   1.800
  | Found hydrogenic basis function :  3 d   7.600
  | Found hydrogenic basis function :  3 s   6.400
  Species O                   : Missing cutoff potential type.
  Defaulting to exp(1/x)/(1-x)^2 type cutoff potential.
  Species O : On-site basis accuracy parameter (for Gram-Schmidt orthonormalisation) not specified.
  Using default value basis_acc =  0.1000000E-03.
  Species O                   : Using default innermost maximum threshold i_radial=  2 for radial functions.
  Species O                   : Default cutoff onset for free atom density etc. : 0.35000000E+01 AA.
  Species O                   : Basic radial grid will be enhanced according to radial_multiplier =   2, to contain    73 grid points.
 
  Reading configuration options for species H                   .
  | Found atomic mass :    1.00794000000000      amu
  | Found nuclear charge :   1.0000
  | Found l_max for Hartree potential  :   4
  | Found cutoff potl. onset [A], width [A], scale factor :    3.50000    2.00000    1.00000
  | Found logarithmic grid data [bohr] : 0.1000E-03 0.1000E+03 0.1012E+01
  | Found data for basic radial integration grid :    24 points, outermost radius =    7.000 A
  | Found multiplier for basic radial grid :   2
  | Found angular grid specification: user-specified.
  | Specified grid contains     3 separate shells.
  | Check grid settings after all constraints further below.
  | Found free-atom valence shell :  1 s   1.000
  | No ionic wave fns used. Skipping ion_occ.
  | Found hydrogenic basis function :  2 s   2.100
  | Found hydrogenic basis function :  2 p   3.500
  Species H                   : Missing cutoff potential type.
  Defaulting to exp(1/x)/(1-x)^2 type cutoff potential.
  Species H : On-site basis accuracy parameter (for Gram-Schmidt orthonormalisation) not specified.
  Using default value basis_acc =  0.1000000E-03.
  Species H                   : Using default innermost maximum threshold i_radial=  2 for radial functions.
  Species H                   : Default cutoff onset for free atom density etc. : 0.35000000E+01 AA.
  Species H                   : Basic radial grid will be enhanced according to radial_multiplier =   2, to contain    49 grid points.
 
  Finished reading input file 'control.in'. Consistency checks are next.
 
  MPI_IN_PLACE appears to work with this MPI implementation.
  | Keeping use_mpi_in_place .true. (see manual).
  Target number of points in a grid batch is not set. Defaulting to  100
  Method for grid partitioning is not set. Defaulting to parallel hash+maxmin partitioning.
  Batch size limit is not set. Defaulting to    200
  By default, will store active basis functions for each batch.
  If in need of memory, prune_basis_once .false. can be used to disable this option.
  communication_type for Hartree potential was not specified.
  Defaulting to calc_hartree .
  Pulay mixer: Number of initial linear mixing iterations not set.
  Defaulting to    0 iterations.
  Work space size for distributed Hartree potential not set.
  Defaulting to   0.200000E+03 MB.
  Algorithm-dependent basis array size parameters:
  | n_max_pulay                         :       10
  Presetting      1001 iterations before the initial mixing cycle
  is restarted anyway using the sc_init_iter criterion / keyword.
  Presetting a factor      1.000 between actual scf density residual
  and density convergence criterion sc_accuracy_rho below which sc_init_iter
  takes no effect.
  Geometry relaxation not requested: no relaxation will be performed.
  Handling of forces: Unphysical translation and rotation will be removed from forces.
  No accuracy limit for integral partition fn. given. Defaulting to  0.1000E-14.
  No threshold value for u(r) in integrations given. Defaulting to  0.1000E-05.
  No accuracy for occupation numbers given. Defaulting to  0.1000E-12.
  No threshold value for occupation numbers given. Defaulting to  0.0000E+00.
  No accuracy for fermi level given. Defaulting to  0.1000E-19.
  Maximum # of iterations to find E_F not set. Defaulting to  200.
  Preferred method for the eigenvalue solver ('KS_method') not specified in 'control.in'.
  Calling BLACS routine to test compilation state
  Since ScaLAPACK support is enabled, defaulting to ELPA (via ELSI).
  Will not use alltoall communication since running on < 1024 CPUs.
  Threshold for basis singularities not set.
  Default threshold for basis singularities:  0.1000E-04
  partition_type (choice of integration weights) for integrals was not specified.
  | Using a version of the partition function of Stratmann and coworkers ('stratmann_sparse').
  | At each grid point, the set of atoms used to build the partition table is smoothly restricted to
  | only those atoms whose free-atom density would be non-zero at that grid point.
  Partitioning for Hartree potential was not defined. Using partition_type for integrals.
  | Adjusted default value of keyword multip_moments_threshold to:       0.10000000E-11
  | This value may affect high angular momentum components of the Hartree potential in periodic systems.
  No q(lm)/r^(l+1) cutoff set for long-range Hartree potential.
  | Using default value of  0.100000E-09 .
  | Verify using the multipole_threshold keyword.
  Defaulting to new monopole extrapolation.
  Density update method: automatic selection selected.
  Charge integration errors on the 3D integration grid will be compensated
  by explicit normalization and distribution of residual charges.
  Use the "compensate_multipole_errors" flag to change this behaviour.
------------------------------------------------------------


------------------------------------------------------------
          Reading geometry description geometry.in.
------------------------------------------------------------
  Input structure read successfully.
  The structure contains        3 atoms,  and a total of         10.000 electrons.

  Input geometry:
  | No unit cell requested.
  | Atomic structure:
  |       Atom                x [A]            y [A]            z [A]
  |    1: Species O             0.00000000        0.00000000        0.00000000
  |    2: Species H             0.70700000       -0.70700000        0.00000000
  |    3: Species H            -0.70700000       -0.70700000        0.00000000
  | The smallest distance between any two atoms is         0.99984899 AA.
  | The first atom of this pair is atom number                      1 .
  | The second atom of this pair is atom number                     2 .

  Number of empty states per atom not set in control.in - providing a guess from actual geometry.
  | Total number of empty states used during s.c.f. cycle:        6
  If you use a very high smearing, use empty_states (per atom!) in control.in to increase this value.

  Structure-dependent array size parameters: 
  | Maximum number of distinct radial functions  :        9
  | Maximum number of basis functions            :       24
  | Number of Kohn-Sham states (occupied + empty):       11
------------------------------------------------------------

------------------------------------------------------------
          Preparing all fixed parts of the calculation.
------------------------------------------------------------
  Determining machine precision:
    2.225073858507201E-308
  Setting up grids for atomic and cluster calculations.

  Creating wave function, potential, and density for free atoms.

  Species: O

  List of occupied orbitals and eigenvalues:
    n    l              occ      energy [Ha]    energy [eV]
    1    0           2.0000       -18.898370      -514.2508
    2    0           2.0000        -0.878640       -23.9090
    2    1           4.0000        -0.331917        -9.0319


  Species: H

  List of occupied orbitals and eigenvalues:
    n    l              occ      energy [Ha]    energy [eV]
    1    0           1.0000        -0.237930        -6.4744

  Creating fixed part of basis set: Ionic, confined, hydrogenic.
 
  O                    hydrogenic:
 
  List of hydrogenic basis orbitals: 
    n    l      effective z      eigenvalue [eV]  inner max. [A]     outer max. [A]     outer radius [A]   
    2    1         1.800000       -10.9911           1.178546           1.178546           4.926371
    3    2         7.600000       -87.3182           0.624117           0.624117           3.541422
    3    0         6.400000       -61.9209           0.061166           1.081887           4.306510
 
 
  H                    hydrogenic:
 
  List of hydrogenic basis orbitals: 
    n    l      effective z      eigenvalue [eV]  inner max. [A]     outer max. [A]     outer radius [A]   
    2    0         2.100000       -14.9840           0.193241           1.317192           4.932270
    2    1         3.500000       -41.6672           0.602363           0.602363           4.056010
 

  Adding cutoff potential to free-atom effective potential.
  Creating atomic-like basis functions for current effective potential.

  Species O                   :

  List of atomic basis orbitals and eigenvalues:
    n    l      energy [Ha]    energy [eV]    outer radius [A]
    1    0       -18.898370      -514.2508       1.415745
    2    0        -0.878640       -23.9090       4.691267
    2    1        -0.331917        -9.0319       4.866513


  Species H                   :

  List of atomic basis orbitals and eigenvalues:
    n    l      energy [Ha]    energy [eV]    outer radius [A]
    1    0        -0.237930        -6.4744       4.932270

  Assembling full basis from fixed parts.
  | Species O :   atomic orbital   1 s accepted.
  | Species O :    hydro orbital   3 s accepted.
  | Species O :   atomic orbital   2 s accepted.
  | Species O :   atomic orbital   2 p accepted.
  | Species O :    hydro orbital   2 p accepted.
  | Species O :    hydro orbital   3 d accepted.
  | Species H :   atomic orbital   1 s accepted.
  | Species H :    hydro orbital   2 s accepted.
  | Species H :    hydro orbital   2 p accepted.
 
  Basis size parameters after reduction:
  | Total number of radial functions:        9
  | Total number of basis functions :       24
 
  Per-task memory consumption for arrays in subroutine allocate_ext:
  |           2.249332MB.
  Testing on-site integration grid accuracy.
  |  Species  Function  <phi|h_atom|phi> (log., in eV)  <phi|h_atom|phi> (rad., in eV)
           1        1               -514.2508144286               -514.2508099593
           1        2                 15.1752255565                 15.1752107899
           1        3                -21.5401456668                -21.5401546227
           1        4                 -9.0320369391                 -9.0320357652
           1        5                  8.1386560287                  8.1387741253
           1        6                 45.8280871597                 45.8280871655
           2        7                 -6.4753777569                 -6.4754689169
           2        8                 13.6174740163                 13.6170999350
           2        9                 25.2564048317                 25.2564051385

  Preparing densities etc. for the partition functions (integrals / Hartree potential).

  Preparations completed.
  max(cpu_time)          :      0.090 s.
  Wall clock time (cpu1) :      0.090 s.
------------------------------------------------------------

------------------------------------------------------------
          Begin self-consistency loop: Initialization.

          Date     :  20190817, Time     :  154504.059
------------------------------------------------------------

  Initializing index lists of integration centers etc. from given atomic structure:
  | Number of centers in hartree potential         :         3
  | Number of centers in hartree multipole         :         3
  | Number of centers in electron density summation:         3
  | Number of centers in basis integrals           :         3
  | Number of centers in integrals                 :         3
  | Number of centers in hamiltonian               :         3
  * Using 8 tasks for Scalapack Eigenvalue solver.
  Detailed listing of tasks and assigned k-points:
  (for non-periodic systems, the "k-point" denotes an internal label only)
   Task     0 k-point     1 on co1631
   Task     1 k-point     1 on co1631
   Task     2 k-point     1 on co1631
   Task     3 k-point     1 on co1631
   Task     4 k-point     1 on co1631
   Task     5 k-point     1 on co1631
   Task     6 k-point     1 on co1631
   Task     7 k-point     1 on co1631
  Tasks:     8 split into      4 X      2 BLACS grid
  Calculating block size based on n_basis =           24  max_nprow =            4  max_npcol =            2
  ScaLAPACK block size set to:            4
  Allocating        0.001 MB for ovlp
  Allocating        0.001 MB for ham
  Allocating        0.001 MB for eigenvec
  Required Scalapack workspace - INTEGER:            1  REAL:             1
  Partitioning the integration grid into batches with parallel hashing+maxmin method.
  | Number of batches:      424
  | Maximal batch size:     125
  | Minimal batch size:      49
  | Average batch size:      66.552
  | Standard deviation of batch sizes:      18.065

  Integration load balanced across     8 MPI tasks.
  Work distribution over tasks is as follows:
  Task     0 has       3514 integration points.
  Task     1 has       3501 integration points.
  Task     2 has       3493 integration points.
  Task     3 has       3530 integration points.
  Task     4 has       3514 integration points.
  Task     5 has       3495 integration points.
  Task     6 has       3582 integration points.
  Task     7 has       3589 integration points.
  Initializing partition tables, free-atom densities, potentials, etc. across the integration grid (initialize_grid_storage).
  | initialize_grid_storage: Actual outermost partition radius vs. multipole_radius_free
  | (-- VB: in principle, multipole_radius_free should be larger, hence this output)
  | Species        1: Confinement radius =              5.500000000000000 AA, multipole_radius_free =              5.566977527497727 AA.
  | Species        1: outer_partition_radius set to              5.566977527497727 AA .
  | Species        2: Confinement radius =              5.500000000000000 AA, multipole_radius_free =              5.505920724954856 AA.
  | Species        2: outer_partition_radius set to              5.505920724954856 AA .
  | The sparse table of interatomic distances needs          0.09 kbyte instead of         0.07 kbyte of memory.
  | Using the partition_type stratmann_smoother will reduce your memory usage.
  | Net number of integration points:    28218
  | of which are non-zero points    :    26046
  Renormalizing the initial density to the exact electron count on the 3D integration grid.
  | Initial density: Formal number of electrons (from input files) :      10.0000000000
  | Integrated number of electrons on 3D grid     :       9.9999996613
  | Charge integration error                      :      -0.0000003387
  | Normalization factor for density and gradient :       1.0000000339
  Renormalizing the free-atom superposition density to the exact electron count on the 3D integration grid.
  | Formal number of electrons (from input files) :      10.0000000000
  | Integrated number of electrons on 3D grid     :       9.9999996613
  | Charge integration error                      :      -0.0000003387
  | Normalization factor for density and gradient :       1.0000000339
  Obtaining max. number of non-zero basis functions in each batch (get_n_compute_maxes).
  | Maximal number of non-zero basis functions:       24 in task     0
  | Maximal number of non-zero basis functions:       24 in task     1
  | Maximal number of non-zero basis functions:       24 in task     2
  | Maximal number of non-zero basis functions:       24 in task     3
  | Maximal number of non-zero basis functions:       24 in task     4
  | Maximal number of non-zero basis functions:       24 in task     5
  | Maximal number of non-zero basis functions:       24 in task     6
  | Maximal number of non-zero basis functions:       24 in task     7
  Selecting the method for density update.
  Loop over occupied states selected for charge density update.
  Allocating        0.002 MB for KS_eigenvector
  Integrating Hamiltonian matrix: batch-based integration.
  Time summed over all CPUs for integration: real work        0.060 s, elapsed        0.064 s
  Integrating overlap matrix.
  Time summed over all CPUs for integration: real work        0.019 s, elapsed        0.021 s
  Deallocating overlap matrix.

  Updating Kohn-Sham eigenvalues and eigenvectors using ELSI and the ELPA eigensolver.
  Overlap matrix is not singular
  | Lowest and highest eigenvalues :  0.1950E-01,  0.2747E+01
  Finished singularity check of overlap matrix
  | Time :     0.000 s
  Starting ELPA eigensolver
  Finished Cholesky decomposition
  | Time :     0.000 s
  Finished transformation to standard eigenproblem
  | Time :     0.000 s
  Finished solving standard eigenproblem
  | Time :     0.000 s
  Finished back-transformation of eigenvectors
  | Time :     0.000 s

  Obtaining occupation numbers and chemical potential using ELSI.
  | Chemical potential (Fermi level):    -9.92058004 eV
  Writing Kohn-Sham eigenvalues.

  State    Occupation    Eigenvalue [Ha]    Eigenvalue [eV]
      1       2.00000         -18.993053         -516.82727
      2       2.00000          -1.082628          -29.45981
      3       2.00000          -0.580855          -15.80588
      4       2.00000          -0.521169          -14.18174
      5       2.00000          -0.427982          -11.64599
      6       0.00000          -0.058275           -1.58573
      7       0.00000           0.021880            0.59539
      8       0.00000           0.206316            5.61415
      9       0.00000           0.246682            6.71257
     10       0.00000           0.288968            7.86321
     11       0.00000           0.551580           15.00926

  Highest occupied state (VBM) at    -11.64599170 eV
  | Occupation number:      2.00000000

  Lowest unoccupied state (CBM) at    -1.58573225 eV
  | Occupation number:      0.00000000

  Overall HOMO-LUMO gap:     10.06025945 eV.
  Calculating total energy contributions from superposition of free atom densities.

  Total energy components:
  | Sum of eigenvalues            :         -43.21137692 Ha       -1175.84139210 eV
  | XC energy correction          :          -9.00309899 Ha        -244.98678827 eV
  | XC potential correction       :          11.57562995 Ha         314.98891729 eV
  | Free-atom electrostatic energy:         -35.80709021 Ha        -974.36049954 eV
  | Hartree energy correction     :           0.00000000 Ha           0.00000000 eV
  | Entropy correction            :           0.00000000 Ha           0.00000000 eV
  | ---------------------------
  | Total energy                  :         -76.44593617 Ha       -2080.19976262 eV
  | Total energy, T -> 0          :         -76.44593617 Ha       -2080.19976262 eV  <-- do not rely on this value for anything but (periodic) metals
  | Electronic free energy        :         -76.44593617 Ha       -2080.19976262 eV

  Derived energy quantities:
  | Kinetic energy                :          75.52444212 Ha        2055.12463365 eV
  | Electrostatic energy          :        -142.96727930 Ha       -3890.33760799 eV
  | Energy correction for multipole
  | error in Hartree potential    :           0.00000000 Ha           0.00000000 eV
  | Sum of eigenvalues per atom                           :        -391.94713070 eV
  | Total energy (T->0) per atom                          :        -693.39992087 eV  <-- do not rely on this value for anything but (periodic) metals
  | Electronic free energy per atom                       :        -693.39992087 eV
  Initialize hartree_potential_storage
  Max. number of atoms included in rho_multipole:            3

  End scf initialization - timings             :  max(cpu_time)    wall_clock(cpu1)
  | Time for scf. initialization               :        0.033 s           0.033 s
  | Boundary condition initialization          :        0.000 s           0.000 s
  | Integration                                :        0.012 s           0.011 s
  | Solution of K.-S. eqns.                    :        0.004 s           0.004 s
  | Grid partitioning                          :        0.007 s           0.007 s
  | Preloading free-atom quantities on grid    :        0.003 s           0.003 s
  | Free-atom superposition energy             :        0.003 s           0.003 s
  | Total energy evaluation                    :        0.000 s           0.000 s

  Partial memory accounting:
  | Current value for overall tracked memory usage:
  |   Minimum:        0.006 MB (on task 4)
  |   Maximum:        0.007 MB (on task 0)
  |   Average:        0.006 MB
  | Peak value for overall tracked memory usage:
  |   Minimum:        0.106 MB (on task 7 after allocating grid_partition)
  |   Maximum:        0.142 MB (on task 2 after allocating grid_partition)
  |   Average:        0.123 MB
  | Largest tracked array allocation so far:
  |   Minimum:        0.070 MB (all_coords on task 7)
  |   Maximum:        0.093 MB (all_coords on task 2)
  |   Average:        0.081 MB
  Note:  These values currently only include a subset of arrays which are explicitly tracked.
  The "true" memory usage will be greater.
------------------------------------------------------------

------------------------------------------------------------
          Begin self-consistency iteration #    1

  Date     :  20190817, Time     :  154504.092
------------------------------------------------------------
  Evaluating new KS density.
  Integration grid: deviation in total charge (<rho> - N_e) =   1.776357E-15
  Pulay mixing of updated and previous charge densities.
  Renormalizing the density to the exact electron count on the 3D integration grid.
  | Formal number of electrons (from input files) :      10.0000000000
  | Integrated number of electrons on 3D grid     :      10.0000000000
  | Charge integration error                      :       0.0000000000
  | Normalization factor for density and gradient :       1.0000000000

  Evaluating partitioned Hartree potential by multipole expansion.
  | Original multipole sum: apparent total charge =   0.924875E-14
  | Sum of charges compensated after spline to logarithmic grids =   0.116093E-05
  | Analytical far-field extrapolation by fixed multipoles:
  | Hartree multipole sum: apparent total charge =   0.878139E-14
  Summing up the Hartree potential.
  Time summed over all CPUs for potential: real work        0.038 s, elapsed        0.039 s
  | RMS charge density error from multipole expansion :   0.334290E-02

  Integrating Hamiltonian matrix: batch-based integration.
  Time summed over all CPUs for integration: real work        0.058 s, elapsed        0.063 s

  Updating Kohn-Sham eigenvalues and eigenvectors using ELSI and the ELPA eigensolver.
  Starting ELPA eigensolver
  Finished transformation to standard eigenproblem
  | Time :     0.000 s
  Finished solving standard eigenproblem
  | Time :     0.001 s
  Finished back-transformation of eigenvectors
  | Time :     0.000 s

  Obtaining occupation numbers and chemical potential using ELSI.
  | Chemical potential (Fermi level):    -3.90885711 eV
  Writing Kohn-Sham eigenvalues.

  State    Occupation    Eigenvalue [Ha]    Eigenvalue [eV]
      1       2.00000         -18.618467         -506.63427
      2       2.00000          -0.905895          -24.65065
      3       2.00000          -0.432750          -11.77573
      4       2.00000          -0.344619           -9.37755
      5       2.00000          -0.239880           -6.52747
      6       0.00000          -0.010978           -0.29872
      7       0.00000           0.089030            2.42264
      8       0.00000           0.293780            7.99416
      9       0.00000           0.342159            9.31063
     10       0.00000           0.348403            9.48054
     11       0.00000           0.607361           16.52714

  Highest occupied state (VBM) at     -6.52747390 eV
  | Occupation number:      2.00000000

  Lowest unoccupied state (CBM) at    -0.29872216 eV
  | Occupation number:      0.00000000

  Overall HOMO-LUMO gap:      6.22875174 eV.

  Total energy components:
  | Sum of eigenvalues            :         -41.08322159 Ha       -1117.93133911 eV
  | XC energy correction          :          -9.25612202 Ha        -251.87189533 eV
  | XC potential correction       :          11.90736768 Ha         324.01596046 eV
  | Free-atom electrostatic energy:         -35.80709021 Ha        -974.36049954 eV
  | Hartree energy correction     :          -2.15382320 Ha         -58.60851123 eV
  | Entropy correction            :           0.00000000 Ha           0.00000000 eV
  | ---------------------------
  | Total energy                  :         -76.39288933 Ha       -2078.75628476 eV
  | Total energy, T -> 0          :         -76.39288933 Ha       -2078.75628476 eV  <-- do not rely on this value for anything but (periodic) metals
  | Electronic free energy        :         -76.39288933 Ha       -2078.75628476 eV

  Derived energy quantities:
  | Kinetic energy                :          76.84507946 Ha        2091.06100421 eV
  | Electrostatic energy          :        -143.98184678 Ha       -3917.94539364 eV
  | Energy correction for multipole
  | error in Hartree potential    :           0.00067071 Ha           0.01825107 eV
  | Sum of eigenvalues per atom                           :        -372.64377970 eV
  | Total energy (T->0) per atom                          :        -692.91876159 eV  <-- do not rely on this value for anything but (periodic) metals
  | Electronic free energy per atom                       :        -692.91876159 eV

  Self-consistency convergence accuracy:
  | Change of charge density      :  0.2936E+00
  | Change of sum of eigenvalues  :  0.5791E+02 eV
  | Change of total energy        :  0.1443E+01 eV

  End self-consistency iteration #     1       :  max(cpu_time)    wall_clock(cpu1)
  | Time for this iteration                    :        0.022 s           0.022 s
  | Charge density update                      :        0.006 s           0.006 s
  | Density mixing                             :        0.000 s           0.000 s
  | Hartree multipole update                   :        0.001 s           0.001 s
  | Hartree multipole summation                :        0.005 s           0.005 s
  | Integration                                :        0.008 s           0.008 s
  | Solution of K.-S. eqns.                    :        0.001 s           0.001 s
  | Total energy evaluation                    :        0.000 s           0.000 s

  Partial memory accounting:
  | Current value for overall tracked memory usage:
  |   Minimum:        0.006 MB (on task 4)
  |   Maximum:        0.007 MB (on task 0)
  |   Average:        0.006 MB
  | Peak value for overall tracked memory usage:
  |   Minimum:        0.106 MB (on task 7 after allocating grid_partition)
  |   Maximum:        0.142 MB (on task 2 after allocating grid_partition)
  |   Average:        0.123 MB
  | Largest tracked array allocation so far:
  |   Minimum:        0.070 MB (all_coords on task 7)
  |   Maximum:        0.093 MB (all_coords on task 2)
  |   Average:        0.081 MB
  Note:  These values currently only include a subset of arrays which are explicitly tracked.
  The "true" memory usage will be greater.
------------------------------------------------------------

------------------------------------------------------------
          Begin self-consistency iteration #    2

  Date     :  20190817, Time     :  154504.114
------------------------------------------------------------
  Evaluating new KS density.
  Integration grid: deviation in total charge (<rho> - N_e) =  -1.776357E-15
  Pulay mixing of updated and previous charge densities.
  Renormalizing the density to the exact electron count on the 3D integration grid.
  | Formal number of electrons (from input files) :      10.0000000000
  | Integrated number of electrons on 3D grid     :      10.0000000000
  | Charge integration error                      :       0.0000000000
  | Normalization factor for density and gradient :       1.0000000000

  Evaluating partitioned Hartree potential by multipole expansion.
  | Original multipole sum: apparent total charge =   0.828944E-14
  | Sum of charges compensated after spline to logarithmic grids =   0.668001E-06
  | Analytical far-field extrapolation by fixed multipoles:
  | Hartree multipole sum: apparent total charge =   0.787128E-14
  Summing up the Hartree potential.
  Time summed over all CPUs for potential: real work        0.038 s, elapsed        0.040 s
  | RMS charge density error from multipole expansion :   0.396934E-02

  Integrating Hamiltonian matrix: batch-based integration.
  Time summed over all CPUs for integration: real work        0.056 s, elapsed        0.061 s

  Updating Kohn-Sham eigenvalues and eigenvectors using ELSI and the ELPA eigensolver.
  Starting ELPA eigensolver
  Finished transformation to standard eigenproblem
  | Time :     0.000 s
  Finished solving standard eigenproblem
  | Time :     0.000 s
  Finished back-transformation of eigenvectors
  | Time :     0.000 s

  Obtaining occupation numbers and chemical potential using ELSI.
  | Chemical potential (Fermi level):    -4.16642253 eV
  Highest occupied state (VBM) at     -7.53655026 eV
  | Occupation number:      2.00000000

  Lowest unoccupied state (CBM) at    -0.47395368 eV
  | Occupation number:      0.00000000

  Overall HOMO-LUMO gap:      7.06259658 eV.

  Checking to see if s.c.f. parameters should be adjusted.

  Total energy components:
  | Sum of eigenvalues            :         -41.59730513 Ha       -1131.92026414 eV
  | XC energy correction          :          -9.19259663 Ha        -250.14328141 eV
  | XC potential correction       :          11.82371992 Ha         321.73978909 eV
  | Free-atom electrostatic energy:         -35.80709021 Ha        -974.36049954 eV
  | Hartree energy correction     :          -1.60581996 Ha         -43.69658438 eV
  | Entropy correction            :           0.00000000 Ha           0.00000000 eV
  | ---------------------------
  | Total energy                  :         -76.37909201 Ha       -2078.38084038 eV
  | Total energy, T -> 0          :         -76.37909201 Ha       -2078.38084038 eV  <-- do not rely on this value for anything but (periodic) metals
  | Electronic free energy        :         -76.37909201 Ha       -2078.38084038 eV

  Derived energy quantities:
  | Kinetic energy                :          76.29775540 Ha        2076.16755876 eV
  | Electrostatic energy          :        -143.48425078 Ha       -3904.40511772 eV
  | Energy correction for multipole
  | error in Hartree potential    :          -0.00116856 Ha          -0.03179805 eV
  | Sum of eigenvalues per atom                           :        -377.30675471 eV
  | Total energy (T->0) per atom                          :        -692.79361346 eV  <-- do not rely on this value for anything but (periodic) metals
  | Electronic free energy per atom                       :        -692.79361346 eV

  Self-consistency convergence accuracy:
  | Change of charge density      :  0.2168E+00
  | Change of sum of eigenvalues  : -0.1399E+02 eV
  | Change of total energy        :  0.3754E+00 eV

  End self-consistency iteration #     2       :  max(cpu_time)    wall_clock(cpu1)
  | Time for this iteration                    :        0.022 s           0.022 s
  | Charge density update                      :        0.005 s           0.006 s
  | Density mixing                             :        0.001 s           0.000 s
  | Hartree multipole update                   :        0.001 s           0.001 s
  | Hartree multipole summation                :        0.005 s           0.006 s
  | Integration                                :        0.008 s           0.007 s
  | Solution of K.-S. eqns.                    :        0.002 s           0.002 s
  | Total energy evaluation                    :        0.000 s           0.000 s

  Partial memory accounting:
  | Current value for overall tracked memory usage:
  |   Minimum:        0.007 MB (on task 4)
  |   Maximum:        0.008 MB (on task 0)
  |   Average:        0.007 MB
  | Peak value for overall tracked memory usage:
  |   Minimum:        0.106 MB (on task 7 after allocating grid_partition)
  |   Maximum:        0.142 MB (on task 2 after allocating grid_partition)
  |   Average:        0.123 MB
  | Largest tracked array allocation so far:
  |   Minimum:        0.070 MB (all_coords on task 7)
  |   Maximum:        0.093 MB (all_coords on task 2)
  |   Average:        0.081 MB
  Note:  These values currently only include a subset of arrays which are explicitly tracked.
  The "true" memory usage will be greater.
------------------------------------------------------------

------------------------------------------------------------
          Begin self-consistency iteration #    3

  Date     :  20190817, Time     :  154504.137
------------------------------------------------------------
  Evaluating new KS density.
  Integration grid: deviation in total charge (<rho> - N_e) =   3.552714E-15
  Pulay mixing of updated and previous charge densities.
  Renormalizing the density to the exact electron count on the 3D integration grid.
  | Formal number of electrons (from input files) :      10.0000000000
  | Integrated number of electrons on 3D grid     :      10.0000000000
  | Charge integration error                      :      -0.0000000000
  | Normalization factor for density and gradient :       1.0000000000

  Evaluating partitioned Hartree potential by multipole expansion.
  | Original multipole sum: apparent total charge =   0.221380E-14
  | Sum of charges compensated after spline to logarithmic grids =   0.531678E-06
  | Analytical far-field extrapolation by fixed multipoles:
  | Hartree multipole sum: apparent total charge =   0.199242E-14
  Summing up the Hartree potential.
  Time summed over all CPUs for potential: real work        0.038 s, elapsed        0.040 s
  | RMS charge density error from multipole expansion :   0.647569E-02

  Integrating Hamiltonian matrix: batch-based integration.
  Time summed over all CPUs for integration: real work        0.055 s, elapsed        0.065 s

  Updating Kohn-Sham eigenvalues and eigenvectors using ELSI and the ELPA eigensolver.
  Starting ELPA eigensolver
  Finished transformation to standard eigenproblem
  | Time :     0.000 s
  Finished solving standard eigenproblem
  | Time :     0.001 s
  Finished back-transformation of eigenvectors
  | Time :     0.000 s

  Obtaining occupation numbers and chemical potential using ELSI.
  | Chemical potential (Fermi level):    -3.73656120 eV
  Highest occupied state (VBM) at     -6.96924508 eV
  | Occupation number:      2.00000000

  Lowest unoccupied state (CBM) at    -0.16485751 eV
  | Occupation number:      0.00000000

  Overall HOMO-LUMO gap:      6.80438757 eV.

  Total energy components:
  | Sum of eigenvalues            :         -41.46774823 Ha       -1128.39484151 eV
  | XC energy correction          :          -9.21445076 Ha        -250.73796258 eV
  | XC potential correction       :          11.85209948 Ha         322.51203608 eV
  | Free-atom electrostatic energy:         -35.80709021 Ha        -974.36049954 eV
  | Hartree energy correction     :          -1.74059500 Ha         -47.36399979 eV
  | Entropy correction            :           0.00000000 Ha           0.00000000 eV
  | ---------------------------
  | Total energy                  :         -76.37778472 Ha       -2078.34526734 eV
  | Total energy, T -> 0          :         -76.37778472 Ha       -2078.34526734 eV  <-- do not rely on this value for anything but (periodic) metals
  | Electronic free energy        :         -76.37778472 Ha       -2078.34526734 eV

  Derived energy quantities:
  | Kinetic energy                :          76.04899547 Ha        2069.39845659 eV
  | Electrostatic energy          :        -143.21232943 Ha       -3897.00576135 eV
  | Energy correction for multipole
  | error in Hartree potential    :          -0.00339157 Ha          -0.09228930 eV
  | Sum of eigenvalues per atom                           :        -376.13161384 eV
  | Total energy (T->0) per atom                          :        -692.78175578 eV  <-- do not rely on this value for anything but (periodic) metals
  | Electronic free energy per atom                       :        -692.78175578 eV

  Self-consistency convergence accuracy:
  | Change of charge density      :  0.7262E-01
  | Change of sum of eigenvalues  :  0.3525E+01 eV
  | Change of total energy        :  0.3557E-01 eV

  End self-consistency iteration #     3       :  max(cpu_time)    wall_clock(cpu1)
  | Time for this iteration                    :        0.023 s           0.022 s
  | Charge density update                      :        0.005 s           0.005 s
  | Density mixing                             :        0.001 s           0.001 s
  | Hartree multipole update                   :        0.001 s           0.001 s
  | Hartree multipole summation                :        0.005 s           0.005 s
  | Integration                                :        0.008 s           0.008 s
  | Solution of K.-S. eqns.                    :        0.002 s           0.002 s
  | Total energy evaluation                    :        0.000 s           0.000 s

  Partial memory accounting:
  | Current value for overall tracked memory usage:
  |   Minimum:        0.007 MB (on task 4)
  |   Maximum:        0.008 MB (on task 0)
  |   Average:        0.007 MB
  | Peak value for overall tracked memory usage:
  |   Minimum:        0.106 MB (on task 7 after allocating grid_partition)
  |   Maximum:        0.142 MB (on task 2 after allocating grid_partition)
  |   Average:        0.123 MB
  | Largest tracked array allocation so far:
  |   Minimum:        0.070 MB (all_coords on task 7)
  |   Maximum:        0.093 MB (all_coords on task 2)
  |   Average:        0.081 MB
  Note:  These values currently only include a subset of arrays which are explicitly tracked.
  The "true" memory usage will be greater.
------------------------------------------------------------

------------------------------------------------------------
          Begin self-consistency iteration #    4

  Date     :  20190817, Time     :  154504.160
------------------------------------------------------------
  Evaluating new KS density.
  Integration grid: deviation in total charge (<rho> - N_e) =  -3.552714E-15
  Pulay mixing of updated and previous charge densities.
  Renormalizing the density to the exact electron count on the 3D integration grid.
  | Formal number of electrons (from input files) :      10.0000000000
  | Integrated number of electrons on 3D grid     :      10.0000000000
  | Charge integration error                      :       0.0000000000
  | Normalization factor for density and gradient :       1.0000000000

  Evaluating partitioned Hartree potential by multipole expansion.
  | Original multipole sum: apparent total charge =   0.860921E-14
  | Sum of charges compensated after spline to logarithmic grids =   0.517605E-06
  | Analytical far-field extrapolation by fixed multipoles:
  | Hartree multipole sum: apparent total charge =   0.858461E-14
  Summing up the Hartree potential.
  Time summed over all CPUs for potential: real work        0.038 s, elapsed        0.040 s
  | RMS charge density error from multipole expansion :   0.629862E-02

  Integrating Hamiltonian matrix: batch-based integration.
  Time summed over all CPUs for integration: real work        0.056 s, elapsed        0.061 s

  Updating Kohn-Sham eigenvalues and eigenvectors using ELSI and the ELPA eigensolver.
  Starting ELPA eigensolver
  Finished transformation to standard eigenproblem
  | Time :     0.000 s
  Finished solving standard eigenproblem
  | Time :     0.001 s
  Finished back-transformation of eigenvectors
  | Time :     0.000 s

  Obtaining occupation numbers and chemical potential using ELSI.
  | Chemical potential (Fermi level):    -3.81906662 eV
  Highest occupied state (VBM) at     -7.11801273 eV
  | Occupation number:      2.00000000

  Lowest unoccupied state (CBM) at    -0.22168106 eV
  | Occupation number:      0.00000000

  Overall HOMO-LUMO gap:      6.89633167 eV.

  Total energy components:
  | Sum of eigenvalues            :         -41.52629135 Ha       -1129.98788081 eV
  | XC energy correction          :          -9.20636323 Ha        -250.51788976 eV
  | XC potential correction       :          11.84151986 Ha         322.22414999 eV
  | Free-atom electrostatic energy:         -35.80709021 Ha        -974.36049954 eV
  | Hartree energy correction     :          -1.67949720 Ha         -45.70144397 eV
  | Entropy correction            :           0.00000000 Ha           0.00000000 eV
  | ---------------------------
  | Total energy                  :         -76.37772213 Ha       -2078.34356408 eV
  | Total energy, T -> 0          :         -76.37772213 Ha       -2078.34356408 eV  <-- do not rely on this value for anything but (periodic) metals
  | Electronic free energy        :         -76.37772213 Ha       -2078.34356408 eV

  Derived energy quantities:
  | Kinetic energy                :          76.02905382 Ha        2068.85581680 eV
  | Electrostatic energy          :        -143.20041272 Ha       -3896.68149113 eV
  | Energy correction for multipole
  | error in Hartree potential    :          -0.00333524 Ha          -0.09075641 eV
  | Sum of eigenvalues per atom                           :        -376.66262694 eV
  | Total energy (T->0) per atom                          :        -692.78118803 eV  <-- do not rely on this value for anything but (periodic) metals
  | Electronic free energy per atom                       :        -692.78118803 eV

  Self-consistency convergence accuracy:
  | Change of charge density      :  0.9829E-02
  | Change of sum of eigenvalues  : -0.1593E+01 eV
  | Change of total energy        :  0.1703E-02 eV

  End self-consistency iteration #     4       :  max(cpu_time)    wall_clock(cpu1)
  | Time for this iteration                    :        0.022 s           0.021 s
  | Charge density update                      :        0.005 s           0.005 s
  | Density mixing                             :        0.001 s           0.001 s
  | Hartree multipole update                   :        0.001 s           0.001 s
  | Hartree multipole summation                :        0.005 s           0.005 s
  | Integration                                :        0.008 s           0.008 s
  | Solution of K.-S. eqns.                    :        0.001 s           0.001 s
  | Total energy evaluation                    :        0.000 s           0.000 s

  Partial memory accounting:
  | Current value for overall tracked memory usage:
  |   Minimum:        0.007 MB (on task 4)
  |   Maximum:        0.008 MB (on task 0)
  |   Average:        0.007 MB
  | Peak value for overall tracked memory usage:
  |   Minimum:        0.106 MB (on task 7 after allocating grid_partition)
  |   Maximum:        0.142 MB (on task 2 after allocating grid_partition)
  |   Average:        0.123 MB
  | Largest tracked array allocation so far:
  |   Minimum:        0.070 MB (all_coords on task 7)
  |   Maximum:        0.093 MB (all_coords on task 2)
  |   Average:        0.081 MB
  Note:  These values currently only include a subset of arrays which are explicitly tracked.
  The "true" memory usage will be greater.
------------------------------------------------------------

------------------------------------------------------------
          Begin self-consistency iteration #    5

  Date     :  20190817, Time     :  154504.182
------------------------------------------------------------
  Evaluating new KS density.
  Integration grid: deviation in total charge (<rho> - N_e) =   1.776357E-15
  Pulay mixing of updated and previous charge densities.
  Renormalizing the density to the exact electron count on the 3D integration grid.
  | Formal number of electrons (from input files) :      10.0000000000
  | Integrated number of electrons on 3D grid     :      10.0000000000
  | Charge integration error                      :      -0.0000000000
  | Normalization factor for density and gradient :       1.0000000000

  Evaluating partitioned Hartree potential by multipole expansion.
  | Original multipole sum: apparent total charge =   0.250897E-14
  | Sum of charges compensated after spline to logarithmic grids =   0.530261E-06
  | Analytical far-field extrapolation by fixed multipoles:
  | Hartree multipole sum: apparent total charge =   0.150046E-14
  Summing up the Hartree potential.
  Time summed over all CPUs for potential: real work        0.040 s, elapsed        0.043 s
  | RMS charge density error from multipole expansion :   0.635025E-02

  Integrating Hamiltonian matrix: batch-based integration.
  Time summed over all CPUs for integration: real work        0.057 s, elapsed        0.062 s

  Updating Kohn-Sham eigenvalues and eigenvectors using ELSI and the ELPA eigensolver.
  Starting ELPA eigensolver
  Finished transformation to standard eigenproblem
  | Time :     0.001 s
  Finished solving standard eigenproblem
  | Time :     0.000 s
  Finished back-transformation of eigenvectors
  | Time :     0.000 s

  Obtaining occupation numbers and chemical potential using ELSI.
  | Chemical potential (Fermi level):    -3.80781315 eV
  Highest occupied state (VBM) at     -7.09457490 eV
  | Occupation number:      2.00000000

  Lowest unoccupied state (CBM) at    -0.21278272 eV
  | Occupation number:      0.00000000

  Overall HOMO-LUMO gap:      6.88179218 eV.

  Total energy components:
  | Sum of eigenvalues            :         -41.51857285 Ha       -1129.77784978 eV
  | XC energy correction          :          -9.20739680 Ha        -250.54601457 eV
  | XC potential correction       :          11.84288240 Ha         322.26122653 eV
  | Free-atom electrostatic energy:         -35.80709021 Ha        -974.36049954 eV
  | Hartree energy correction     :          -1.68754426 Ha         -45.92041570 eV
  | Entropy correction            :           0.00000000 Ha           0.00000000 eV
  | ---------------------------
  | Total energy                  :         -76.37772172 Ha       -2078.34355306 eV
  | Total energy, T -> 0          :         -76.37772172 Ha       -2078.34355306 eV  <-- do not rely on this value for anything but (periodic) metals
  | Electronic free energy        :         -76.37772172 Ha       -2078.34355306 eV

  Derived energy quantities:
  | Kinetic energy                :          76.02864448 Ha        2068.84467809 eV
  | Electrostatic energy          :        -143.19896941 Ha       -3896.64221658 eV
  | Energy correction for multipole
  | error in Hartree potential    :          -0.00338348 Ha          -0.09206919 eV
  | Sum of eigenvalues per atom                           :        -376.59261659 eV
  | Total energy (T->0) per atom                          :        -692.78118435 eV  <-- do not rely on this value for anything but (periodic) metals
  | Electronic free energy per atom                       :        -692.78118435 eV

  Self-consistency convergence accuracy:
  | Change of charge density      :  0.1376E-02
  | Change of sum of eigenvalues  :  0.2100E+00 eV
  | Change of total energy        :  0.1102E-04 eV

  End self-consistency iteration #     5       :  max(cpu_time)    wall_clock(cpu1)
  | Time for this iteration                    :        0.023 s           0.022 s
  | Charge density update                      :        0.005 s           0.005 s
  | Density mixing                             :        0.001 s           0.001 s
  | Hartree multipole update                   :        0.001 s           0.001 s
  | Hartree multipole summation                :        0.005 s           0.005 s
  | Integration                                :        0.008 s           0.008 s
  | Solution of K.-S. eqns.                    :        0.002 s           0.002 s
  | Total energy evaluation                    :        0.000 s           0.000 s

  Partial memory accounting:
  | Current value for overall tracked memory usage:
  |   Minimum:        0.007 MB (on task 4)
  |   Maximum:        0.008 MB (on task 0)
  |   Average:        0.007 MB
  | Peak value for overall tracked memory usage:
  |   Minimum:        0.106 MB (on task 7 after allocating grid_partition)
  |   Maximum:        0.142 MB (on task 2 after allocating grid_partition)
  |   Average:        0.123 MB
  | Largest tracked array allocation so far:
  |   Minimum:        0.070 MB (all_coords on task 7)
  |   Maximum:        0.093 MB (all_coords on task 2)
  |   Average:        0.081 MB
  Note:  These values currently only include a subset of arrays which are explicitly tracked.
  The "true" memory usage will be greater.
------------------------------------------------------------

------------------------------------------------------------
          Begin self-consistency iteration #    6

  Date     :  20190817, Time     :  154504.205
------------------------------------------------------------
  Evaluating new KS density.
  Integration grid: deviation in total charge (<rho> - N_e) =   3.552714E-15
  Pulay mixing of updated and previous charge densities.
  Renormalizing the density to the exact electron count on the 3D integration grid.
  | Formal number of electrons (from input files) :      10.0000000000
  | Integrated number of electrons on 3D grid     :      10.0000000000
  | Charge integration error                      :       0.0000000000
  | Normalization factor for density and gradient :       1.0000000000

  Evaluating partitioned Hartree potential by multipole expansion.
  | Original multipole sum: apparent total charge =  -0.983910E-15
  | Sum of charges compensated after spline to logarithmic grids =   0.530941E-06
  | Analytical far-field extrapolation by fixed multipoles:
  | Hartree multipole sum: apparent total charge =  -0.762530E-15
  Summing up the Hartree potential.
  Time summed over all CPUs for potential: real work        0.038 s, elapsed        0.041 s
  | RMS charge density error from multipole expansion :   0.635134E-02

  Integrating Hamiltonian matrix: batch-based integration.
  Time summed over all CPUs for integration: real work        0.056 s, elapsed        0.061 s

  Updating Kohn-Sham eigenvalues and eigenvectors using ELSI and the ELPA eigensolver.
  Starting ELPA eigensolver
  Finished transformation to standard eigenproblem
  | Time :     0.000 s
  Finished solving standard eigenproblem
  | Time :     0.000 s
  Finished back-transformation of eigenvectors
  | Time :     0.000 s

  Obtaining occupation numbers and chemical potential using ELSI.
  | Chemical potential (Fermi level):    -3.80839342 eV
  Highest occupied state (VBM) at     -7.09615914 eV
  | Occupation number:      2.00000000

  Lowest unoccupied state (CBM) at    -0.21302281 eV
  | Occupation number:      0.00000000

  Overall HOMO-LUMO gap:      6.88313633 eV.

  Total energy components:
  | Sum of eigenvalues            :         -41.51930769 Ha       -1129.79784581 eV
  | XC energy correction          :          -9.20730445 Ha        -250.54350153 eV
  | XC potential correction       :          11.84276292 Ha         322.25797524 eV
  | Free-atom electrostatic energy:         -35.80709021 Ha        -974.36049954 eV
  | Hartree energy correction     :          -1.68678226 Ha         -45.89968052 eV
  | Entropy correction            :           0.00000000 Ha           0.00000000 eV
  | ---------------------------
  | Total energy                  :         -76.37772169 Ha       -2078.34355217 eV
  | Total energy, T -> 0          :         -76.37772169 Ha       -2078.34355217 eV  <-- do not rely on this value for anything but (periodic) metals
  | Electronic free energy        :         -76.37772169 Ha       -2078.34355217 eV

  Derived energy quantities:
  | Kinetic energy                :          76.02850596 Ha        2068.84090870 eV
  | Electrostatic energy          :        -143.19892321 Ha       -3896.64095934 eV
  | Energy correction for multipole
  | error in Hartree potential    :          -0.00338703 Ha          -0.09216565 eV
  | Sum of eigenvalues per atom                           :        -376.59928194 eV
  | Total energy (T->0) per atom                          :        -692.78118406 eV  <-- do not rely on this value for anything but (periodic) metals
  | Electronic free energy per atom                       :        -692.78118406 eV

  Self-consistency convergence accuracy:
  | Change of charge density      :  0.2182E-03
  | Change of sum of eigenvalues  : -0.2000E-01 eV
  | Change of total energy        :  0.8874E-06 eV

  End self-consistency iteration #     6       :  max(cpu_time)    wall_clock(cpu1)
  | Time for this iteration                    :        0.022 s           0.022 s
  | Charge density update                      :        0.005 s           0.005 s
  | Density mixing                             :        0.001 s           0.001 s
  | Hartree multipole update                   :        0.001 s           0.001 s
  | Hartree multipole summation                :        0.005 s           0.005 s
  | Integration                                :        0.008 s           0.008 s
  | Solution of K.-S. eqns.                    :        0.001 s           0.001 s
  | Total energy evaluation                    :        0.000 s           0.000 s

  Partial memory accounting:
  | Current value for overall tracked memory usage:
  |   Minimum:        0.007 MB (on task 4)
  |   Maximum:        0.008 MB (on task 0)
  |   Average:        0.007 MB
  | Peak value for overall tracked memory usage:
  |   Minimum:        0.106 MB (on task 7 after allocating grid_partition)
  |   Maximum:        0.142 MB (on task 2 after allocating grid_partition)
  |   Average:        0.123 MB
  | Largest tracked array allocation so far:
  |   Minimum:        0.070 MB (all_coords on task 7)
  |   Maximum:        0.093 MB (all_coords on task 2)
  |   Average:        0.081 MB
  Note:  These values currently only include a subset of arrays which are explicitly tracked.
  The "true" memory usage will be greater.
------------------------------------------------------------

------------------------------------------------------------
          Begin self-consistency iteration #    7

  Date     :  20190817, Time     :  154504.227
------------------------------------------------------------
  Evaluating new KS density.
  Integration grid: deviation in total charge (<rho> - N_e) =  -1.065814E-14
  Pulay mixing of updated and previous charge densities.
  Renormalizing the density to the exact electron count on the 3D integration grid.
  | Formal number of electrons (from input files) :      10.0000000000
  | Integrated number of electrons on 3D grid     :      10.0000000000
  | Charge integration error                      :       0.0000000000
  | Normalization factor for density and gradient :       1.0000000000

  Evaluating partitioned Hartree potential by multipole expansion.
  | Original multipole sum: apparent total charge =   0.117823E-13
  | Sum of charges compensated after spline to logarithmic grids =   0.530790E-06
  | Analytical far-field extrapolation by fixed multipoles:
  | Hartree multipole sum: apparent total charge =   0.127908E-13
  Summing up the Hartree potential.
  Time summed over all CPUs for potential: real work        0.037 s, elapsed        0.038 s
  | RMS charge density error from multipole expansion :   0.635201E-02

  Integrating Hamiltonian matrix: batch-based integration.
  Time summed over all CPUs for integration: real work        0.057 s, elapsed        0.061 s

  Updating Kohn-Sham eigenvalues and eigenvectors using ELSI and the ELPA eigensolver.
  Starting ELPA eigensolver
  Finished transformation to standard eigenproblem
  | Time :     0.000 s
  Finished solving standard eigenproblem
  | Time :     0.000 s
  Finished back-transformation of eigenvectors
  | Time :     0.000 s

  Obtaining occupation numbers and chemical potential using ELSI.
  | Chemical potential (Fermi level):    -3.80780462 eV
  Highest occupied state (VBM) at     -7.09530771 eV
  | Occupation number:      2.00000000

  Lowest unoccupied state (CBM) at    -0.21263967 eV
  | Occupation number:      0.00000000

  Overall HOMO-LUMO gap:      6.88266804 eV.

  Total energy components:
  | Sum of eigenvalues            :         -41.51891964 Ha       -1129.78728632 eV
  | XC energy correction          :          -9.20736333 Ha        -250.54510371 eV
  | XC potential correction       :          11.84283960 Ha         322.26006196 eV
  | Free-atom electrostatic energy:         -35.80709021 Ha        -974.36049954 eV
  | Hartree energy correction     :          -1.68718813 Ha         -45.91072486 eV
  | Entropy correction            :           0.00000000 Ha           0.00000000 eV
  | ---------------------------
  | Total energy                  :         -76.37772170 Ha       -2078.34355247 eV
  | Total energy, T -> 0          :         -76.37772170 Ha       -2078.34355247 eV  <-- do not rely on this value for anything but (periodic) metals
  | Electronic free energy        :         -76.37772170 Ha       -2078.34355247 eV

  Derived energy quantities:
  | Kinetic energy                :          76.02880719 Ha        2068.84910553 eV
  | Electrostatic energy          :        -143.19916557 Ha       -3896.64755429 eV
  | Energy correction for multipole
  | error in Hartree potential    :          -0.00338637 Ha          -0.09214792 eV
  | Sum of eigenvalues per atom                           :        -376.59576211 eV
  | Total energy (T->0) per atom                          :        -692.78118416 eV  <-- do not rely on this value for anything but (periodic) metals
  | Electronic free energy per atom                       :        -692.78118416 eV

  Self-consistency convergence accuracy:
  | Change of charge density      :  0.4620E-04
  | Change of sum of eigenvalues  :  0.1056E-01 eV
  | Change of total energy        : -0.2976E-06 eV

  End self-consistency iteration #     7       :  max(cpu_time)    wall_clock(cpu1)
  | Time for this iteration                    :        0.022 s           0.022 s
  | Charge density update                      :        0.005 s           0.005 s
  | Density mixing                             :        0.001 s           0.001 s
  | Hartree multipole update                   :        0.001 s           0.002 s
  | Hartree multipole summation                :        0.005 s           0.005 s
  | Integration                                :        0.008 s           0.007 s
  | Solution of K.-S. eqns.                    :        0.001 s           0.001 s
  | Total energy evaluation                    :        0.000 s           0.001 s

  Partial memory accounting:
  | Current value for overall tracked memory usage:
  |   Minimum:        0.007 MB (on task 4)
  |   Maximum:        0.008 MB (on task 0)
  |   Average:        0.007 MB
  | Peak value for overall tracked memory usage:
  |   Minimum:        0.106 MB (on task 7 after allocating grid_partition)
  |   Maximum:        0.142 MB (on task 2 after allocating grid_partition)
  |   Average:        0.123 MB
  | Largest tracked array allocation so far:
  |   Minimum:        0.070 MB (all_coords on task 7)
  |   Maximum:        0.093 MB (all_coords on task 2)
  |   Average:        0.081 MB
  Note:  These values currently only include a subset of arrays which are explicitly tracked.
  The "true" memory usage will be greater.
------------------------------------------------------------

------------------------------------------------------------
          Begin self-consistency iteration #    8

  Date     :  20190817, Time     :  154504.249
------------------------------------------------------------
  Evaluating new KS density.
  Integration grid: deviation in total charge (<rho> - N_e) =  -1.776357E-15
  Pulay mixing of updated and previous charge densities.
  Renormalizing the density to the exact electron count on the 3D integration grid.
  | Formal number of electrons (from input files) :      10.0000000000
  | Integrated number of electrons on 3D grid     :      10.0000000000
  | Charge integration error                      :       0.0000000000
  | Normalization factor for density and gradient :       1.0000000000

  Evaluating partitioned Hartree potential by multipole expansion.
  | Original multipole sum: apparent total charge =   0.114134E-13
  | Sum of charges compensated after spline to logarithmic grids =   0.530815E-06
  | Analytical far-field extrapolation by fixed multipoles:
  | Hartree multipole sum: apparent total charge =   0.114134E-13
  Summing up the Hartree potential.
  Time summed over all CPUs for potential: real work        0.039 s, elapsed        0.040 s
  | RMS charge density error from multipole expansion :   0.635177E-02

  Integrating Hamiltonian matrix: batch-based integration.
  Time summed over all CPUs for integration: real work        0.058 s, elapsed        0.062 s

  Updating Kohn-Sham eigenvalues and eigenvectors using ELSI and the ELPA eigensolver.
  Starting ELPA eigensolver
  Finished transformation to standard eigenproblem
  | Time :     0.000 s
  Finished solving standard eigenproblem
  | Time :     0.000 s
  Finished back-transformation of eigenvectors
  | Time :     0.000 s

  Obtaining occupation numbers and chemical potential using ELSI.
  | Chemical potential (Fermi level):    -3.80800016 eV
  Highest occupied state (VBM) at     -7.09563289 eV
  | Occupation number:      2.00000000

  Lowest unoccupied state (CBM) at    -0.21276700 eV
  | Occupation number:      0.00000000

  Overall HOMO-LUMO gap:      6.88286589 eV.

  Total energy components:
  | Sum of eigenvalues            :         -41.51905807 Ha       -1129.79105314 eV
  | XC energy correction          :          -9.20734389 Ha        -250.54457485 eV
  | XC potential correction       :          11.84281424 Ha         322.25937180 eV
  | Free-atom electrostatic energy:         -35.80709021 Ha        -974.36049954 eV
  | Hartree energy correction     :          -1.68704377 Ha         -45.90679657 eV
  | Entropy correction            :           0.00000000 Ha           0.00000000 eV
  | ---------------------------
  | Total energy                  :         -76.37772170 Ha       -2078.34355230 eV
  | Total energy, T -> 0          :         -76.37772170 Ha       -2078.34355230 eV  <-- do not rely on this value for anything but (periodic) metals
  | Electronic free energy        :         -76.37772170 Ha       -2078.34355230 eV

  Derived energy quantities:
  | Kinetic energy                :          76.02873053 Ha        2068.84701938 eV
  | Electrostatic energy          :        -143.19910833 Ha       -3896.64599683 eV
[...]
  The "true" memory usage will be greater.
------------------------------------------------------------

------------------------------------------------------------
          Begin self-consistency iteration #    7

  Date     :  20190817, Time     :  154506.472
------------------------------------------------------------
  Evaluating new KS density and force components.
  Integration grid: deviation in total charge (<rho> - N_e) =  -3.552714E-15
  Pulay mixing of updated and previous charge densities.
  Renormalizing the density to the exact electron count on the 3D integration grid.
  | Formal number of electrons (from input files) :      10.0000000000
  | Integrated number of electrons on 3D grid     :      10.0000000000
  | Charge integration error                      :       0.0000000000
  | Normalization factor for density and gradient :       1.0000000000

  Evaluating partitioned Hartree potential by multipole expansion.
  | Original multipole sum: apparent total charge =  -0.351748E-14
  | Sum of charges compensated after spline to logarithmic grids =   0.712177E-06
  | Analytical far-field extrapolation by fixed multipoles:
  | Hartree multipole sum: apparent total charge =  -0.319771E-14
  Summing up the Hartree potential.
  Time summed over all CPUs for potential: real work        0.104 s, elapsed        0.109 s
  | RMS charge density error from multipole expansion :   0.678677E-02

  Integrating Hamiltonian matrix: batch-based integration.
  Time summed over all CPUs for integration: real work        0.058 s, elapsed        0.060 s

  Updating Kohn-Sham eigenvalues and eigenvectors using ELSI and the ELPA eigensolver.
  Starting ELPA eigensolver
  Finished transformation to standard eigenproblem
  | Time :     0.000 s
  Finished solving standard eigenproblem
  | Time :     0.000 s
  Finished back-transformation of eigenvectors
  | Time :     0.000 s

  Obtaining occupation numbers and chemical potential using ELSI.
  | Chemical potential (Fermi level):    -2.86649093 eV
  Highest occupied state (VBM) at     -6.99732291 eV
  | Occupation number:      2.00000000

  Lowest unoccupied state (CBM) at    -0.01544299 eV
  | Occupation number:      0.00000000

  Overall HOMO-LUMO gap:      6.98187992 eV.

  Total energy components:
  | Sum of eigenvalues            :         -41.47377187 Ha       -1128.55875304 eV
  | XC energy correction          :          -9.22481028 Ha        -251.01985957 eV
  | XC potential correction       :          11.86620324 Ha         322.89581883 eV
  | Free-atom electrostatic energy:         -35.71721722 Ha        -971.91493099 eV
  | Hartree energy correction     :          -1.82737022 Ha         -49.72527361 eV
  | Entropy correction            :           0.00000000 Ha           0.00000000 eV
  | ---------------------------
  | Total energy                  :         -76.37696635 Ha       -2078.32299838 eV
  | Total energy, T -> 0          :         -76.37696635 Ha       -2078.32299838 eV  <-- do not rely on this value for anything but (periodic) metals
  | Electronic free energy        :         -76.37696635 Ha       -2078.32299838 eV

  Derived energy quantities:
  | Kinetic energy                :          76.04140698 Ha        2069.19196339 eV
  | Electrostatic energy          :        -143.19356305 Ha       -3896.49510220 eV
  | Energy correction for multipole
  | error in Hartree potential    :          -0.00344103 Ha          -0.09363507 eV
  | Sum of eigenvalues per atom                           :        -376.18625101 eV
  | Total energy (T->0) per atom                          :        -692.77433279 eV  <-- do not rely on this value for anything but (periodic) metals
  | Electronic free energy per atom                       :        -692.77433279 eV

  atomic forces [eV/Ang]:
  -----------------------
  atom #    1
   Hellmann-Feynman              : -0.189664E+01  0.184899E+02  0.171504E+01
   Ionic forces                  :  0.000000E+00  0.000000E+00  0.000000E+00
   Multipole                     :  0.431287E-01 -0.309129E+00 -0.273865E-01
   Pulay + GGA                   :  0.261345E+01 -0.166207E+02 -0.145971E+01
   ----------------------------------------------------------------
   Total forces(   1)            :  0.759937E+00  0.156004E+01  0.227939E+00
  atom #    2
   Hellmann-Feynman              : -0.981785E+00 -0.782366E+00 -0.168438E+00
   Ionic forces                  :  0.000000E+00  0.000000E+00  0.000000E+00
   Multipole                     :  0.618758E-02 -0.437998E-01 -0.392452E-02
   Pulay + GGA                   : -0.347859E+00  0.203205E+00 -0.106629E-01
   ----------------------------------------------------------------
   Total forces(   2)            : -0.132346E+01 -0.622960E+00 -0.183025E+00
  atom #    3
   Hellmann-Feynman              :  0.255565E+00 -0.120482E+01 -0.998363E-01
   Ionic forces                  :  0.000000E+00  0.000000E+00  0.000000E+00
   Multipole                     :  0.809682E-02 -0.493599E-01 -0.428034E-02
   Pulay + GGA                   :  0.300082E+00  0.316580E+00  0.593960E-01
   ----------------------------------------------------------------
   Total forces(   3)            :  0.563743E+00 -0.937596E+00 -0.447206E-01


  Self-consistency convergence accuracy:
  | Change of charge density      :  0.3421E-05
  | Change of sum of eigenvalues  : -0.1188E-03 eV
  | Change of total energy        : -0.3778E-07 eV
  | Change of forces              :  0.6534E-03 eV/A

  Writing Kohn-Sham eigenvalues.

  State    Occupation    Eigenvalue [Ha]    Eigenvalue [eV]
      1       2.00000         -18.753639         -510.31249
      2       2.00000          -0.913037          -24.84501
      3       2.00000          -0.504700          -13.73358
      4       2.00000          -0.308363           -8.39097
      5       2.00000          -0.257147           -6.99732
      6       0.00000          -0.000568           -0.01544
      7       0.00000           0.103441            2.81478
      8       0.00000           0.304082            8.27449
      9       0.00000           0.328775            8.94641
     10       0.00000           0.393520           10.70822
     11       0.00000           0.496216           13.50273

  Highest occupied state (VBM) at     -6.99732291 eV
  | Occupation number:      2.00000000

  Lowest unoccupied state (CBM) at    -0.01544299 eV
  | Occupation number:      0.00000000

  Overall HOMO-LUMO gap:      6.98187992 eV.

  Self-consistency cycle converged.

  End self-consistency iteration #     7       :  max(cpu_time)    wall_clock(cpu1)
  | Time for this iteration                    :        0.040 s           0.040 s
  | Charge density & force component update    :        0.016 s           0.015 s
  | Density mixing                             :        0.001 s           0.001 s
  | Hartree multipole update                   :        0.001 s           0.001 s
  | Hartree multipole summation                :        0.014 s           0.014 s
  | Integration                                :        0.008 s           0.008 s
  | Solution of K.-S. eqns.                    :        0.001 s           0.000 s
  | Total energy evaluation                    :        0.000 s           0.001 s

  Partial memory accounting:
  | Current value for overall tracked memory usage:
  |   Minimum:        0.007 MB (on task 4)
  |   Maximum:        0.008 MB (on task 0)
  |   Average:        0.008 MB
  | Peak value for overall tracked memory usage:
  |   Minimum:        0.330 MB (on task 4 after allocating hessian_basis_wave)
  |   Maximum:        0.331 MB (on task 0 after allocating hessian_basis_wave)
  |   Average:        0.330 MB
  | Largest tracked array allocation so far:
  |   Minimum:        0.176 MB (hessian_basis_wave on task 0)
  |   Maximum:        0.176 MB (hessian_basis_wave on task 0)
  |   Average:        0.176 MB
  Note:  These values currently only include a subset of arrays which are explicitly tracked.
  The "true" memory usage will be greater.
------------------------------------------------------------
  ------------------------------------------------------------
  Computing monopole / dipole moments
  | Total electronic charge [e]         :          0.100000000000000E+02
  | Total ionic charge [e]              :          0.100000000000000E+02
  | Total charge [e]                    :          0.000000000000000E+00
  | Total dipole moment [eAng]          :          0.601426469871533E-01        -0.342327551586938E+00        -0.294889189835180E-01
  | Absolute dipole moment              :          0.348819275420590E+00 eAng              /                   0.167518926690343E+01 Debye  .
  Removing unitary transformations (pure translations, rotations) from forces on atoms.
  Atomic forces before filtering:
  | Net force on center of mass :   0.224432E-03 -0.516368E-03  0.192835E-03 eV/A
  | Net torque on center of mass:   0.699466E-04  0.616449E-04 -0.101961E-03 eV
  Atomic forces after filtering:
  | Net force on center of mass :   0.000000E+00  0.178406E-15  0.557519E-16 eV/A
  | Net torque on center of mass:  -0.236021E-16  0.236021E-16  0.212419E-15 eV

  Energy and forces in a compact form:
  | Total energy uncorrected      :         -0.207832299837919E+04 eV
  | Total energy corrected        :         -0.207832299837919E+04 eV  <-- do not rely on this value for anything but (periodic) metals
  | Electronic free energy        :         -0.207832299837919E+04 eV
  Total atomic forces (unitary forces cleaned) [eV/Ang]:
  |    1          0.759852556982645E+00          0.156022193461958E+01          0.227733280807598E+00
  |    2         -0.132353717100740E+01         -0.622735666185646E+00         -0.182990748237735E+00
  |    3          0.563684614024756E+00         -0.937486268433932E+00         -0.447425325698627E-01

  ------------------------------------ 
  Start decomposition of the XC Energy 
  ------------------------------------ 
  X and C from original XC functional choice 
  Hartree-Fock Energy :          0.000000000 Ha              0.000000000 eV
  X Energy            :         -8.900071018 Ha           -242.183254540 eV
  C Energy            :         -0.324739266 Ha             -8.836605032 eV
  Total XC Energy     :         -9.224810284 Ha           -251.019859573 eV
  ------------------------------------ 
  LDA X and C from self-consistent density 
  X Energy LDA        :         -8.086399405 Ha           -220.042123443 eV
  C Energy LDA        :         -0.658931705 Ha            -17.930443988 eV
  ------------------------------------ 
  End decomposition of the XC Energy 
  ------------------------------------ 

------------------------------------------------------------
  Relaxation / MD: End force evaluation.       :  max(cpu_time)    wall_clock(cpu1)
  | Time for this force evaluation             :        0.204 s           0.205 s

------------------------------------------------------------
  Molecular dynamics: Attempting to update all nuclear coordinates.

  Removing unitary transformations (pure translations, rotations) from forces on atoms.
  Atomic forces before filtering:
  | Net force on center of mass :   0.000000E+00  0.178406E-15  0.557519E-16 eV/A
  | Net torque on center of mass:  -0.236021E-16  0.236021E-16  0.212419E-15 eV
  Atomic forces after filtering:
  | Net force on center of mass :   0.000000E+00  0.000000E+00 -0.334511E-16 eV/A
  | Net torque on center of mass:  -0.118011E-16 -0.118011E-16  0.236021E-16 eV
------------------------------------------------------------
  Advancing structure using Born-Oppenheimer Molecular Dynamics:
  Complete information for previous time-step:
  | Time step number          :       10
  | Simulation time           :           0.100000000000000E-01 ps
  | Electronic free energy    :          -0.207832299837919E+04 eV
  | Temperature (nuclei)      :           0.603730578723681E+03 K
  | Nuclear kinetic energy    :           0.234114906791693E+00 eV
  | Total energy (el.+nuc.)   :          -0.207808888347240E+04 eV
  | GLE pseudo hamiltonian    :          -0.207822677367300E+04 eV
------------------------------------------------------------
  Final atomic structure (and velocities) as used in the preceding time step:
                      x [A]             y [A]             z [A]       Atom
   atom              -0.06568594        0.07501819        0.00060432  O
     velocity          -5.11040624         10.44498865         -0.18182410
   atom               0.85428961       -0.27447742        0.04799850  H
     velocity         -17.37314492         26.13094719          6.68758192
   atom              -0.81619541       -0.51375022       -0.12719649  H
     velocity          21.98048763          7.92544117        -27.56784880
------------------------------------------------------------
  |------------------------------------------------------
  | Final ELSI Output
  |------------------------------------------------------
  |
  | Physical Properties
  |   Number of electrons       :        0.10000000E+02
  |   Number of spins           :                     1
  |   Number of k-points        :                     1
  |   Number of states          :                    11
  |
  | Matrix Properties
  |   Matrix format             :           BLACS_DENSE
  |   Number of basis functions :                    24
  |   Matrix sparsity           :        0.00000000E+00
  |
  | Computational Details
  |   Parallel mode             :            MULTI_PROC
  |   Number of MPI tasks       :                     8
  |   Solver requested          :                  ELPA
  |   Number of ELSI calls      :                    85
  |
  |------------------------------------------------------
  | ELSI Project (c)  elsi-interchange.org
  |------------------------------------------------------

------------------------------------------------------------------------------
  Final output of selected total energy values:

  The following output summarizes some interesting total energy values
  at the end of a run (AFTER all relaxation, molecular dynamics, etc.).

  | Total energy of the DFT / Hartree-Fock s.c.f. calculation      :          -2078.322998379 eV
  | Final zero-broadening corrected energy (caution - metals only) :          -2078.322998379 eV
  | For reference only, the value of 1 Hartree used in FHI-aims is :             27.211384500 eV

  Before relying on these values, please be sure to understand exactly which
  total energy value is referred to by a given number. Different objects may
  all carry the same name 'total energy'. Definitions:

  Total energy of the DFT / Hartree-Fock s.c.f. calculation:
  | Note that this energy does not include ANY quantities calculated after the
  | s.c.f. cycle, in particular not ANY RPA, MP2, etc. many-body perturbation terms.

  Final zero-broadening corrected energy:
  | For metallic systems only, a broadening of the occupation numbers at the Fermi
  | level can be extrapolated back to zero broadening by an electron-gas inspired
  | formula. For all systems that are not real metals, this value can be
  | meaningless and should be avoided.

------------------------------------------------------------------------------
  Methods described in the following list of references were used in this FHI-aims run.
  If you publish the results, please make sure to cite these reference if they apply.
  FHI-aims is an academic code, and for our developers (often, Ph.D. students
  and postdocs), scientific credit in the community is essential.
  Thank you for helping us!

  For any use of FHI-aims, please cite:

    Volker Blum, Ralf Gehrke, Felix Hanke, Paula Havu, Ville Havu,
    Xinguo Ren, Karsten Reuter, and Matthias Scheffler
    'Ab initio molecular simulations with numeric atom-centered orbitals'
    Computer Physics Communications 180, 2175-2196 (2009)
    http://dx.doi.org/10.1016/j.cpc.2009.06.022


  The ELSI infrastructure was used in your run to solve the Kohn-Sham electronic structure.
  Please check out http://elsi-interchange.org to learn more.
  If scalability is important for your project, please acknowledge ELSI by citing:

    V. W-z. Yu, F. Corsetti, A. Garcia, W. P. Huhn, M. Jacquelin, W. Jia,
    B. Lange, L. Lin, J. Lu, W. Mi, A. Seifitokaldani, A. Vazquez-Mayagoitia,
    C. Yang, H. Yang, and V. Blum
    'ELSI: A unified software interface for Kohn-Sham electronic structure solvers'
    Computer Physics Communications 222, 267-285 (2018).
    http://dx.doi.org/10.1016/j.cpc.2017.09.007


  For the real-space grid partitioning and parallelization used in this calculation, please cite:

    Ville Havu, Volker Blum, Paula Havu, and Matthias Scheffler,
    'Efficient O(N) integration for all-electron electronic structure calculation'
    'using numerically tabulated basis functions'
    Journal of Computational Physics 228, 8367-8379 (2009).
    http://dx.doi.org/10.1016/j.jcp.2009.08.008

  Of course, there are many other important community references, e.g., those cited in the
  above references. Our list is limited to references that describe implementations in the
  FHI-aims code. The reason is purely practical (length of this list) - please credit others as well.

------------------------------------------------------------
          Leaving FHI-aims.
          Date     :  20190817, Time     :  154506.518

          Computational steps:
          | Number of self-consistency cycles          :           84
          | Number of SCF (re)initializations          :           11
          | Number of molecular dynamics steps         :           11
          | Number of force evaluations                :           11

          Detailed time accounting                     :  max(cpu_time)    wall_clock(cpu1)
          | Total time                                 :        2.579 s           2.596 s
          | Preparation time                           :        0.090 s           0.090 s
          | Boundary condition initalization           :        0.001 s           0.000 s
          | Grid partitioning                          :        0.077 s           0.077 s
          | Preloading free-atom quantities on grid    :        0.034 s           0.034 s
          | Free-atom superposition energy             :        0.031 s           0.032 s
          | Total time for integrations                :        0.684 s           0.687 s
          | Total time for solution of K.-S. equations :        0.076 s           0.073 s
          | Total time for EV reorthonormalization     :        0.054 s           0.065 s
          | Total time for density & force components  :        0.559 s           0.557 s
          | Total time for mixing                      :        0.065 s           0.065 s
          | Total time for Hartree multipole update    :        0.095 s           0.102 s
          | Total time for Hartree multipole sum       :        0.629 s           0.626 s
          | Total time for total energy evaluation     :        0.015 s           0.015 s

          Partial memory accounting:
          | Residual value for overall tracked memory usage across tasks:     0.000000 MB (should be 0.000000 MB)
          | Peak values for overall tracked memory usage:
          |   Minimum:        0.330 MB (on task 4 after allocating hessian_basis_wave)
          |   Maximum:        0.331 MB (on task 0 after allocating hessian_basis_wave)
          |   Average:        0.330 MB
          | Largest tracked array allocation:
          |   Minimum:        0.176 MB (hessian_basis_wave on task 0)
          |   Maximum:        0.176 MB (hessian_basis_wave on task 0)
          |   Average:        0.176 MB
          Note:  These values currently only include a subset of arrays which are explicitly tracked.
          The "true" memory usage will be greater.

          Have a nice day.
------------------------------------------------------------
