  MPI-parallelism will be employed.
------------------------------------------------------------
          Invoking FHI-aims ...

          When using FHI-aims, please cite the following reference:

          Volker Blum, Ralf Gehrke, Felix Hanke, Paula Havu,
          Ville Havu, Xinguo Ren, Karsten Reuter, and Matthias Scheffler,
          'Ab Initio Molecular Simulations with Numeric Atom-Centered Orbitals',
          Computer Physics Communications 180, 2175-2196 (2009)

          For any questions about FHI-aims, please visit the aimsclub website
          with its forums and wiki. Contributions to both the forums and the
          wiki are warmly encouraged - they are for you, and everyone is welcome there.

------------------------------------------------------------



  Date     :  20190817, Time     :  154151.277
  Time zero on CPU 1             :   0.473160000000000E-01  s.
  Internal wall clock time zero  :           335288511.277  s.

  FHI-aims created a unique identifier for this run for later identification
  aims_uuid : 08EC0000-C027-46BD-AA64-097504251CBD

  Build configuration of the current instance of FHI-aims
  -------------------------------------------------------
  FHI-aims version      : 190813
  Commit number         : 3da7baeb3
  CMake host system     : Linux-4.4.180-94.97-default
  CMake version         : 3.5.2
  Fortran compiler      : /mpcdf/soft/SLE_12_SP3/packages/x86_64/intel_parallel_studio/2018.4/compilers_and_libraries_2018.5.274/linux/mpi/bin64/mpiifort (Intel) version 18.0.5.20180823
  Fortran compiler flags: -O3 -ip -fp-model precise
  C compiler            : /mpcdf/soft/SLE_12_SP3/packages/skylake/intel/18.0.5/bin/icc (Intel) version 18.0.5.20180823
  C compiler flags      : -O3 -ip -fp-model precise
  Architecture          :
  Using MPI
  Using Scalapack
  Using C files
  Using SPGlib
  Using i-PI
  Linking against: /mpcdf/soft/SLE_12_SP3/packages/x86_64/anaconda/3.5.1.0/lib/libmkl_intel_lp64.so
                   /mpcdf/soft/SLE_12_SP3/packages/x86_64/anaconda/3.5.1.0/lib/libmkl_sequential.so
                   /mpcdf/soft/SLE_12_SP3/packages/x86_64/anaconda/3.5.1.0/lib/libmkl_core.so
                   /mpcdf/soft/SLE_12_SP3/packages/x86_64/anaconda/3.5.1.0/lib/libmkl_blacs_intelmpi_lp64.so
                   /mpcdf/soft/SLE_12_SP3/packages/x86_64/anaconda/3.5.1.0/lib/libmkl_scalapack_lp64.so

  Using        8 parallel tasks.
  Task        0 on host co1631 reporting.
  Task        1 on host co1631 reporting.
  Task        2 on host co1631 reporting.
  Task        3 on host co1631 reporting.
  Task        4 on host co1631 reporting.
  Task        5 on host co1631 reporting.
  Task        6 on host co1631 reporting.
  Task        7 on host co1631 reporting.

  Performing system and environment tests:
  | Environment variable OMP_NUM_THREADS correctly set to 1.
  | Maximum stacksize for task 0: unlimited
  | Maximum stacksize for task 1: unlimited
  | Maximum stacksize for task 2: unlimited
  | Maximum stacksize for task 3: unlimited
  | Maximum stacksize for task 4: unlimited
  | Maximum stacksize for task 5: unlimited
  | Maximum stacksize for task 6: unlimited
  | Maximum stacksize for task 7: unlimited
  | Current stacksize for task 0: unlimited
  | Current stacksize for task 1: unlimited
  | Current stacksize for task 2: unlimited
  | Current stacksize for task 3: unlimited
  | Current stacksize for task 4: unlimited
  | Current stacksize for task 5: unlimited
  | Current stacksize for task 6: unlimited
  | Current stacksize for task 7: unlimited
  | Checking for scalapack...
  | Testing pdtran()...
  | All pdtran() tests passed.

  Obtaining array dimensions for all initial allocations:
  
  -----------------------------------------------------------------------
  Parsing control.in (first pass over file, find array dimensions only).
  The contents of control.in will be repeated verbatim below
  unless switched off by setting 'verbatim_writeout .false.' .
  in the first line of control.in .
  -----------------------------------------------------------------------
  
  #########################################################################################
  #
  #  Test run input file control.in
  #
  #########################################################################################
  
  #  Physical model
    qpe_calc gw
    xc               pbe
    spin             none
    relativistic     none
    anacon_type      pade
    contour_def_gw   3 7
    frequency_points 100
  
    occupation_type    gaussian 0.01
    mixer              pulay
      n_max_pulay        10
      charge_mix_param   0.2
    sc_accuracy_rho    1E-5
    sc_accuracy_eev    1E-4
    sc_accuracy_etot   1E-6
    sc_iter_limit      100
    prodbas_threshold  1.e-4
  ################################################################################
  #
  #  FHI-aims code project
  #  VB, Fritz-Haber Institut, 2009
  #
  #  Suggested "light" defaults for H atom (to be pasted into control.in file)
  #  Be sure to double-check any results obtained with these settings for post-processing,
  #  e.g., with the "tight" defaults and larger basis sets.
  #
  ################################################################################
    species        H
  #     global species definitions
      nucleus             1
      mass                1.00794
  #
      l_hartree           4
  #
      cut_pot             3.5  1.5  1.0
      basis_dep_cutoff    1e-4
  #
      radial_base         24 5.0
      radial_multiplier   1
      angular_grids       specified
        division   0.2421   50
        division   0.3822  110
        division   0.4799  194
        division   0.5341  302
  #      division   0.5626  434
  #      division   0.5922  590
  #      division   0.6542  770
  #      division   0.6868 1202
  #      outer_grid  770
        outer_grid  302
  ################################################################################
  #
  #  Definition of "minimal" basis
  #
  ################################################################################
  #     valence basis states
      valence      1  s   1.
  #     ion occupancy
      ion_occ      1  s   0.5
  ################################################################################
  #
  #  Suggested additional basis functions. For production calculations,
  #  uncomment them one after another (the most important basis functions are
  #  listed first).
  #
  #  Basis constructed for dimers: 0.5 A, 0.7 A, 1.0 A, 1.5 A, 2.5 A
  #
  ################################################################################
  #  "First tier" - improvements: -1014.90 meV to -62.69 meV
       hydro 2 s 2.1
       hydro 2 p 3.5
  #  "Second tier" - improvements: -12.89 meV to -1.83 meV
  #     hydro 1 s 0.85
  #     hydro 2 p 3.7
  #     hydro 2 s 1.2
  #     hydro 3 d 7
  #  "Third tier" - improvements: -0.25 meV to -0.12 meV
  #     hydro 4 f 11.2
  #     hydro 3 p 4.8
  #     hydro 4 d 9
  #     hydro 3 s 3.2
  ################################################################################
  #
  #  FHI-aims code project
  #  VB, Fritz-Haber Institut, 2009
  #
  #  Suggested "light" defaults for O atom (to be pasted into control.in file)
  #  Be sure to double-check any results obtained with these settings for post-processing,
  #  e.g., with the "tight" defaults and larger basis sets.
  #
  ################################################################################
    species        O
  #     global species definitions
      nucleus             8
      mass                15.9994
  #
      l_hartree           4
  #
      cut_pot             3.5  1.5  1.0
      basis_dep_cutoff    1e-4
  #
      radial_base         36 5.0
      radial_multiplier   1
       angular_grids specified
        division   0.2659   50
        division   0.4451  110
        division   0.6052  194
        division   0.7543  302
  #      division   0.8014  434
  #      division   0.8507  590
  #      division   0.8762  770
  #      division   0.9023  974
  #      division   1.2339 1202
  #      outer_grid 974
        outer_grid 302
  ################################################################################
  #
  #  Definition of "minimal" basis
  #
  ################################################################################
  #     valence basis states
      valence      2  s   2.
      valence      2  p   4.
  #     ion occupancy
      ion_occ      2  s   1.
      ion_occ      2  p   3.
  ################################################################################
  #
  #  Suggested additional basis functions. For production calculations,
  #  uncomment them one after another (the most important basis functions are
  #  listed first).
  #
  #  Constructed for dimers: 1.0 A, 1.208 A, 1.5 A, 2.0 A, 3.0 A
  #
  ################################################################################
  #  "First tier" - improvements: -699.05 meV to -159.38 meV
       hydro 2 p 1.8
       hydro 3 d 7.6
       hydro 3 s 6.4
  #  "Second tier" - improvements: -49.91 meV to -5.39 meV
  #     hydro 4 f 11.6
  #     hydro 3 p 6.2
  #     hydro 3 d 5.6
  #     hydro 5 g 17.6
  #     hydro 1 s 0.75
  #  "Third tier" - improvements: -2.83 meV to -0.50 meV
  #     ionic 2 p auto
  #     hydro 4 f 10.8
  #     hydro 4 d 4.7
  #     hydro 2 s 6.8
  #  "Fourth tier" - improvements: -0.40 meV to -0.12 meV
  #     hydro 3 p 5
  #     hydro 3 s 3.3
  #     hydro 5 g 15.6
  #     hydro 4 f 17.6
  #     hydro 4 d 14
  # Further basis functions - -0.08 meV and below
  #     hydro 3 s 2.1
  #     hydro 4 d 11.6
  #     hydro 3 p 16
  #     hydro 2 s 17.2
  
  -----------------------------------------------------------------------
  Completed first pass over input file control.in .
  -----------------------------------------------------------------------
  
  
  -----------------------------------------------------------------------
  Parsing geometry.in (first pass over file, find array dimensions only).
  The contents of geometry.in will be repeated verbatim below
  unless switched off by setting 'verbatim_writeout .false.' .
  in the first line of geometry.in .
  -----------------------------------------------------------------------
  
  atom      -0.0224546148       -0.0000353646       -0.0162226261    O
  atom       0.0226952710        0.0000129083        0.9530701005    H
  atom       0.9061016825        0.0000180931       -0.2977710918    H
  
  -----------------------------------------------------------------------
  Completed first pass over input file geometry.in .
  -----------------------------------------------------------------------
  

  Basic array size parameters:
  | Number of species                 :        2
  | Number of atoms                   :        3
  | Max. basis fn. angular momentum   :        2
  | Max. atomic/ionic basis occupied n:        2
  | Max. number of basis fn. types    :        2
  | Max. radial fns per species/type  :        3
  | Max. logarithmic grid size        :     1301
  | Max. radial integration grid size :       36
  | Max. angular integration grid size:      302
  | Max. angular grid division number :        8
  | Radial grid for Hartree potential :     1301
  | Number of spin channels           :        1

------------------------------------------------------------
          Reading file control.in.
------------------------------------------------------------
  GW quasiparticle calculation of excited states will be started after the DFT/HF calculation.
  XC: Using PBE gradient-corrected functionals.
  Spin treatment: No spin polarisation.
  Non-relativistic treatment of kinetic energy.
  Using Pade approximation for analytical continuation.
  Contour deformation in GW for the levels:      3     to       7
  Number of frequency points used for the self-energy calculation:    100
  Occupation type: Gaussian broadening, width =   0.100000E-01 eV.
  Using pulay charge density mixing.
  Pulay mixing - number of memorized iterations:   10
  Charge density mixing - mixing parameter:     0.2000
  Convergence accuracy of self-consistent charge density:  0.1000E-04
  Convergence accuracy of sum of eigenvalues:  0.1000E-03
  Convergence accuracy of total energy:  0.1000E-05
  Maximum number of s.-c. iterations  :   100
  Threshold for auxiliary basis singularities:  0.1000E-03
 
  Reading configuration options for species H                   .
  | Found nuclear charge :   1.0000
  | Found atomic mass :    1.00794000000000      amu
  | Found l_max for Hartree potential  :   4
  | Found cutoff potl. onset [A], width [A], scale factor :    3.50000    1.50000    1.00000
  | Threshold for basis-dependent cutoff potential is   0.100000E-03
  | Found data for basic radial integration grid :    24 points, outermost radius =    5.000 A
  | Found multiplier for basic radial grid :   1
  | Found angular grid specification: user-specified.
  | Specified grid contains     5 separate shells.
  | Check grid settings after all constraints further below.
  | Found free-atom valence shell :  1 s   1.000
  | No ionic wave fns used. Skipping ion_occ.
  | Found hydrogenic basis function :  2 s   2.100
  | Found hydrogenic basis function :  2 p   3.500
  Species H                   : Missing cutoff potential type.
  Defaulting to exp(1/x)/(1-x)^2 type cutoff potential.
  Species H : No 'logarithmic' tag. Using default grid for free atom:
  | Default logarithmic grid data [bohr] : 0.1000E-03 0.1000E+03 0.1012E+01
  Species H : On-site basis accuracy parameter (for Gram-Schmidt orthonormalisation) not specified.
  Using default value basis_acc =  0.1000000E-03.
  Species H                   : Using default innermost maximum threshold i_radial=  2 for radial functions.
  Species H                   : Default cutoff onset for free atom density etc. is infinite
  since the product basis is used (hybrid functionals, Hartree-Fock, GW etc.).
  Species H                   : Basic radial grid will be enhanced according to radial_multiplier =   1, to contain    24 grid points.
 
  Reading configuration options for species O                   .
  | Found nuclear charge :   8.0000
  | Found atomic mass :    15.9994000000000      amu
  | Found l_max for Hartree potential  :   4
  | Found cutoff potl. onset [A], width [A], scale factor :    3.50000    1.50000    1.00000
  | Threshold for basis-dependent cutoff potential is   0.100000E-03
  | Found data for basic radial integration grid :    36 points, outermost radius =    5.000 A
  | Found multiplier for basic radial grid :   1
  | Found angular grid specification: user-specified.
  | Specified grid contains     5 separate shells.
  | Check grid settings after all constraints further below.
  | Found free-atom valence shell :  2 s   2.000
  | Found free-atom valence shell :  2 p   4.000
  | No ionic wave fns used. Skipping ion_occ.
  | No ionic wave fns used. Skipping ion_occ.
  | Found hydrogenic basis function :  2 p   1.800
  | Found hydrogenic basis function :  3 d   7.600
  | Found hydrogenic basis function :  3 s   6.400
  Species O                   : Missing cutoff potential type.
  Defaulting to exp(1/x)/(1-x)^2 type cutoff potential.
  Species O : No 'logarithmic' tag. Using default grid for free atom:
  | Default logarithmic grid data [bohr] : 0.1000E-03 0.1000E+03 0.1012E+01
  Species O : On-site basis accuracy parameter (for Gram-Schmidt orthonormalisation) not specified.
  Using default value basis_acc =  0.1000000E-03.
  Species O                   : Using default innermost maximum threshold i_radial=  2 for radial functions.
  Species O                   : Default cutoff onset for free atom density etc. is infinite
  since the product basis is used (hybrid functionals, Hartree-Fock, GW etc.).
  Species O                   : Basic radial grid will be enhanced according to radial_multiplier =   1, to contain    36 grid points.
 
  Finished reading input file 'control.in'. Consistency checks are next.
 
  MPI_IN_PLACE appears to work with this MPI implementation.
  | Keeping use_mpi_in_place .true. (see manual).
  Explicit treatment of the Coulomb operator is needed, but the RI method is not specified.
  Coulomb operator: Defaulting to 'RI-V' resolution of identity - RI_type = V 
  Species H: Using default value for prodbas_acc =   1.000000E-02.
  Species H: Using default value max_l_prodbas =     5.
  Explicit treatment of the Coulomb operator is needed, but the RI method is not specified.
  Coulomb operator: Defaulting to 'RI-V' resolution of identity - RI_type = V 
  Species O: Using default value for prodbas_acc =   1.000000E-02.
  Species O: Using default value max_l_prodbas =     5.
 * Species O: Specified min. number of angular integration points is    50
 * The angular momenta for this species require   110 for RI_type 'V'. Increasing angular_min to   110.
 * Species O: Grid shell     1 contains only    50 angular integration points.
 * Increasing to angular_min =   110 integration points.
 * This change is related to the three-center integrals used in RI_method 'V'.
  Target number of points in a grid batch is not set. Defaulting to  100
  Method for grid partitioning is not set. Defaulting to parallel hash+maxmin partitioning.
  Batch size limit is not set. Defaulting to    200
  By default, will store active basis functions for each batch.
  If in need of memory, prune_basis_once .false. can be used to disable this option.
  communication_type for Hartree potential was not specified.
  Defaulting to calc_hartree .
  Pulay mixer: Number of initial linear mixing iterations not set.
  Defaulting to    0 iterations.
  Work space size for distributed Hartree potential not set.
  Defaulting to   0.200000E+03 MB.
  Algorithm-dependent basis array size parameters:
  | n_max_pulay                         :       10
  Presetting      1001 iterations before the initial mixing cycle
  is restarted anyway using the sc_init_iter criterion / keyword.
  Presetting a factor      1.000 between actual scf density residual
  and density convergence criterion sc_accuracy_rho below which sc_init_iter
  takes no effect.
  Calculation of forces was not defined in control.in. No forces will be calculated.
  Geometry relaxation not requested: no relaxation will be performed.
  No accuracy limit for integral partition fn. given. Defaulting to  0.1000E-14.
  No threshold value for u(r) in integrations given. Defaulting to  0.1000E-05.
  No accuracy for occupation numbers given. Defaulting to  0.1000E-12.
  No threshold value for occupation numbers given. Defaulting to  0.0000E+00.
  No accuracy for fermi level given. Defaulting to  0.1000E-19.
  Maximum # of iterations to find E_F not set. Defaulting to  200.
  Preferred method for the eigenvalue solver ('KS_method') not specified in 'control.in'.
  Calling BLACS routine to test compilation state
  Since ScaLAPACK support is enabled, defaulting to ELPA (via ELSI).
  Will not use alltoall communication since running on < 1024 CPUs.
  Threshold for basis singularities not set.
  Default threshold for basis singularities:  0.1000E-04
  partition_type (choice of integration weights) for integrals was not specified.
  | Using a version of the partition function of Stratmann and coworkers ('stratmann_sparse').
  | At each grid point, the set of atoms used to build the partition table is smoothly restricted to
  | only those atoms whose free-atom density would be non-zero at that grid point.
  Partitioning for Hartree potential was not defined. Using partition_type for integrals.
  | Adjusted default value of keyword multip_moments_threshold to:       0.10000000E-11
  | This value may affect high angular momentum components of the Hartree potential in periodic systems.
  No q(lm)/r^(l+1) cutoff set for long-range Hartree potential.
  | Using default value of  0.100000E-09 .
  | Verify using the multipole_threshold keyword.
  Defaulting to new monopole extrapolation.
  Density update method: automatic selection selected.
  Charge integration errors on the 3D integration grid will be compensated
  by explicit normalization and distribution of residual charges.
  Use the "compensate_multipole_errors" flag to change this behaviour.
  Default to 1D ("use_logsbt") integrations for auxiliary 2-center integrals.
  Default onset of logarithmic r-grid for SBT is-38.000000000000
  Default onset of logarithmic k-grid for SBT is-25.000000000000
  Default range of logarithmic r- and k-grid for SBT is 45.000000000000
  Default number of logarithmic r- and k-grid for SBT is  4096
  Default of use_2d_corr is to use the efficient 2D distribution where possible
------------------------------------------------------------


------------------------------------------------------------
          Reading geometry description geometry.in.
------------------------------------------------------------
  Input structure read successfully.
  The structure contains        3 atoms,  and a total of         10.000 electrons.

  Input geometry:
  | No unit cell requested.
  | Atomic structure:
  |       Atom                x [A]            y [A]            z [A]
  |    1: Species O            -0.02245461       -0.00003536       -0.01622263
  |    2: Species H             0.02269527        0.00001291        0.95307010
  |    3: Species H             0.90610168        0.00001809       -0.29777109
  | The smallest distance between any two atoms is         0.97030219 AA.
  | The first atom of this pair is atom number                      1 .
  | The second atom of this pair is atom number                     3 .

  Number of empty states per atom not set in control.in .
  | Since you are using a method that relies on the unoccupied spectrum
  | (MP2,GW,RPA et al.), will use the full Hamiltonian size (see below)
  | as the max. possible number of states (occupied plus empty).

  Structure-dependent array size parameters: 
  | Maximum number of distinct radial functions  :        9
  | Maximum number of basis functions            :       24
  | Number of Kohn-Sham states (occupied + empty):       24
------------------------------------------------------------

------------------------------------------------------------
          Preparing all fixed parts of the calculation.
------------------------------------------------------------
  Determining machine precision:
    2.225073858507201E-308
  Setting up grids for atomic and cluster calculations.

  Creating wave function, potential, and density for free atoms.

  Species: H

  List of occupied orbitals and eigenvalues:
    n    l              occ      energy [Ha]    energy [eV]
    1    0           1.0000        -0.238600        -6.4926


  Species: O

  List of occupied orbitals and eigenvalues:
    n    l              occ      energy [Ha]    energy [eV]
    1    0           2.0000       -18.898644      -514.2583
    2    0           2.0000        -0.878848       -23.9147
    2    1           4.0000        -0.332128        -9.0377

  Creating fixed part of basis set: Ionic, confined, hydrogenic.
 
  H                    hydrogenic:
 
  List of hydrogenic basis orbitals: 
    n    l      effective z      eigenvalue [eV]  inner max. [A]     outer max. [A]     outer radius [A]   
    2    0         2.100000       -14.9728           0.193243           1.317208           4.583499
    2    1         3.500000       -41.6669           0.602369           0.602369           3.723403
 
 
  O                    hydrogenic:
 
  List of hydrogenic basis orbitals: 
    n    l      effective z      eigenvalue [eV]  inner max. [A]     outer max. [A]     outer radius [A]   
    2    1         1.800000       -10.9749           1.164242           1.164242           4.578029
    3    2         7.600000       -87.3180           0.624125           0.624125           3.251020
    3    0         6.400000       -61.9207           0.061167           1.081902           4.001998
 

  Adding cutoff potential to free-atom effective potential.
  Creating atomic-like basis functions for current effective potential.

  Species H                   :

  List of atomic basis orbitals and eigenvalues:
    n    l      energy [Ha]    energy [eV]    outer radius [A]
    1    0        -0.238398        -6.4871       4.527807


  Species O                   :

  List of atomic basis orbitals and eigenvalues:
    n    l      energy [Ha]    energy [eV]    outer radius [A]
    1    0       -18.898644      -514.2583       1.415765
    2    0        -0.878848       -23.9147       4.413171
    2    1        -0.332107        -9.0371       4.522403

  Assembling full basis from fixed parts.
  | Species H :   atomic orbital   1 s accepted.
  | Species H :    hydro orbital   2 s accepted.
  | Species H :    hydro orbital   2 p accepted.
  | Species O :   atomic orbital   1 s accepted.
  | Species O :    hydro orbital   3 s accepted.
  | Species O :   atomic orbital   2 s accepted.
  | Species O :   atomic orbital   2 p accepted.
  | Species O :    hydro orbital   2 p accepted.
  | Species O :    hydro orbital   3 d accepted.
 
  Basis size parameters after reduction:
  | Total number of radial functions:        9
  | Total number of basis functions :       24
 
  Per-task memory consumption for arrays in subroutine allocate_ext:
  |           2.249332MB.
  Testing on-site integration grid accuracy.
  |  Species  Function  <phi|h_atom|phi> (log., in eV)  <phi|h_atom|phi> (rad., in eV)
           1        1                 -6.4883250361                 -6.4871241952
           1        2                 13.6853472746                 13.6912335226
           1        3                 25.2448325417                 25.2449751640
           2        4               -514.2582716877               -514.2581672043
           2        5                 15.1739158860                 15.1738797695
           2        6                -21.5462549393                -21.5463595781
           2        7                 -9.0372478322                 -9.0374059623
           2        8                  8.2963895611                  8.2771328962
           2        9                 45.8256485372                 45.8255895587

  Preparing densities etc. for the partition functions (integrals / Hartree potential).

  Preparations completed.
  max(cpu_time)          :      0.094 s.
  Wall clock time (cpu1) :      0.096 s.
------------------------------------------------------------

------------------------------------------------------------
          Begin self-consistency loop: Initialization.

          Date     :  20190817, Time     :  154151.439
------------------------------------------------------------

  Initializing index lists of integration centers etc. from given atomic structure:
  | Number of centers in hartree potential         :         3
  | Number of centers in hartree multipole         :         3
  | Number of centers in electron density summation:         3
  | Number of centers in basis integrals           :         3
  | Number of centers in integrals                 :         3
  | Number of centers in hamiltonian               :         3
  * Using 8 tasks for Scalapack Eigenvalue solver.
  Detailed listing of tasks and assigned k-points:
  (for non-periodic systems, the "k-point" denotes an internal label only)
   Task     0 k-point     1 on co1631
   Task     1 k-point     1 on co1631
   Task     2 k-point     1 on co1631
   Task     3 k-point     1 on co1631
   Task     4 k-point     1 on co1631
   Task     5 k-point     1 on co1631
   Task     6 k-point     1 on co1631
   Task     7 k-point     1 on co1631
  Tasks:     8 split into      4 X      2 BLACS grid
  Calculating block size based on n_basis =           24  max_nprow =            4  max_npcol =            2
  ScaLAPACK block size set to:            4
  Allocating        0.001 MB for ovlp
  Allocating        0.001 MB for ham
  Allocating        0.001 MB for eigenvec
  Required Scalapack workspace - INTEGER:            1  REAL:             1
  Partitioning the integration grid into batches with parallel hashing+maxmin method.
  | Number of batches:      224
  | Maximal batch size:      97
  | Minimal batch size:      62
  | Average batch size:      74.839
  | Standard deviation of batch sizes:      10.926

  Integration load balanced across     8 MPI tasks.
  Work distribution over tasks is as follows:
  Task     0 has       2131 integration points.
  Task     1 has       2087 integration points.
  Task     2 has       2086 integration points.
  Task     3 has       2106 integration points.
  Task     4 has       2092 integration points.
  Task     5 has       2105 integration points.
  Task     6 has       2094 integration points.
  Task     7 has       2063 integration points.
  Initializing partition tables, free-atom densities, potentials, etc. across the integration grid (initialize_grid_storage).
  | Species        1: outer_partition_radius set to             16.344003741102970 AA .
  | Species        2: outer_partition_radius set to             11.592603489656513 AA .
  | The sparse table of interatomic distances needs          0.09 kbyte instead of         0.07 kbyte of memory.
  | Using the partition_type stratmann_smoother will reduce your memory usage.
  | Net number of integration points:    16764
  | of which are non-zero points    :    15178
  Renormalizing the initial density to the exact electron count on the 3D integration grid.
  | Initial density: Formal number of electrons (from input files) :      10.0000000000
  | Integrated number of electrons on 3D grid     :       9.9999727523
  | Charge integration error                      :      -0.0000272477
  | Normalization factor for density and gradient :       1.0000027248
  Renormalizing the free-atom superposition density to the exact electron count on the 3D integration grid.
  | Formal number of electrons (from input files) :      10.0000000000
  | Integrated number of electrons on 3D grid     :       9.9999727523
  | Charge integration error                      :      -0.0000272477
  | Normalization factor for density and gradient :       1.0000027248
  Obtaining max. number of non-zero basis functions in each batch (get_n_compute_maxes).
  | Maximal number of non-zero basis functions:       24 in task     0
  | Maximal number of non-zero basis functions:       24 in task     1
  | Maximal number of non-zero basis functions:       24 in task     2
  | Maximal number of non-zero basis functions:       24 in task     3
  | Maximal number of non-zero basis functions:       24 in task     4
  | Maximal number of non-zero basis functions:       24 in task     5
  | Maximal number of non-zero basis functions:       24 in task     6
  | Maximal number of non-zero basis functions:       24 in task     7
  Selecting the method for density update.
  Loop over occupied states selected for charge density update.
  Allocating        0.004 MB for KS_eigenvector
  Integrating Hamiltonian matrix: batch-based integration.
  Time summed over all CPUs for integration: real work        0.037 s, elapsed        0.039 s
  Integrating overlap matrix.
  Time summed over all CPUs for integration: real work        0.011 s, elapsed        0.012 s
  Deallocating overlap matrix.

  Updating Kohn-Sham eigenvalues and eigenvectors using ELSI and the ELPA eigensolver.
  Overlap matrix is not singular
  | Lowest and highest eigenvalues :  0.1647E-01,  0.2707E+01
  Finished singularity check of overlap matrix
  | Time :     0.001 s
  Starting ELPA eigensolver
  Finished Cholesky decomposition
  | Time :     0.001 s
  Finished transformation to standard eigenproblem
  | Time :     0.000 s
  Finished solving standard eigenproblem
  | Time :     0.001 s
  Finished back-transformation of eigenvectors
  | Time :     0.000 s

  Obtaining occupation numbers and chemical potential using ELSI.
  | Chemical potential (Fermi level):   -10.26763471 eV
  Writing Kohn-Sham eigenvalues.

  State    Occupation    Eigenvalue [Ha]    Eigenvalue [eV]
      1       2.00000         -19.005373         -517.16250
      2       2.00000          -1.095766          -29.81731
      3       2.00000          -0.627003          -17.06163
      4       2.00000          -0.509838          -13.87340
      5       2.00000          -0.437272          -11.89878
      6       0.00000          -0.050274           -1.36802
      7       0.00000           0.031520            0.85769
      8       0.00000           0.214694            5.84213
      9       0.00000           0.248182            6.75338
     10       0.00000           0.301249            8.19740
     11       0.00000           0.505160           13.74612
     12       0.00000           0.695546           18.92678
     13       0.00000           0.795021           21.63362
     14       0.00000           0.877311           23.87284
     15       0.00000           1.022652           27.82777
     16       0.00000           1.033581           28.12516
     17       0.00000           1.452180           39.51582
     18       0.00000           1.820442           49.53674
     19       0.00000           1.927504           52.45004
     20       0.00000           2.144693           58.36007
     21       0.00000           2.250649           61.24327
     22       0.00000           2.269970           61.76902
     23       0.00000           2.764504           75.22598
     24       0.00000           3.072309           83.60178

  Highest occupied state (VBM) at    -11.89877792 eV
  | Occupation number:      2.00000000

  Lowest unoccupied state (CBM) at    -1.36801713 eV
  | Occupation number:      0.00000000

  Overall HOMO-LUMO gap:     10.53076079 eV.
  Calculating total energy contributions from superposition of free atom densities.

  Total energy components:
  | Sum of eigenvalues            :         -43.35050385 Ha       -1179.62722843 eV
  | XC energy correction          :          -9.01148458 Ha        -245.21497171 eV
  | XC potential correction       :          11.58676416 Ha         315.29189455 eV
  | Free-atom electrostatic energy:         -35.68255992 Ha        -970.97185783 eV
  | Hartree energy correction     :           0.00000000 Ha           0.00000000 eV
  | Entropy correction            :           0.00000000 Ha           0.00000000 eV
  | ---------------------------
  | Total energy                  :         -76.45778418 Ha       -2080.52216341 eV
  | Total energy, T -> 0          :         -76.45778418 Ha       -2080.52216341 eV  <-- do not rely on this value for anything but (periodic) metals
  | Electronic free energy        :         -76.45778418 Ha       -2080.52216341 eV

  Derived energy quantities:
  | Kinetic energy                :          75.52441037 Ha        2055.12376972 eV
  | Electrostatic energy          :        -142.97070998 Ha       -3890.43096142 eV
  | Energy correction for multipole
  | error in Hartree potential    :           0.00000000 Ha           0.00000000 eV
  | Sum of eigenvalues per atom                           :        -393.20907614 eV
  | Total energy (T->0) per atom                          :        -693.50738780 eV  <-- do not rely on this value for anything but (periodic) metals
  | Electronic free energy per atom                       :        -693.50738780 eV
  Initialize hartree_potential_storage
  Max. number of atoms included in rho_multipole:            3

  End scf initialization - timings             :  max(cpu_time)    wall_clock(cpu1)
  | Time for scf. initialization               :        0.024 s           0.024 s
  | Boundary condition initialization          :        0.001 s           0.000 s
  | Integration                                :        0.007 s           0.007 s
  | Solution of K.-S. eqns.                    :        0.003 s           0.003 s
  | Grid partitioning                          :        0.005 s           0.005 s
  | Preloading free-atom quantities on grid    :        0.002 s           0.002 s
  | Free-atom superposition energy             :        0.002 s           0.002 s
  | Total energy evaluation                    :        0.000 s           0.000 s

  Partial memory accounting:
  | Current value for overall tracked memory usage:
  |   Minimum:        0.008 MB (on task 4)
  |   Maximum:        0.009 MB (on task 0)
  |   Average:        0.009 MB
  | Peak value for overall tracked memory usage:
  |   Minimum:        0.069 MB (on task 5 after allocating wave)
  |   Maximum:        0.107 MB (on task 0 after allocating wave)
  |   Average:        0.082 MB
  | Largest tracked array allocation so far:
  |   Minimum:        0.023 MB (all_coords on task 5)
  |   Maximum:        0.069 MB (all_coords on task 0)
  |   Average:        0.048 MB
  Note:  These values currently only include a subset of arrays which are explicitly tracked.
  The "true" memory usage will be greater.
------------------------------------------------------------

------------------------------------------------------------
          Begin self-consistency iteration #    1

  Date     :  20190817, Time     :  154151.463
------------------------------------------------------------
  Evaluating new KS density.
  Integration grid: deviation in total charge (<rho> - N_e) =   0.000000E+00
  Pulay mixing of updated and previous charge densities.
  Renormalizing the density to the exact electron count on the 3D integration grid.
  | Formal number of electrons (from input files) :      10.0000000000
  | Integrated number of electrons on 3D grid     :      10.0000000000
  | Charge integration error                      :      -0.0000000000
  | Normalization factor for density and gradient :       1.0000000000

  Evaluating partitioned Hartree potential by multipole expansion.
  | Original multipole sum: apparent total charge =  -0.788358E-14
  | Sum of charges compensated after spline to logarithmic grids =   0.139985E-04
  | Analytical far-field extrapolation by fixed multipoles:
  | Hartree multipole sum: apparent total charge =  -0.766220E-14
  Summing up the Hartree potential.
  Time summed over all CPUs for potential: real work        0.027 s, elapsed        0.028 s
  | RMS charge density error from multipole expansion :   0.140985E-02

  Integrating Hamiltonian matrix: batch-based integration.
  Time summed over all CPUs for integration: real work        0.034 s, elapsed        0.036 s

  Updating Kohn-Sham eigenvalues and eigenvectors using ELSI and the ELPA eigensolver.
  Starting ELPA eigensolver
  Finished transformation to standard eigenproblem
  | Time :     0.000 s
  Finished solving standard eigenproblem
  | Time :     0.000 s
  Finished back-transformation of eigenvectors
  | Time :     0.000 s

  Obtaining occupation numbers and chemical potential using ELSI.
  | Chemical potential (Fermi level):    -8.11624352 eV
  Writing Kohn-Sham eigenvalues.

  State    Occupation    Eigenvalue [Ha]    Eigenvalue [eV]
      1       2.00000         -18.848544         -512.89498
      2       2.00000          -1.019700          -27.74744
      3       2.00000          -0.562088          -15.29520
      4       2.00000          -0.432295          -11.76334
      5       2.00000          -0.356554           -9.70234
      6       0.00000          -0.031402           -0.85450
      7       0.00000           0.057909            1.57577
      8       0.00000           0.249442            6.78766
      9       0.00000           0.284947            7.75379
     10       0.00000           0.325518            8.85780
     11       0.00000           0.528059           14.36923
     12       0.00000           0.726074           19.75749
     13       0.00000           0.828041           22.53214
     14       0.00000           0.906872           24.67724
     15       0.00000           1.056497           28.74873
     16       0.00000           1.082157           29.44698
     17       0.00000           1.470805           40.02265
     18       0.00000           1.868296           50.83892
     19       0.00000           1.969289           53.58708
     20       0.00000           2.203390           59.95730
     21       0.00000           2.311955           62.91149
     22       0.00000           2.330478           63.41554
     23       0.00000           2.824421           76.85641
     24       0.00000           3.136970           85.36130

  Highest occupied state (VBM) at     -9.70233687 eV
  | Occupation number:      2.00000000

  Lowest unoccupied state (CBM) at    -0.85450207 eV
  | Occupation number:      0.00000000

  Overall HOMO-LUMO gap:      8.84783480 eV.

  Total energy components:
  | Sum of eigenvalues            :         -42.43836263 Ha       -1154.80660301 eV
  | XC energy correction          :          -9.11576507 Ha        -248.05258843 eV
  | XC potential correction       :          11.72341841 Ha         319.01044601 eV
  | Free-atom electrostatic energy:         -35.68255992 Ha        -970.97185783 eV
  | Hartree energy correction     :          -0.88964893 Ha         -24.20857911 eV
  | Entropy correction            :           0.00000000 Ha           0.00000000 eV
  | ---------------------------
  | Total energy                  :         -76.40291814 Ha       -2079.02918236 eV
  | Total energy, T -> 0          :         -76.40291814 Ha       -2079.02918236 eV  <-- do not rely on this value for anything but (periodic) metals
  | Electronic free energy        :         -76.40291814 Ha       -2079.02918236 eV

  Derived energy quantities:
  | Kinetic energy                :          76.12989691 Ha        2071.59989683 eV
  | Electrostatic energy          :        -143.41704998 Ha       -3902.57649076 eV
  | Energy correction for multipole
  | error in Hartree potential    :           0.00043085 Ha           0.01172413 eV
  | Sum of eigenvalues per atom                           :        -384.93553434 eV
  | Total energy (T->0) per atom                          :        -693.00972745 eV  <-- do not rely on this value for anything but (periodic) metals
  | Electronic free energy per atom                       :        -693.00972745 eV

  Self-consistency convergence accuracy:
  | Change of charge density      :  0.3075E+00
  | Change of sum of eigenvalues  :  0.2482E+02 eV
  | Change of total energy        :  0.1493E+01 eV

  End self-consistency iteration #     1       :  max(cpu_time)    wall_clock(cpu1)
  | Time for this iteration                    :        0.014 s           0.015 s
  | Charge density update                      :        0.003 s           0.003 s
  | Density mixing                             :        0.000 s           0.000 s
  | Hartree multipole update                   :        0.001 s           0.001 s
  | Hartree multipole summation                :        0.004 s           0.004 s
  | Integration                                :        0.005 s           0.004 s
  | Solution of K.-S. eqns.                    :        0.001 s           0.000 s
  | Total energy evaluation                    :        0.000 s           0.000 s

  Partial memory accounting:
  | Current value for overall tracked memory usage:
  |   Minimum:        0.008 MB (on task 4)
  |   Maximum:        0.009 MB (on task 0)
  |   Average:        0.009 MB
  | Peak value for overall tracked memory usage:
  |   Minimum:        0.079 MB (on task 4 after allocating gradient_basis_wave)
  |   Maximum:        0.107 MB (on task 0 after allocating gradient_basis_wave)
  |   Average:        0.086 MB
  | Largest tracked array allocation so far:
  |   Minimum:        0.053 MB (gradient_basis_wave on task 1)
  |   Maximum:        0.069 MB (gradient_basis_wave on task 0)
  |   Average:        0.057 MB
  Note:  These values currently only include a subset of arrays which are explicitly tracked.
  The "true" memory usage will be greater.
------------------------------------------------------------

------------------------------------------------------------
          Begin self-consistency iteration #    2

  Date     :  20190817, Time     :  154151.478
------------------------------------------------------------
  Evaluating new KS density.
  Integration grid: deviation in total charge (<rho> - N_e) =   7.105427E-15
  Pulay mixing of updated and previous charge densities.
  Renormalizing the density to the exact electron count on the 3D integration grid.
  | Formal number of electrons (from input files) :      10.0000000000
  | Integrated number of electrons on 3D grid     :      10.0000000000
  | Charge integration error                      :       0.0000000000
  | Normalization factor for density and gradient :       1.0000000000

  Evaluating partitioned Hartree potential by multipole expansion.
  | Original multipole sum: apparent total charge =  -0.570668E-14
  | Sum of charges compensated after spline to logarithmic grids =   0.369611E-04
  | Analytical far-field extrapolation by fixed multipoles:
  | Hartree multipole sum: apparent total charge =  -0.580507E-14
  Summing up the Hartree potential.
  Time summed over all CPUs for potential: real work        0.028 s, elapsed        0.030 s
  | RMS charge density error from multipole expansion :   0.296498E-02

  Integrating Hamiltonian matrix: batch-based integration.
  Time summed over all CPUs for integration: real work        0.034 s, elapsed        0.034 s

  Updating Kohn-Sham eigenvalues and eigenvectors using ELSI and the ELPA eigensolver.
  Starting ELPA eigensolver
  Finished transformation to standard eigenproblem
  | Time :     0.000 s
  Finished solving standard eigenproblem
  | Time :     0.000 s
  Finished back-transformation of eigenvectors
  | Time :     0.000 s

  Obtaining occupation numbers and chemical potential using ELSI.
  | Chemical potential (Fermi level):    -6.39644980 eV
  Highest occupied state (VBM) at     -7.95225777 eV
  | Occupation number:      2.00000000

  Lowest unoccupied state (CBM) at    -0.36620341 eV
  | Occupation number:      0.00000000

  Overall HOMO-LUMO gap:      7.58605436 eV.

  Checking to see if s.c.f. parameters should be adjusted.

  Total energy components:
  | Sum of eigenvalues            :         -41.73695786 Ha       -1135.72040811 eV
  | XC energy correction          :          -9.20015777 Ha        -250.34903064 eV
  | XC potential correction       :          11.83393031 Ha         322.01762792 eV
  | Free-atom electrostatic energy:         -35.68255992 Ha        -970.97185783 eV
  | Hartree energy correction     :          -1.60069520 Ha         -43.55713263 eV
  | Entropy correction            :           0.00000000 Ha           0.00000000 eV
  | ---------------------------
  | Total energy                  :         -76.38644044 Ha       -2078.58080128 eV
  | Total energy, T -> 0          :         -76.38644044 Ha       -2078.58080128 eV  <-- do not rely on this value for anything but (periodic) metals
  | Electronic free energy        :         -76.38644044 Ha       -2078.58080128 eV

  Derived energy quantities:
  | Kinetic energy                :          76.45508628 Ha        2080.44874981 eV
  | Electrostatic energy          :        -143.64136894 Ha       -3908.68052046 eV
  | Energy correction for multipole
  | error in Hartree potential    :          -0.00002787 Ha          -0.00075849 eV
  | Sum of eigenvalues per atom                           :        -378.57346937 eV
  | Total energy (T->0) per atom                          :        -692.86026709 eV  <-- do not rely on this value for anything but (periodic) metals
  | Electronic free energy per atom                       :        -692.86026709 eV

  Self-consistency convergence accuracy:
  | Change of charge density      :  0.1662E+00
  | Change of sum of eigenvalues  :  0.1909E+02 eV
  | Change of total energy        :  0.4484E+00 eV

  End self-consistency iteration #     2       :  max(cpu_time)    wall_clock(cpu1)
  | Time for this iteration                    :        0.014 s           0.014 s
  | Charge density update                      :        0.003 s           0.003 s
  | Density mixing                             :        0.001 s           0.001 s
  | Hartree multipole update                   :        0.001 s           0.001 s
  | Hartree multipole summation                :        0.004 s           0.004 s
  | Integration                                :        0.004 s           0.004 s
  | Solution of K.-S. eqns.                    :        0.000 s           0.000 s
  | Total energy evaluation                    :        0.000 s           0.000 s

  Partial memory accounting:
  | Current value for overall tracked memory usage:
  |   Minimum:        0.009 MB (on task 4)
  |   Maximum:        0.010 MB (on task 0)
  |   Average:        0.009 MB
  | Peak value for overall tracked memory usage:
  |   Minimum:        0.079 MB (on task 4 after allocating gradient_basis_wave)
  |   Maximum:        0.107 MB (on task 0 after allocating gradient_basis_wave)
  |   Average:        0.086 MB
  | Largest tracked array allocation so far:
  |   Minimum:        0.053 MB (gradient_basis_wave on task 1)
  |   Maximum:        0.069 MB (gradient_basis_wave on task 0)
  |   Average:        0.057 MB
  Note:  These values currently only include a subset of arrays which are explicitly tracked.
  The "true" memory usage will be greater.
------------------------------------------------------------

------------------------------------------------------------
          Begin self-consistency iteration #    3

  Date     :  20190817, Time     :  154151.492
------------------------------------------------------------
  Evaluating new KS density.
  Integration grid: deviation in total charge (<rho> - N_e) =   5.329071E-15
  Pulay mixing of updated and previous charge densities.
  Renormalizing the density to the exact electron count on the 3D integration grid.
  | Formal number of electrons (from input files) :      10.0000000000
  | Integrated number of electrons on 3D grid     :      10.0000000000
  | Charge integration error                      :       0.0000000000
  | Normalization factor for density and gradient :       1.0000000000

  Evaluating partitioned Hartree potential by multipole expansion.
  | Original multipole sum: apparent total charge =  -0.221380E-15
  | Sum of charges compensated after spline to logarithmic grids =   0.111988E-03
  | Analytical far-field extrapolation by fixed multipoles:
  | Hartree multipole sum: apparent total charge =  -0.614943E-15
  Summing up the Hartree potential.
  Time summed over all CPUs for potential: real work        0.027 s, elapsed        0.028 s
  | RMS charge density error from multipole expansion :   0.592609E-02

  Integrating Hamiltonian matrix: batch-based integration.
  Time summed over all CPUs for integration: real work        0.034 s, elapsed        0.037 s

  Updating Kohn-Sham eigenvalues and eigenvectors using ELSI and the ELPA eigensolver.
  Starting ELPA eigensolver
  Finished transformation to standard eigenproblem
  | Time :     0.000 s
  Finished solving standard eigenproblem
  | Time :     0.000 s
  Finished back-transformation of eigenvectors
  | Time :     0.000 s

  Obtaining occupation numbers and chemical potential using ELSI.
  | Chemical potential (Fermi level):    -6.24236730 eV
  Highest occupied state (VBM) at     -7.51413832 eV
  | Occupation number:      2.00000000

  Lowest unoccupied state (CBM) at    -0.05643167 eV
  | Occupation number:      0.00000000

  Overall HOMO-LUMO gap:      7.45770665 eV.

  Total energy components:
  | Sum of eigenvalues            :         -41.69021120 Ha       -1134.44836685 eV
  | XC energy correction          :          -9.21052570 Ha        -250.63115633 eV
  | XC potential correction       :          11.84712128 Ha         322.37657237 eV
  | Free-atom electrostatic energy:         -35.68255992 Ha        -970.97185783 eV
  | Hartree energy correction     :          -1.64782086 Ha         -44.83948689 eV
  | Entropy correction            :           0.00000000 Ha           0.00000000 eV
  | ---------------------------
  | Total energy                  :         -76.38399639 Ha       -2078.51429552 eV
  | Total energy, T -> 0          :         -76.38399639 Ha       -2078.51429552 eV  <-- do not rely on this value for anything but (periodic) metals
  | Electronic free energy        :         -76.38399639 Ha       -2078.51429552 eV

  Derived energy quantities:
  | Kinetic energy                :          76.04229953 Ha        2069.21625076 eV
  | Electrostatic energy          :        -143.21577022 Ha       -3897.09938995 eV
  | Energy correction for multipole
  | error in Hartree potential    :          -0.00305297 Ha          -0.08307545 eV
  | Sum of eigenvalues per atom                           :        -378.14945562 eV
  | Total energy (T->0) per atom                          :        -692.83809851 eV  <-- do not rely on this value for anything but (periodic) metals
  | Electronic free energy per atom                       :        -692.83809851 eV

  Self-consistency convergence accuracy:
  | Change of charge density      :  0.1027E+00
  | Change of sum of eigenvalues  :  0.1272E+01 eV
  | Change of total energy        :  0.6651E-01 eV

  End self-consistency iteration #     3       :  max(cpu_time)    wall_clock(cpu1)
  | Time for this iteration                    :        0.014 s           0.014 s
  | Charge density update                      :        0.003 s           0.003 s
  | Density mixing                             :        0.001 s           0.001 s
  | Hartree multipole update                   :        0.001 s           0.001 s
  | Hartree multipole summation                :        0.004 s           0.003 s
  | Integration                                :        0.005 s           0.005 s
  | Solution of K.-S. eqns.                    :        0.001 s           0.000 s
  | Total energy evaluation                    :        0.000 s           0.000 s

  Partial memory accounting:
  | Current value for overall tracked memory usage:
  |   Minimum:        0.009 MB (on task 4)
  |   Maximum:        0.010 MB (on task 0)
  |   Average:        0.010 MB
  | Peak value for overall tracked memory usage:
  |   Minimum:        0.080 MB (on task 4 after allocating gradient_basis_wave)
  |   Maximum:        0.107 MB (on task 0 after allocating gradient_basis_wave)
  |   Average:        0.086 MB
  | Largest tracked array allocation so far:
  |   Minimum:        0.053 MB (gradient_basis_wave on task 1)
  |   Maximum:        0.069 MB (gradient_basis_wave on task 0)
  |   Average:        0.057 MB
  Note:  These values currently only include a subset of arrays which are explicitly tracked.
  The "true" memory usage will be greater.
------------------------------------------------------------

------------------------------------------------------------
          Begin self-consistency iteration #    4

  Date     :  20190817, Time     :  154151.506
------------------------------------------------------------
  Evaluating new KS density.
  Integration grid: deviation in total charge (<rho> - N_e) =   0.000000E+00
  Pulay mixing of updated and previous charge densities.
  Renormalizing the density to the exact electron count on the 3D integration grid.
  | Formal number of electrons (from input files) :      10.0000000000
  | Integrated number of electrons on 3D grid     :      10.0000000000
  | Charge integration error                      :       0.0000000000
  | Normalization factor for density and gradient :       1.0000000000

  Evaluating partitioned Hartree potential by multipole expansion.
  | Original multipole sum: apparent total charge =  -0.159885E-14
  | Sum of charges compensated after spline to logarithmic grids =   0.122074E-03
  | Analytical far-field extrapolation by fixed multipoles:
  | Hartree multipole sum: apparent total charge =  -0.223839E-14
  Summing up the Hartree potential.
  Time summed over all CPUs for potential: real work        0.027 s, elapsed        0.029 s
  | RMS charge density error from multipole expansion :   0.645066E-02

  Integrating Hamiltonian matrix: batch-based integration.
  Time summed over all CPUs for integration: real work        0.033 s, elapsed        0.035 s

  Updating Kohn-Sham eigenvalues and eigenvectors using ELSI and the ELPA eigensolver.
  Starting ELPA eigensolver
  Finished transformation to standard eigenproblem
  | Time :     0.000 s
  Finished solving standard eigenproblem
  | Time :     0.001 s
  Finished back-transformation of eigenvectors
  | Time :     0.000 s

  Obtaining occupation numbers and chemical potential using ELSI.
  | Chemical potential (Fermi level):    -5.79864162 eV
  Highest occupied state (VBM) at     -7.06663196 eV
  | Occupation number:      2.00000000

  Lowest unoccupied state (CBM) at     0.09221596 eV
  | Occupation number:      0.00000000

  Overall HOMO-LUMO gap:      7.15884791 eV.

  Total energy components:
  | Sum of eigenvalues            :         -41.51446939 Ha       -1129.66618878 eV
  | XC energy correction          :          -9.23365447 Ha        -251.26052212 eV
  | XC potential correction       :          11.87746157 Ha         323.20217354 eV
  | Free-atom electrostatic energy:         -35.68255992 Ha        -970.97185783 eV
  | Hartree energy correction     :          -1.83009726 Ha         -49.79948026 eV
  | Entropy correction            :           0.00000000 Ha           0.00000000 eV
  | ---------------------------
  | Total energy                  :         -76.38331947 Ha       -2078.49587544 eV
  | Total energy, T -> 0          :         -76.38331947 Ha       -2078.49587544 eV  <-- do not rely on this value for anything but (periodic) metals
  | Electronic free energy        :         -76.38331947 Ha       -2078.49587544 eV

  Derived energy quantities:
  | Kinetic energy                :          76.10184712 Ha        2070.83662320 eV
  | Electrostatic energy          :        -143.25151212 Ha       -3898.07197652 eV
  | Energy correction for multipole
  | error in Hartree potential    :          -0.00331146 Ha          -0.09010938 eV
  | Sum of eigenvalues per atom                           :        -376.55539626 eV
  | Total energy (T->0) per atom                          :        -692.83195848 eV  <-- do not rely on this value for anything but (periodic) metals
  | Electronic free energy per atom                       :        -692.83195848 eV

  Self-consistency convergence accuracy:
  | Change of charge density      :  0.3061E-01
  | Change of sum of eigenvalues  :  0.4782E+01 eV
  | Change of total energy        :  0.1842E-01 eV

  End self-consistency iteration #     4       :  max(cpu_time)    wall_clock(cpu1)
  | Time for this iteration                    :        0.014 s           0.014 s
  | Charge density update                      :        0.003 s           0.003 s
  | Density mixing                             :        0.001 s           0.001 s
  | Hartree multipole update                   :        0.001 s           0.001 s
  | Hartree multipole summation                :        0.004 s           0.003 s
  | Integration                                :        0.004 s           0.005 s
  | Solution of K.-S. eqns.                    :        0.001 s           0.001 s
  | Total energy evaluation                    :        0.000 s           0.000 s

  Partial memory accounting:
  | Current value for overall tracked memory usage:
  |   Minimum:        0.009 MB (on task 4)
  |   Maximum:        0.010 MB (on task 0)
  |   Average:        0.010 MB
  | Peak value for overall tracked memory usage:
  |   Minimum:        0.080 MB (on task 4 after allocating gradient_basis_wave)
  |   Maximum:        0.107 MB (on task 0 after allocating gradient_basis_wave)
  |   Average:        0.086 MB
  | Largest tracked array allocation so far:
  |   Minimum:        0.053 MB (gradient_basis_wave on task 1)
  |   Maximum:        0.069 MB (gradient_basis_wave on task 0)
  |   Average:        0.057 MB
  Note:  These values currently only include a subset of arrays which are explicitly tracked.
  The "true" memory usage will be greater.
------------------------------------------------------------

------------------------------------------------------------
          Begin self-consistency iteration #    5

  Date     :  20190817, Time     :  154151.520
------------------------------------------------------------
  Evaluating new KS density.
  Integration grid: deviation in total charge (<rho> - N_e) =   3.552714E-15
  Pulay mixing of updated and previous charge densities.
  Renormalizing the density to the exact electron count on the 3D integration grid.
  | Formal number of electrons (from input files) :      10.0000000000
  | Integrated number of electrons on 3D grid     :      10.0000000000
  | Charge integration error                      :       0.0000000000
  | Normalization factor for density and gradient :       1.0000000000

  Evaluating partitioned Hartree potential by multipole expansion.
  | Original multipole sum: apparent total charge =   0.174644E-14
  | Sum of charges compensated after spline to logarithmic grids =   0.135159E-03
  | Analytical far-field extrapolation by fixed multipoles:
  | Hartree multipole sum: apparent total charge =   0.164805E-14
  Summing up the Hartree potential.
  Time summed over all CPUs for potential: real work        0.027 s, elapsed        0.028 s
  | RMS charge density error from multipole expansion :   0.645161E-02

  Integrating Hamiltonian matrix: batch-based integration.
  Time summed over all CPUs for integration: real work        0.034 s, elapsed        0.035 s

  Updating Kohn-Sham eigenvalues and eigenvectors using ELSI and the ELPA eigensolver.
  Starting ELPA eigensolver
  Finished transformation to standard eigenproblem
  | Time :     0.000 s
  Finished solving standard eigenproblem
  | Time :     0.000 s
  Finished back-transformation of eigenvectors
  | Time :     0.000 s

  Obtaining occupation numbers and chemical potential using ELSI.
  | Chemical potential (Fermi level):    -5.84246105 eV
  Highest occupied state (VBM) at     -7.09660426 eV
  | Occupation number:      2.00000000

  Lowest unoccupied state (CBM) at     0.07743612 eV
  | Occupation number:      0.00000000

  Overall HOMO-LUMO gap:      7.17404038 eV.

  Total energy components:
  | Sum of eigenvalues            :         -41.53091964 Ha       -1130.11382294 eV
  | XC energy correction          :          -9.23069995 Ha        -251.18012549 eV
  | XC potential correction       :          11.87366640 Ha         323.09890179 eV
  | Free-atom electrostatic energy:         -35.68255992 Ha        -970.97185783 eV
  | Hartree energy correction     :          -1.81280446 Ha         -49.32891931 eV
  | Entropy correction            :           0.00000000 Ha           0.00000000 eV
  | ---------------------------
  | Total energy                  :         -76.38331757 Ha       -2078.49582378 eV
  | Total energy, T -> 0          :         -76.38331757 Ha       -2078.49582378 eV  <-- do not rely on this value for anything but (periodic) metals
  | Electronic free energy        :         -76.38331757 Ha       -2078.49582378 eV

  Derived energy quantities:
  | Kinetic energy                :          76.08711798 Ha        2070.43582284 eV
  | Electrostatic energy          :        -143.23973560 Ha       -3897.75152113 eV
  | Energy correction for multipole
  | error in Hartree potential    :          -0.00346898 Ha          -0.09439571 eV
  | Sum of eigenvalues per atom                           :        -376.70460765 eV
  | Total energy (T->0) per atom                          :        -692.83194126 eV  <-- do not rely on this value for anything but (periodic) metals
  | Electronic free energy per atom                       :        -692.83194126 eV

  Self-consistency convergence accuracy:
  | Change of charge density      :  0.2806E-02
  | Change of sum of eigenvalues  : -0.4476E+00 eV
  | Change of total energy        :  0.5166E-04 eV

  End self-consistency iteration #     5       :  max(cpu_time)    wall_clock(cpu1)
  | Time for this iteration                    :        0.014 s           0.015 s
  | Charge density update                      :        0.003 s           0.004 s
  | Density mixing                             :        0.001 s           0.000 s
  | Hartree multipole update                   :        0.001 s           0.001 s
  | Hartree multipole summation                :        0.004 s           0.004 s
  | Integration                                :        0.004 s           0.005 s
  | Solution of K.-S. eqns.                    :        0.001 s           0.000 s
  | Total energy evaluation                    :        0.000 s           0.000 s

  Partial memory accounting:
  | Current value for overall tracked memory usage:
  |   Minimum:        0.009 MB (on task 4)
  |   Maximum:        0.010 MB (on task 0)
  |   Average:        0.010 MB
  | Peak value for overall tracked memory usage:
  |   Minimum:        0.080 MB (on task 4 after allocating gradient_basis_wave)
  |   Maximum:        0.107 MB (on task 0 after allocating gradient_basis_wave)
  |   Average:        0.086 MB
  | Largest tracked array allocation so far:
  |   Minimum:        0.053 MB (gradient_basis_wave on task 1)
  |   Maximum:        0.069 MB (gradient_basis_wave on task 0)
  |   Average:        0.057 MB
  Note:  These values currently only include a subset of arrays which are explicitly tracked.
  The "true" memory usage will be greater.
------------------------------------------------------------

------------------------------------------------------------
          Begin self-consistency iteration #    6

  Date     :  20190817, Time     :  154151.535
------------------------------------------------------------
  Evaluating new KS density.
  Integration grid: deviation in total charge (<rho> - N_e) =   1.776357E-15
  Pulay mixing of updated and previous charge densities.
  Renormalizing the density to the exact electron count on the 3D integration grid.
  | Formal number of electrons (from input files) :      10.0000000000
  | Integrated number of electrons on 3D grid     :      10.0000000000
  | Charge integration error                      :      -0.0000000000
  | Normalization factor for density and gradient :       1.0000000000

  Evaluating partitioned Hartree potential by multipole expansion.
  | Original multipole sum: apparent total charge =  -0.107246E-13
  | Sum of charges compensated after spline to logarithmic grids =   0.132327E-03
  | Analytical far-field extrapolation by fixed multipoles:
  | Hartree multipole sum: apparent total charge =  -0.101343E-13
  Summing up the Hartree potential.
  Time summed over all CPUs for potential: real work        0.027 s, elapsed        0.028 s
  | RMS charge density error from multipole expansion :   0.648105E-02

  Integrating Hamiltonian matrix: batch-based integration.
  Time summed over all CPUs for integration: real work        0.034 s, elapsed        0.036 s

  Updating Kohn-Sham eigenvalues and eigenvectors using ELSI and the ELPA eigensolver.
  Starting ELPA eigensolver
  Finished transformation to standard eigenproblem
  | Time :     0.000 s
  Finished solving standard eigenproblem
  | Time :     0.000 s
  Finished back-transformation of eigenvectors
  | Time :     0.001 s

  Obtaining occupation numbers and chemical potential using ELSI.
  | Chemical potential (Fermi level):    -5.82503919 eV
  Highest occupied state (VBM) at     -7.08119555 eV
  | Occupation number:      2.00000000

  Lowest unoccupied state (CBM) at     0.08611602 eV
  | Occupation number:      0.00000000

  Overall HOMO-LUMO gap:      7.16731157 eV.

  Total energy components:
  | Sum of eigenvalues            :         -41.52448415 Ha       -1129.93870443 eV
  | XC energy correction          :          -9.23185082 Ha        -251.21144220 eV
  | XC potential correction       :          11.87515108 Ha         323.13930198 eV
  | Free-atom electrostatic energy:         -35.68255992 Ha        -970.97185783 eV
  | Hartree energy correction     :          -1.81957316 Ha         -49.51310481 eV
  | Entropy correction            :           0.00000000 Ha           0.00000000 eV
  | ---------------------------
  | Total energy                  :         -76.38331696 Ha       -2078.49580729 eV
  | Total energy, T -> 0          :         -76.38331696 Ha       -2078.49580729 eV  <-- do not rely on this value for anything but (periodic) metals
  | Electronic free energy        :         -76.38331696 Ha       -2078.49580729 eV

  Derived energy quantities:
  | Kinetic energy                :          76.08874110 Ha        2070.47999032 eV
  | Electrostatic energy          :        -143.24020725 Ha       -3897.76435541 eV
  | Energy correction for multipole
  | error in Hartree potential    :          -0.00345065 Ha          -0.09389706 eV
  | Sum of eigenvalues per atom                           :        -376.64623481 eV
  | Total energy (T->0) per atom                          :        -692.83193576 eV  <-- do not rely on this value for anything but (periodic) metals
  | Electronic free energy per atom                       :        -692.83193576 eV

  Self-consistency convergence accuracy:
  | Change of charge density      :  0.2140E-02
  | Change of sum of eigenvalues  :  0.1751E+00 eV
  | Change of total energy        :  0.1649E-04 eV

  End self-consistency iteration #     6       :  max(cpu_time)    wall_clock(cpu1)
  | Time for this iteration                    :        0.015 s           0.015 s
  | Charge density update                      :        0.003 s           0.003 s
  | Density mixing                             :        0.001 s           0.001 s
  | Hartree multipole update                   :        0.001 s           0.001 s
  | Hartree multipole summation                :        0.004 s           0.003 s
  | Integration                                :        0.005 s           0.005 s
  | Solution of K.-S. eqns.                    :        0.002 s           0.002 s
  | Total energy evaluation                    :        0.000 s           0.000 s

  Partial memory accounting:
  | Current value for overall tracked memory usage:
  |   Minimum:        0.009 MB (on task 4)
  |   Maximum:        0.010 MB (on task 0)
  |   Average:        0.010 MB
  | Peak value for overall tracked memory usage:
  |   Minimum:        0.080 MB (on task 4 after allocating gradient_basis_wave)
  |   Maximum:        0.107 MB (on task 0 after allocating gradient_basis_wave)
  |   Average:        0.086 MB
  | Largest tracked array allocation so far:
  |   Minimum:        0.053 MB (gradient_basis_wave on task 1)
  |   Maximum:        0.069 MB (gradient_basis_wave on task 0)
  |   Average:        0.057 MB
  Note:  These values currently only include a subset of arrays which are explicitly tracked.
  The "true" memory usage will be greater.
------------------------------------------------------------

------------------------------------------------------------
          Begin self-consistency iteration #    7

  Date     :  20190817, Time     :  154151.550
------------------------------------------------------------
  Evaluating new KS density.
  Integration grid: deviation in total charge (<rho> - N_e) =   1.776357E-15
  Pulay mixing of updated and previous charge densities.
  Renormalizing the density to the exact electron count on the 3D integration grid.
  | Formal number of electrons (from input files) :      10.0000000000
  | Integrated number of electrons on 3D grid     :      10.0000000000
  | Charge integration error                      :      -0.0000000000
  | Normalization factor for density and gradient :       1.0000000000

  Evaluating partitioned Hartree potential by multipole expansion.
  | Original multipole sum: apparent total charge =  -0.105524E-13
  | Sum of charges compensated after spline to logarithmic grids =   0.131948E-03
  | Analytical far-field extrapolation by fixed multipoles:
  | Hartree multipole sum: apparent total charge =  -0.993749E-14
  Summing up the Hartree potential.
  Time summed over all CPUs for potential: real work        0.027 s, elapsed        0.028 s
  | RMS charge density error from multipole expansion :   0.648722E-02

  Integrating Hamiltonian matrix: batch-based integration.
  Time summed over all CPUs for integration: real work        0.033 s, elapsed        0.034 s

  Updating Kohn-Sham eigenvalues and eigenvectors using ELSI and the ELPA eigensolver.
  Starting ELPA eigensolver
  Finished transformation to standard eigenproblem
  | Time :     0.000 s
  Finished solving standard eigenproblem
  | Time :     0.000 s
  Finished back-transformation of eigenvectors
  | Time :     0.000 s

  Obtaining occupation numbers and chemical potential using ELSI.
  | Chemical potential (Fermi level):    -5.81968048 eV
  Highest occupied state (VBM) at     -7.07701204 eV
  | Occupation number:      2.00000000

  Lowest unoccupied state (CBM) at     0.08891447 eV
  | Occupation number:      0.00000000

  Overall HOMO-LUMO gap:      7.16592652 eV.

  Total energy components:
  | Sum of eigenvalues            :         -41.52251051 Ha       -1129.88499900 eV
  | XC energy correction          :          -9.23221245 Ha        -251.22128286 eV
  | XC potential correction       :          11.87561846 Ha         323.15201997 eV
  | Free-atom electrostatic energy:         -35.68255992 Ha        -970.97185783 eV
  | Hartree energy correction     :          -1.82165263 Ha         -49.56969019 eV
  | Entropy correction            :           0.00000000 Ha           0.00000000 eV
  | ---------------------------
  | Total energy                  :         -76.38331706 Ha       -2078.49580991 eV
  | Total energy, T -> 0          :         -76.38331706 Ha       -2078.49580991 eV  <-- do not rely on this value for anything but (periodic) metals
  | Electronic free energy        :         -76.38331706 Ha       -2078.49580991 eV

  Derived energy quantities:
  | Kinetic energy                :          76.09045667 Ha        2070.52667320 eV
  | Electrostatic energy          :        -143.24156128 Ha       -3897.80120025 eV
  | Energy correction for multipole
  | error in Hartree potential    :          -0.00344305 Ha          -0.09369014 eV
  | Sum of eigenvalues per atom                           :        -376.62833300 eV
  | Total energy (T->0) per atom                          :        -692.83193664 eV  <-- do not rely on this value for anything but (periodic) metals
  | Electronic free energy per atom                       :        -692.83193664 eV

  Self-consistency convergence accuracy:
  | Change of charge density      :  0.4253E-03
  | Change of sum of eigenvalues  :  0.5371E-01 eV
  | Change of total energy        : -0.2619E-05 eV

  End self-consistency iteration #     7       :  max(cpu_time)    wall_clock(cpu1)
  | Time for this iteration                    :        0.014 s           0.014 s
  | Charge density update                      :        0.003 s           0.003 s
  | Density mixing                             :        0.001 s           0.001 s
  | Hartree multipole update                   :        0.001 s           0.001 s
  | Hartree multipole summation                :        0.004 s           0.004 s
  | Integration                                :        0.004 s           0.004 s
  | Solution of K.-S. eqns.                    :        0.001 s           0.001 s
  | Total energy evaluation                    :        0.000 s           0.000 s

  Partial memory accounting:
  | Current value for overall tracked memory usage:
  |   Minimum:        0.009 MB (on task 4)
  |   Maximum:        0.010 MB (on task 0)
  |   Average:        0.010 MB
  | Peak value for overall tracked memory usage:
  |   Minimum:        0.080 MB (on task 4 after allocating gradient_basis_wave)
  |   Maximum:        0.107 MB (on task 0 after allocating gradient_basis_wave)
  |   Average:        0.086 MB
  | Largest tracked array allocation so far:
  |   Minimum:        0.053 MB (gradient_basis_wave on task 1)
  |   Maximum:        0.069 MB (gradient_basis_wave on task 0)
  |   Average:        0.057 MB
  Note:  These values currently only include a subset of arrays which are explicitly tracked.
  The "true" memory usage will be greater.
------------------------------------------------------------

------------------------------------------------------------
          Begin self-consistency iteration #    8

  Date     :  20190817, Time     :  154151.564
------------------------------------------------------------
  Evaluating new KS density.
  Integration grid: deviation in total charge (<rho> - N_e) =   1.776357E-15
  Pulay mixing of updated and previous charge densities.
  Renormalizing the density to the exact electron count on the 3D integration grid.
  | Formal number of electrons (from input files) :      10.0000000000
  | Integrated number of electrons on 3D grid     :      10.0000000000
  | Charge integration error                      :       0.0000000000
  | Normalization factor for density and gradient :       1.0000000000

  Evaluating partitioned Hartree potential by multipole expansion.
  | Original multipole sum: apparent total charge =  -0.703495E-14
  | Sum of charges compensated after spline to logarithmic grids =   0.131877E-03
  | Analytical far-field extrapolation by fixed multipoles:
  | Hartree multipole sum: apparent total charge =  -0.644461E-14
  Summing up the Hartree potential.
  Time summed over all CPUs for potential: real work        0.027 s, elapsed        0.028 s
  | RMS charge density error from multipole expansion :   0.648762E-02

  Integrating Hamiltonian matrix: batch-based integration.
  Time summed over all CPUs for integration: real work        0.033 s, elapsed        0.034 s

  Updating Kohn-Sham eigenvalues and eigenvectors using ELSI and the ELPA eigensolver.
  Starting ELPA eigensolver
  Finished transformation to standard eigenproblem
  | Time :     0.000 s
  Finished solving standard eigenproblem
  | Time :     0.001 s
  Finished back-transformation of eigenvectors
  | Time :     0.000 s

  Obtaining occupation numbers and chemical potential using ELSI.
  | Chemical potential (Fermi level):    -5.82086492 eV
  Highest occupied state (VBM) at     -7.07828116 eV
  | Occupation number:      2.00000000

  Lowest unoccupied state (CBM) at     0.08877941 eV
  | Occupation number:      0.00000000

  Overall HOMO-LUMO gap:      7.16706057 eV.

  Total energy components:
  | Sum of eigenvalues            :         -41.52300609 Ha       -1129.89848420 eV
  | XC energy correction          :          -9.23217201 Ha        -251.22018225 eV
  | XC potential correction       :          11.87556378 Ha         323.15053209 eV
  | Free-atom electrostatic energy:         -35.68255992 Ha        -970.97185783 eV
  | Hartree energy correction     :          -1.82114287 Ha         -49.55581889 eV
  | Entropy correction            :           0.00000000 Ha           0.00000000 eV
  | ---------------------------
  | Total energy                  :         -76.38331710 Ha       -2078.49581108 eV
  | Total energy, T -> 0          :         -76.38331710 Ha       -2078.49581108 eV  <-- do not rely on this value for anything but (periodic) metals
  | Electronic free energy        :         -76.38331710 Ha       -2078.49581108 eV

  Derived energy quantities:
  | Kinetic energy                :          76.09025939 Ha        2070.52130503 eV
  | Electrostatic energy          :        -143.24140449 Ha       -3897.79693386 eV
  | Energy correction for multipole
  | error in Hartree potential    :          -0.00344160 Ha          -0.09365078 eV
  | Sum of eigenvalues per atom                           :        -376.63282807 eV
[...]
 | i_freq   27            0.098701
 | i_freq   28            0.107252
 | i_freq   29            0.116291
 | i_freq   30            0.125842
 | i_freq   31            0.135929
 | i_freq   32            0.146581
 | i_freq   33            0.157826
 | i_freq   34            0.169698
 | i_freq   35            0.182230
 | i_freq   36            0.195460
 | i_freq   37            0.209429
 | i_freq   38            0.224180
 | i_freq   39            0.239761
 | i_freq   40            0.256224
 | i_freq   41            0.273624
 | i_freq   42            0.292024
 | i_freq   43            0.311489
 | i_freq   44            0.332092
 | i_freq   45            0.353913
 | i_freq   46            0.377037
 | i_freq   47            0.401559
 | i_freq   48            0.427585
 | i_freq   49            0.455227
 | i_freq   50            0.484612
 | i_freq   51            0.515877
 | i_freq   52            0.549177
 | i_freq   53            0.584679
 | i_freq   54            0.622573
 | i_freq   55            0.663065
 | i_freq   56            0.706389
 | i_freq   57            0.752803
 | i_freq   58            0.802596
 | i_freq   59            0.856094
 | i_freq   60            0.913662
 | i_freq   61            0.975711
 | i_freq   62            1.042706
 | i_freq   63            1.115177
 | i_freq   64            1.193725
 | i_freq   65            1.279035
 | i_freq   66            1.371894
 | i_freq   67            1.473207
 | i_freq   68            1.584019
 | i_freq   69            1.705543
 | i_freq   70            1.839192
 | i_freq   71            1.986619
 | i_freq   72            2.149771
 | i_freq   73            2.330952
 | i_freq   74            2.532904
 | i_freq   75            2.758913
 | i_freq   76            3.012940
 | i_freq   77            3.299798
 | i_freq   78            3.625381
 | i_freq   79            3.996967
 | i_freq   80            4.423632
 | i_freq   81            4.916802
 | i_freq   82            5.491033
 | i_freq   83            6.165091
 | i_freq   84            6.963505
 | i_freq   85            7.918832
 | i_freq   86            9.075026
 | i_freq   87           10.492583
 | i_freq   88           12.256615
 | i_freq   89           14.489927
 | i_freq   90           17.374976
 | i_freq   91           21.192342
 | i_freq   92           26.391591
 | i_freq   93           33.729901
 | i_freq   94           44.564042
 | i_freq   95           61.525277
 | i_freq   96           90.280309
 | i_freq   97          144.953213
 | i_freq   98          269.415349
 | i_freq   99          662.608268
 | i_freq  100         3492.666343
 --------------------------------------------
 
  Analytical continuation (Pade approximation) starts...
 
  Quasi particle energy calculation using analytic continuation starts...
 
  Self-consistent quasi particle energy calculation with contour deformation starts...
 
 ------------------------------------------------------------
  Start contour deformation for level:      3    
 ------------------------------------------------------------
  Step:    1
  Step:    2
  Step:    3
  Step:    4
  Step:    5
  Step:    6
  Step:    7
  Step:    8
  Step:    9
  Step:   10
  Step:   11
  Step:   12
  Step:   13
  Step:   14
  Step:   15
  Step:   16
  Step:   17
  Step:   18
  Step:   19
  Step:   20
  Step:   21
  Step:   22
  Step:   23
  Step:   24
  Step:   25
  Step:   26
  Step:   27
  Step:   28
  Step:   29
  Step:   30
  Step:   31
  Step:   32
  Step:   33
  Step:   34
  Step:   35
  Step:   36
  Step:   37
  Step:   38
  Step:   39
  Step:   40
  Step:   41
  Step:   42
  Step:   43
  Step:   44
  Step:   45
  Step:   46
  Step:   47
  Step:   48
  Step:   49
  Step:   50
  Step:   51
  Step:   52
  Step:   53
  Step:   54
  Step:   55
  Step:   56
  Step:   57
  Step:   58
  Step:   59
  Step:   60
  Step:   61
  Step:   62
  Step:   63
  Step:   64
  Step:   65
  Step:   66
  Step:   67
  Step:   68
  Step:   69
  Step:   70
  Step:   71
  Step:   72
  Step:   73
  Step:   74
  Step:   75
  Step:   76
  Step:   77
  Step:   78
  Step:   79
  Step:   80
  Step:   81
  Step:   82
  Step:   83
  Step:   84
  Step:   85
  Step:   86
  Step:   87
  Step:   88
  Step:   89
  Step:   90
  Step:   91
  Step:   92
  Step:   93
  Step:   94
  Step:   95
  Step:   96
  Step:   97
  Step:   98
  Step:   99
  Step:  100
  Step:  101
  Step:  102
  Step:  103
  Step:  104
  Step:  105
  Step:  106
  Step:  107
  Step:  108
  Step:  109
  Step:  110
  Step:  111
  Step:  112
  Step:  113
  Step:  114
  Step:  115
  Step:  116
  Step:  117
  Step:  118
  Step:  119
  Step:  120
  Step:  121
  Step:  122
  Step:  123
  Step:  124
  Step:  125
  Step:  126
  Step:  127
  Step:  128
  Step:  129
  Step:  130
  Step:  131
  Step:  132
  Step:  133
  Step:  134
  Step:  135
  Step:  136
  Step:  137
  Step:  138
  Step:  139
  Step:  140
  Step:  141
  Step:  142
  Step:  143
  Step:  144
  Step:  145
  Step:  146
  Step:  147
  Step:  148
  Step:  149
  Step:  150
  Step:  151
  Step:  152
  Step:  153
  Step:  154
  Step:  155
  Step:  156
  Step:  157
  Step:  158
  Step:  159
  Step:  160
  Step:  161
  Step:  162
  Step:  163
  Step:  164
  Step:  165
  Step:  166
  Step:  167
  Step:  168
  Step:  169
  Step:  170
  Step:  171
  Step:  172
  Step:  173
  Step:  174
  Step:  175
  Step:  176
  Step:  177
  Step:  178
  Step:  179
  Step:  180
  Step:  181
  Step:  182
  Step:  183
  Step:  184
  Step:  185
  Step:  186
  Step:  187
  Step:  188
  Step:  189
  Step:  190
  Step:  191
  Step:  192
  Step:  193
  Step:  194
  Step:  195
  Step:  196
  Step:  197
  Step:  198
  Step:  199
  Step:  200
  Step:  201
  QUASI_PARTILCE_ENERGY: self-consistent quasiparticle solution with contour deformation can not  be found for state: i_state =    3  i_spin =    1
 
 ------------------------------------------------------------
  Start contour deformation for level:      4    
 ------------------------------------------------------------
  Step:    1
  Step:    2
  Step:    3
  Step:    4
  Step:    5
  Step:    6
  Step:    7
  Step:    8
  Step:    9
  Step:   10
  Step:   11
  Step:   12
  Step:   13
 
 ------------------------------------------------------------
  Start contour deformation for level:      5    
 ------------------------------------------------------------
  Step:    1
  Step:    2
  Step:    3
  Step:    4
  Step:    5
  Step:    6
  Step:    7
  Step:    8
  Step:    9
  Step:   10
  Step:   11
  Step:   12
  Step:   13
 
 ------------------------------------------------------------
  Start contour deformation for level:      6    
 ------------------------------------------------------------
  Step:    1
  Step:    2
  Step:    3
  Step:    4
  Step:    5
  Step:    6
  Step:    7
  Step:    8
  Step:    9
  Step:   10
  Step:   11
  Step:   12
  Step:   13
  Step:   14
 
 ------------------------------------------------------------
  Start contour deformation for level:      7    
 ------------------------------------------------------------
  Step:    1
  Step:    2
  Step:    3
  Step:    4
  Step:    5
  Step:    6
  Step:    7
  Step:    8
  Step:    9
  Step:   10
  Step:   11
  Step:   12
  Step:   13
  Step:   14
 
------------------------------------------------------------------------------------------------------
               GW quasi-particle energy levels
 
               Start contour deformation at level:      3
               End contour deformation at level:        7
 
               e_qp = e_gs + e_x^ex - e_xc^gs + e_c^nloc
 
  state     occ_num        e_gs        e_x^ex        e_xc^gs        e_c^nloc        e_qp
------------------------------------------------------------------------------------------------------
------------------------------------------------------------------------------------------------------
       1    2.0000     -510.4658     -132.5644      -83.7377        8.5011     -550.7915
       2    2.0000      -25.1582      -33.0485      -21.4533        5.1613      -31.5920
       3    2.0000      -13.0397      -24.7283      -18.2346 *** no convergence (see below) ***
       4    2.0000       -9.2053      -25.8655      -18.9835        2.4457      -13.6415
       5    2.0000       -7.0779      -26.0295      -19.1664        2.6542      -11.2869
       6    0.0000        0.0888       -3.2922       -7.4883       -0.7357        3.5491
       7    0.0000        2.7586       -4.7346       -9.8581       -1.1149        6.7673
       8    0.0000        8.1104       -4.3519       -9.6224       -1.0504       12.3306
       9    0.0000        9.0928       -5.3527      -10.9146       -0.7655       13.8893
      10    0.0000       10.0438       -2.4604       -7.4077       -0.7943       14.1968
      11    0.0000       15.6848       -4.9058      -12.3065       -2.4161       20.6694
      12    0.0000       21.1136       -5.1372      -13.2372       -3.8375       25.3760
      13    0.0000       24.0934       -4.6023      -12.1635       -1.9106       29.7441
      14    0.0000       26.2355       -4.2174      -11.8237       -1.7610       32.0808
      15    0.0000       30.4159       -4.3935      -12.2906       -2.1548       36.1583
------------------------------------------------------------------------------------------------------
 
   DFT/Hartree-Fock HOMO level (eV):    -7.0779   -7.0779
 
   Quasiparticle HOMO level (eV):      -11.2869  -11.2869
 
------------------------------------------------------------------------------------------------------
 
          | Total time for transforming the 3-center integrals :        0.000 s
          | Total time for calculating the exchange-correlation
                                  energy matrix elements   :        0.004 s
          | Total time for calculating polarisability     
                        for imaginary frequencies          :        0.019 s
          | Total time for calculating self energy 
                        on imaginary frequency axis        :        0.144 s
          | Total time for calculating the quasiparticle 
                  energies with analytic continuation      :        0.000 s
          | Total time for calculating the quasiparticle 
                  energies with contour deformation        :        1.197 s
  |------------------------------------------------------
  | Final ELSI Output
  |------------------------------------------------------
  |
  | Physical Properties
  |   Number of electrons       :        0.10000000E+02
  |   Number of spins           :                     1
  |   Number of k-points        :                     1
  |   Number of states          :                    24
  |
  | Matrix Properties
  |   Matrix format             :           BLACS_DENSE
  |   Number of basis functions :                    24
  |   Matrix sparsity           :        0.00000000E+00
  |
  | Computational Details
  |   Parallel mode             :            MULTI_PROC
  |   Number of MPI tasks       :                     8
  |   Solver requested          :                  ELPA
  |   Number of ELSI calls      :                    12
  |
  |------------------------------------------------------
  | ELSI Project (c)  elsi-interchange.org
  |------------------------------------------------------

------------------------------------------------------------------------------
  Final output of selected total energy values:

  The following output summarizes some interesting total energy values
  at the end of a run (AFTER all relaxation, molecular dynamics, etc.).

  | Total energy of the DFT / Hartree-Fock s.c.f. calculation      :          -2078.495810055 eV
  | Final zero-broadening corrected energy (caution - metals only) :          -2078.495810055 eV
  | For reference only, the value of 1 Hartree used in FHI-aims is :             27.211384500 eV

  Before relying on these values, please be sure to understand exactly which
  total energy value is referred to by a given number. Different objects may
  all carry the same name 'total energy'. Definitions:

  Total energy of the DFT / Hartree-Fock s.c.f. calculation:
  | Note that this energy does not include ANY quantities calculated after the
  | s.c.f. cycle, in particular not ANY RPA, MP2, etc. many-body perturbation terms.

  Final zero-broadening corrected energy:
  | For metallic systems only, a broadening of the occupation numbers at the Fermi
  | level can be extrapolated back to zero broadening by an electron-gas inspired
  | formula. For all systems that are not real metals, this value can be
  | meaningless and should be avoided.

------------------------------------------------------------------------------
  Methods described in the following list of references were used in this FHI-aims run.
  If you publish the results, please make sure to cite these reference if they apply.
  FHI-aims is an academic code, and for our developers (often, Ph.D. students
  and postdocs), scientific credit in the community is essential.
  Thank you for helping us!

  For any use of FHI-aims, please cite:

    Volker Blum, Ralf Gehrke, Felix Hanke, Paula Havu, Ville Havu,
    Xinguo Ren, Karsten Reuter, and Matthias Scheffler
    'Ab initio molecular simulations with numeric atom-centered orbitals'
    Computer Physics Communications 180, 2175-2196 (2009)
    http://dx.doi.org/10.1016/j.cpc.2009.06.022


  For Hartree-Fock, hybrid functionals, or many-body perturbation theory used in your run, please cite:

    Xinguo Ren, Patrick Rinke, Volker Blum, Juergen Wieferink, Alex Tkatchenko,
    Andrea Sanfilippo, Karsten Reuter, and Matthias Scheffler,
    'Resolution-of-identity approach to Hartree-Fock, hybrid density functionals,
    RPA, MP2, and GW with numeric atom-centered orbital basis functions'
    New Journal of Physics 14, 053020 (2012).
    http://dx.doi.org/10.1088/1367-2630/14/5/053020


  The ELSI infrastructure was used in your run to solve the Kohn-Sham electronic structure.
  Please check out http://elsi-interchange.org to learn more.
  If scalability is important for your project, please acknowledge ELSI by citing:

    V. W-z. Yu, F. Corsetti, A. Garcia, W. P. Huhn, M. Jacquelin, W. Jia,
    B. Lange, L. Lin, J. Lu, W. Mi, A. Seifitokaldani, A. Vazquez-Mayagoitia,
    C. Yang, H. Yang, and V. Blum
    'ELSI: A unified software interface for Kohn-Sham electronic structure solvers'
    Computer Physics Communications 222, 267-285 (2018).
    http://dx.doi.org/10.1016/j.cpc.2017.09.007


  For the real-space grid partitioning and parallelization used in this calculation, please cite:

    Ville Havu, Volker Blum, Paula Havu, and Matthias Scheffler,
    'Efficient O(N) integration for all-electron electronic structure calculation'
    'using numerically tabulated basis functions'
    Journal of Computational Physics 228, 8367-8379 (2009).
    http://dx.doi.org/10.1016/j.jcp.2009.08.008

  Of course, there are many other important community references, e.g., those cited in the
  above references. Our list is limited to references that describe implementations in the
  FHI-aims code. The reason is purely practical (length of this list) - please credit others as well.

 * Warning - angular integration grids had to be adjusted for use with RI_method 'V'.
 * Background: You are using an electronic structure method that requires RI_method 'V'
 * for the resolution of identity of the Coulomb operator. (See Ren et al.,
 * New J. Phys 2012 for details.) This method requires three-center integrations
 * to be carried out on FHI-aims' normal angular and radial integration grids.
 * (See FHI-aims CPC Blum et al. 2009, p. 2183 for grid details and references.)
 * One of the angular grids specified in your control.in file was not large
 * enough for the maximal angular momenta of orbital and product basis functions
 * for its species.
 * This can lead to atomic total energy errors which cancel in energy differences.
 * Effective Sep 22, 2014, we have changed the default behavior of the code to
 * simply 'upgrade' the angular grids internally to a safe setting in this case.
 * Please be sure to NOT mix total energies from before and after the change.

------------------------------------------------------------
          Leaving FHI-aims.
          Date     :  20190817, Time     :  154153.122

          Computational steps:
          | Number of self-consistency cycles          :           11
          | Number of SCF (re)initializations          :            1

          Detailed time accounting                     :  max(cpu_time)    wall_clock(cpu1)
          | Total time                                 :        1.824 s           1.845 s
          | Preparation time                           :        0.094 s           0.096 s
          | Boundary condition initalization           :        0.001 s           0.000 s
          | Grid partitioning                          :        0.005 s           0.005 s
          | Preloading free-atom quantities on grid    :        0.002 s           0.002 s
          | Free-atom superposition energy             :        0.002 s           0.002 s
          | Total time for integrations                :        0.057 s           0.056 s
          | Product basis setup: Total time            :        0.000 s           0.000 s
          | Product basis: | 3-center integrations     :(       0.040 s)  (       0.040 s)
          | Product basis: | 2-center integrations     :(       0.058 s)  (       0.058 s)
          | Product basis: | 2-center linear algebra   :(       0.002 s)  (       0.003 s)
          | Product basis: | 3-center x 2-center       :(       0.001 s)  (       0.001 s)
          | Transforming ovlp_3fn to ovlp_3KS          :        0.000 s           0.001 s
          | Total time for GW calculation              :        1.367 s           1.368 s
          | GW self-energy (analytic cont.)            :        0.164 s           0.164 s
          | Screened Coulomb matrix W_mn(iw)           :        0.159 s           0.159 s
          | Polarisability matrix Pi_PQ(iw)            :        0.019 s           0.019 s
          | Contour def: | Solving qp equations        :        1.197 s           1.198 s
          | Contour def: | GW self-energy              :        1.195 s           1.191 s
          | Contour def: | Scr Coulomb matrix W_mn(w)  :        1.093 s           1.063 s
          | Contour def: | Scr aux Coulomb mat W_PQ(w) :        1.093 s           1.063 s
          | Contour def: | Polarisability Pi_PQ(w)     :        1.093 s           1.063 s
          | Total time for solution of K.-S. equations :        0.012 s           0.011 s
          | Total time for density update              :        0.035 s           0.035 s
          | Total time for mixing                      :        0.007 s           0.007 s
          | Total time for Hartree multipole update    :        0.010 s           0.010 s
          | Total time for Hartree multipole sum       :        0.040 s           0.041 s
          | Total time for total energy evaluation     :        0.001 s           0.000 s

          Partial memory accounting:
          | Residual value for overall tracked memory usage across tasks:     0.000000 MB (should be 0.000000 MB)
          | Peak values for overall tracked memory usage:
          |   Minimum:        0.080 MB (on task 4 after allocating gradient_basis_wave)
          |   Maximum:        0.107 MB (on task 0 after allocating gradient_basis_wave)
          |   Average:        0.086 MB
          | Largest tracked array allocation:
          |   Minimum:        0.053 MB (gradient_basis_wave on task 1)
          |   Maximum:        0.069 MB (gradient_basis_wave on task 0)
          |   Average:        0.057 MB
          Note:  These values currently only include a subset of arrays which are explicitly tracked.
          The "true" memory usage will be greater.

          Have a nice day.
------------------------------------------------------------
