  MPI-parallelism will be employed.
------------------------------------------------------------
          Invoking FHI-aims ...
          Version 180101-
          Git rev. (modified): fa29f3a Merge branch master of fhiaims.rzberlin.mp[...]
          Compiled on 2018/01/19 at 14:47:46 on host theobook132.

          When using FHI-aims, please cite the following reference:

          Volker Blum, Ralf Gehrke, Felix Hanke, Paula Havu,
          Ville Havu, Xinguo Ren, Karsten Reuter, and Matthias Scheffler,
          'Ab Initio Molecular Simulations with Numeric Atom-Centered Orbitals',
          Computer Physics Communications 180, 2175-2196 (2009)

          For any questions about FHI-aims, please visit the aimsclub website
          with its forums and wiki. Contributions to both the forums and the
          wiki are warmly encouraged - they are for you, and everyone is welcome there.

------------------------------------------------------------



  Date     :  20180214, Time     :  162531.956
  Time zero on CPU 1             :   0.600000000000000E-01  s.
  Internal wall clock time zero  :           287857531.956  s.

  FHI-aims created a unique identifier for this run for later identification
  aims_uuid : 415A3FCD-5753-4BB3-AA1C-178B38B6813D

  Using        8 parallel tasks.
  Task        0 on host theobook132 reporting.
  Task        1 on host theobook132 reporting.
  Task        2 on host theobook132 reporting.
  Task        3 on host theobook132 reporting.
  Task        4 on host theobook132 reporting.
  Task        5 on host theobook132 reporting.
  Task        6 on host theobook132 reporting.
  Task        7 on host theobook132 reporting.

  Performing system and environment tests:
  *** Environment variable OMP_NUM_THREADS is not set
  *** For performance reasons you might want to set it to 1
  | Stacksize not measured: no C compiler
  | Checking for scalapack...
  | No scalapack compiled in.

  Obtaining array dimensions for all initial allocations:
  
  -----------------------------------------------------------------------
  Parsing control.in (first pass over file, find array dimensions only).
  The contents of control.in will be repeated verbatim below
  unless switched off by setting 'verbatim_writeout .false.' .
  in the first line of control.in .
  -----------------------------------------------------------------------
  
  ################################################################################
  #
  #		Control.in generated by mkcontrol
  #
  ################################################################################
  xc			pbe
  vdw_correction_hirshfeld
  charge			-1.0
  relativistic		atomic_zora scalar
  sc_accuracy_rho		1E-5
  sc_accuracy_eev		1E-3
  sc_accuracy_etot	1E-6
  sc_iter_limit		1000	
  
  compute_forces .true.
  final_forces_cleaned .true.
  
  
  ################################################################################
  #
  #  FHI-aims code project
  # Volker Blum, Fritz Haber Institute Berlin, 2009
  #
  #  Suggested "tight" defaults for H atom (to be pasted into control.in file)
  #
  ################################################################################
    species        H
  #     global species definitions
      nucleus             1
      mass                1.00794
  #
      l_hartree           6
  #
      cut_pot             4.0  2.0  1.0
      basis_dep_cutoff    1e-4
  #
      radial_base         24 7.0
      radial_multiplier   2
      angular_grids       specified
        division   0.1930   50
        division   0.3175  110
        division   0.4293  194
        division   0.5066  302
        division   0.5626  434
  #      division   0.5922  590
  #      division   0.6227  974
  #      division   0.6868 1202
  #      outer_grid  770
        outer_grid  434
  ################################################################################
  #
  #  Definition of "minimal" basis
  #
  ################################################################################
  #     valence basis states
      valence      1  s   1.
  #     ion occupancy
      ion_occ      1  s   0.5
  ################################################################################
  #
  #  Suggested additional basis functions. For production calculations,
  #  uncomment them one after another (the most important basis functions are
  #  listed first).
  #
  #  Basis constructed for dimers: 0.5 A, 0.7 A, 1.0 A, 1.5 A, 2.5 A
  #
  ################################################################################
  #  "First tier" - improvements: -1014.90 meV to -62.69 meV
       hydro 2 s 2.1
       hydro 2 p 3.5
  #  "Second tier" - improvements: -12.89 meV to -1.83 meV
       hydro 1 s 0.85
       hydro 2 p 3.7
       hydro 2 s 1.2
       hydro 3 d 7
  #  "Third tier" - improvements: -0.25 meV to -0.12 meV
  #     hydro 4 f 11.2
  #     hydro 3 p 4.8
  #     hydro 4 d 9
  #     hydro 3 s 3.2
  
  
  
  ################################################################################
  #
  #  FHI-aims code project
  # Volker Blum, Fritz Haber Institute Berlin, 2009
  #
  #  Suggested "tight" defaults for C atom (to be pasted into control.in file)
  #
  ################################################################################
    species        C
  #     global species definitions
      nucleus             6
      mass                12.0107
  #
      l_hartree           6
  #
      cut_pot             4.0  2.0  1.0
      basis_dep_cutoff    1e-4
  #
      radial_base         34 7.0
      radial_multiplier   2
      angular_grids specified
        division   0.2187   50
        division   0.4416  110
        division   0.6335  194
        division   0.7727  302
        division   0.8772  434
  #      division   0.9334  590
  #      division   0.9924  770
  #      division   1.0230  974
  #      division   1.5020 1202
  #     outer_grid  974
        outer_grid  434
  ################################################################################
  #
  #  Definition of "minimal" basis
  #
  ################################################################################
  #     valence basis states
      valence      2  s   2.
      valence      2  p   2.
  #     ion occupancy
      ion_occ      2  s   1.
      ion_occ      2  p   1.
  ################################################################################
  #
  #  Suggested additional basis functions. For production calculations,
  #  uncomment them one after another (the most important basis functions are
  #  listed first).
  #
  #  Constructed for dimers: 1.0 A, 1.25 A, 1.5 A, 2.0 A, 3.0 A
  #
  ################################################################################
  #  "First tier" - improvements: -1214.57 meV to -155.61 meV
       hydro 2 p 1.7
       hydro 3 d 6
       hydro 2 s 4.9
  #  "Second tier" - improvements: -67.75 meV to -5.23 meV
       hydro 4 f 9.8
       hydro 3 p 5.2
       hydro 3 s 4.3
       hydro 5 g 14.4
       hydro 3 d 6.2
  #  "Third tier" - improvements: -2.43 meV to -0.60 meV
  #     hydro 2 p 5.6
  #     hydro 2 s 1.4
  #     hydro 3 d 4.9
  #     hydro 4 f 11.2
  #  "Fourth tier" - improvements: -0.39 meV to -0.18 meV
  #     hydro 2 p 2.1
  #     hydro 5 g 16.4
  #     hydro 4 d 13.2
  #     hydro 3 s 13.6
  #     hydro 4 f 17.6
  #  Further basis functions - improvements: -0.08 meV and below
  #     hydro 3 s 2
  #     hydro 3 p 6
  #     hydro 4 d 20
  
  ################################################################################
  #
  #  FHI-aims code project
  #  VB, Fritz-Haber Institut, 2009
  #
  #  Suggested "light" defaults for Cl atom (to be pasted into control.in file)
  #  Be sure to double-check any results obtained with these settings for
  #post-processing,
  #  e.g., with the "tight" defaults and larger basis sets.
  #
  ################################################################################
    species        Cl
  #     global species definitions
      nucleus             17
      mass                35.453
  #
      l_hartree           4
  #
      cut_pot             3.5          1.5  1.0
      basis_dep_cutoff    1e-4
  #
      radial_base         45 5.0
      radial_multiplier   1
      angular_grids       specified
        division   0.4412  110
        division   0.5489  194
        division   0.6734  302
  #      division   0.7794  434
  #      division   0.9402  590
  #      division   1.0779  770
  #      division   1.1792  974
  #      outer_grid  974
        outer_grid  302
  ################################################################################
  #
  #  Definition of "minimal" basis
  #
  ################################################################################
  #     valence basis states
      valence      3  s   2.
      valence      3  p   5.
  #     ion occupancy
      ion_occ      3  s   1.
      ion_occ      3  p   4.
  ################################################################################
  #
  #  Suggested additional basis functions. For production calculations,
  #  uncomment them one after another (the most important basis functions are
  #  listed first).
  #
  #  Constructed for dimers: 1.65 A, 2.0 A, 2.5 A, 3.25 A, 4.0 A
  #
  ################################################################################
  #  "First tier" - improvements: -429.57 meV to -15.03 meV
       ionic 3 d auto
       hydro 2 p 1.9
  #     hydro 4 f 7.4
       ionic 3 s auto
  #     hydro 5 g 10.4
  #  "Second tier" - improvements: -7.84 meV to -0.48 meV
  #     hydro 3 d 3.3
  #     hydro 5 f 9.8
  #     hydro 1 s 0.75
  #     hydro 5 g 11.2
  #     hydro 4 p 10.4
  #  "Third tier" - improvements: -1.00 meV to -0.12 meV
  #     hydro 4 d 12.8
  #     hydro 4 f 4.6
  #     hydro 4 d 10.8
  #     hydro 2 s 1.8
  #     hydro 3 p 3
  #  Further functions that fell out - improvements: -0.10 meV and below
  #     hydro 5 f 14.4
  #     hydro 4 s 12.8
  #     hydro 3 d 11.6
  #     hydro 4 s 4.1
  
  -----------------------------------------------------------------------
  Completed first pass over input file control.in .
  -----------------------------------------------------------------------
  
  
  -----------------------------------------------------------------------
  Parsing geometry.in (first pass over file, find array dimensions only).
  The contents of geometry.in will be repeated verbatim below
  unless switched off by setting 'verbatim_writeout .false.' .
  in the first line of geometry.in .
  -----------------------------------------------------------------------
  
  #=======================================#
  # iterations/iteration0044/aims-chain-node-0.57143/geometry.in
  #=======================================#
  atom 0.0000000000000000 0.0000000000000000 0.0000000000000000 Cl
  constrain_relaxation .true.
  atom 2.3286561601034022 0.0000000000000000 -0.0000000000024031 C
  constrain_relaxation y
  atom 4.6698311930663330 0.0000000000000000 0.0000000000021455 Cl
  constrain_relaxation y
  atom 2.3334442175063921 1.0770257410628878 -0.0000000000022569 H
  atom 2.3335130208920156 -0.5385599211574710 0.9327205759722268 H
  atom 2.3335130209025428 -0.5385599211570015 -0.9327205759759257 H
  
  -----------------------------------------------------------------------
  Completed first pass over input file geometry.in .
  -----------------------------------------------------------------------
  

  Basic array size parameters:
  | Number of species                 :        3
  | Number of atoms                   :        6
  | Max. basis fn. angular momentum   :        4
  | Max. atomic/ionic basis occupied n:        3
  | Max. number of basis fn. types    :        3
  | Max. radial fns per species/type  :        8
  | Max. logarithmic grid size        :     1362
  | Max. radial integration grid size :       69
  | Max. angular integration grid size:      434
  | Max. angular grid division number :        8
  | Radial grid for Hartree potential :     1362
  | Number of spin channels           :        1

------------------------------------------------------------
          Reading file control.in.
------------------------------------------------------------
  XC: Using PBE gradient-corrected functionals.
  Charged system requested: Charge =  -0.100000E+01.
  Scalar relativistic treatment of kinetic energy: on-site free-atom approximation to ZORA.
  Convergence accuracy of self-consistent charge density:  0.1000E-04
  Convergence accuracy of sum of eigenvalues:  0.1000E-02
  Convergence accuracy of total energy:  0.1000E-05
  Maximum number of s.-c. iterations  :  1000
  Forces will be computed.
  Cleaning forces before final output.
 
  Reading configuration options for species H                   .
  | Found nuclear charge :   1.0000
  | Found atomic mass :    1.00794000000000      amu
  | Found l_max for Hartree potential  :   6
  | Found cutoff potl. onset [A], width [A], scale factor :    4.00000    2.00000    1.00000
  | Threshold for basis-dependent cutoff potential is   0.100000E-03
  | Found data for basic radial integration grid :    24 points, outermost radius =    7.000 A
  | Found multiplier for basic radial grid :   2
  | Found angular grid specification: user-specified.
  | Specified grid contains     6 separate shells.
  | Check grid settings after all constraints further below.
  | Found free-atom valence shell :  1 s   1.000
  | Found free-ion valence shell :  1 s   0.500
  | Found hydrogenic basis function :  2 s   2.100
  | Found hydrogenic basis function :  2 p   3.500
  | Found hydrogenic basis function :  1 s   0.850
  | Found hydrogenic basis function :  2 p   3.700
  | Found hydrogenic basis function :  2 s   1.200
  | Found hydrogenic basis function :  3 d   7.000
  Species H                   : Missing cutoff potential type.
  Defaulting to exp(1/x)/(1-x)^2 type cutoff potential.
  Species H : No 'logarithmic' tag. Using default grid for free atom:
  | Default logarithmic grid data [bohr] : 0.1000E-03 0.1000E+03 0.1012E+01
  Species H : On-site basis accuracy parameter (for Gram-Schmidt orthonormalisation) not specified.
  Using default value basis_acc =  0.1000000E-03.
  Species H                   : Using default innermost maximum threshold i_radial=  2 for radial functions.
  Species H                   : Default cutoff onset for free atom density etc. : 0.40000000E+01 AA.
  Species H                   : Basic radial grid will be enhanced according to radial_multiplier =   2, to contain    49 grid points.
 
  Reading configuration options for species C                   .
  | Found nuclear charge :   6.0000
  | Found atomic mass :    12.0107000000000      amu
  | Found l_max for Hartree potential  :   6
  | Found cutoff potl. onset [A], width [A], scale factor :    4.00000    2.00000    1.00000
  | Threshold for basis-dependent cutoff potential is   0.100000E-03
  | Found data for basic radial integration grid :    34 points, outermost radius =    7.000 A
  | Found multiplier for basic radial grid :   2
  | Found angular grid specification: user-specified.
  | Specified grid contains     6 separate shells.
  | Check grid settings after all constraints further below.
  | Found free-atom valence shell :  2 s   2.000
  | Found free-atom valence shell :  2 p   2.000
  | Found free-ion valence shell :  2 s   1.000
  | Found free-ion valence shell :  2 p   1.000
  | Found hydrogenic basis function :  2 p   1.700
  | Found hydrogenic basis function :  3 d   6.000
  | Found hydrogenic basis function :  2 s   4.900
  | Found hydrogenic basis function :  4 f   9.800
  | Found hydrogenic basis function :  3 p   5.200
  | Found hydrogenic basis function :  3 s   4.300
  | Found hydrogenic basis function :  5 g  14.400
  | Found hydrogenic basis function :  3 d   6.200
  Species C                   : Missing cutoff potential type.
  Defaulting to exp(1/x)/(1-x)^2 type cutoff potential.
  Species C : No 'logarithmic' tag. Using default grid for free atom:
  | Default logarithmic grid data [bohr] : 0.1000E-03 0.1000E+03 0.1012E+01
  Species C : On-site basis accuracy parameter (for Gram-Schmidt orthonormalisation) not specified.
  Using default value basis_acc =  0.1000000E-03.
  Species C                   : Using default innermost maximum threshold i_radial=  2 for radial functions.
  Species C                   : Default cutoff onset for free atom density etc. : 0.40000000E+01 AA.
  Species C                   : Basic radial grid will be enhanced according to radial_multiplier =   2, to contain    69 grid points.
 
  Reading configuration options for species Cl                  .
  | Found nuclear charge :  17.0000
  | Found atomic mass :    35.4530000000000      amu
  | Found l_max for Hartree potential  :   4
  | Found cutoff potl. onset [A], width [A], scale factor :    3.50000    1.50000    1.00000
  | Threshold for basis-dependent cutoff potential is   0.100000E-03
  | Found data for basic radial integration grid :    45 points, outermost radius =    5.000 A
  | Found multiplier for basic radial grid :   1
  | Found angular grid specification: user-specified.
  | Specified grid contains     4 separate shells.
  | Check grid settings after all constraints further below.
  | Found free-atom valence shell :  3 s   2.000
  | Found free-atom valence shell :  3 p   5.000
  | Found free-ion valence shell :  3 s   1.000
  | Found free-ion valence shell :  3 p   4.000
  | Found ionic basis function :  3 d , default cutoff radius.
  | Found hydrogenic basis function :  2 p   1.900
  | Found ionic basis function :  3 s , default cutoff radius.
  Species Cl                  : Missing cutoff potential type.
  Defaulting to exp(1/x)/(1-x)^2 type cutoff potential.
  Species Cl: No 'logarithmic' tag. Using default grid for free atom:
  | Default logarithmic grid data [bohr] : 0.1000E-03 0.1000E+03 0.1012E+01
  | Will include ionic basis functions of  2.0-fold positive Cl                   ion.
  Species Cl: On-site basis accuracy parameter (for Gram-Schmidt orthonormalisation) not specified.
  Using default value basis_acc =  0.1000000E-03.
  Species Cl                  : Using default innermost maximum threshold i_radial=  2 for radial functions.
  Species Cl                  : Default cutoff onset for free atom density etc. : 0.35000000E+01 AA.
  Species Cl                  : Basic radial grid will be enhanced according to radial_multiplier =   1, to contain    45 grid points.
 
  Finished reading input file 'control.in'. Consistency checks are next.
 
  MPI_IN_PLACE appears to work with this MPI implementation.
  | Keeping use_mpi_in_place .true. (see manual).
  Target number of points in a grid batch is not set. Defaulting to  100
  Method for grid partitioning is not set. Defaulting to parallel hash+maxmin partitioning.
  Batch size limit is not set. Defaulting to    200
  By default, will store active basis functions for each batch.
  If in need of memory, prune_basis_once .false. can be used to disable this option.
  communication_type for Hartree potential was not specified.
  Defaulting to calc_hartree .
  Defaulting to Pulay charge density mixer.
  Pulay mixer: Number of relevant iterations not set.
  Defaulting to    8 iterations.
  Pulay mixer: Number of initial linear mixing iterations not set.
  Defaulting to    0 iterations.
  Work space size for distributed Hartree potential not set.
  Defaulting to   0.200000E+03 MB.
  Mixing parameter for charge density mixing has not been set.
  Using default: charge_mix_param =     0.0500.
  The mixing parameter will be adjusted in iteration number     2 of the first full s.c.f. cycle only.
  Algorithm-dependent basis array size parameters:
  | n_max_pulay                         :        8
  Presetting        40 iterations before the initial mixing cycle
  is restarted anyway using the sc_init_iter criterion / keyword.
  Presetting a factor      1.000 between actual scf density residual
  and density convergence criterion sc_accuracy_rho below which sc_init_iter
  takes no effect.
  Geometry relaxation not requested: no relaxation will be performed.
  Force calculation: scf convergence accuracy of forces not set.
  Defaulting to 'sc_accuracy_forces not_checked'.
  Handling of forces: Unphysical translation and rotation will be removed from forces.
  No accuracy limit for integral partition fn. given. Defaulting to  0.1000E-14.
  No threshold value for u(r) in integrations given. Defaulting to  0.1000E-05.
  No occupation type (smearing scheme) given. Defaulting to Gaussian broadening, width =  0.1000E-01 eV.
  The width will be adjusted in iteration number     2 of the first full s.c.f. cycle only.
  S.C.F. convergence parameters will be adjusted in iteration number     2 of the first full s.c.f. cycle only.
  No accuracy for occupation numbers given. Defaulting to  0.1000E-12.
  No threshold value for occupation numbers given. Defaulting to  0.0000E+00.
  No accuracy for fermi level given. Defaulting to  0.1000E-19.
  Maximum # of iterations to find E_F not set. Defaulting to  200.
  Preferred method for the eigenvalue solver ('KS_method') not specified in 'control.in'.
  Calling BLACS routine to test compilation state
  The best choice would be 'elsi', but your version of FHI-aims is compiled without ScaLAPACK support.
  Defaulting to 'lapack_fast' instead (serial solution, time will not improve with more CPUs).
  Will not use alltoall communication since running on < 1024 CPUs.
  Threshold for basis singularities not set.
  Default threshold for basis singularities:  0.1000E-04
  partition_type (choice of integration weights) for integrals was not specified.
  | Using a version of the partition function of Stratmann and coworkers ('stratmann_smoother').
  | At each grid point, the set of atoms used to build the partition table is smoothly restricted to
  | only those atoms whose free-atom density would be non-zero at that grid point.
  Partitioning for Hartree potential was not defined. Using partition_type for integrals.
  | Adjusted default value of keyword multip_moments_threshold to:       0.10000000E-11
  | This value may affect high angular momentum components of the Hartree potential in periodic systems.
  Spin handling was not defined in control.in. Defaulting to unpolarized case.
  No q(lm)/r^(l+1) cutoff set for long-range Hartree potential.
  | Using default value of  0.100000E-09 .
  | Verify using the multipole_threshold keyword.
  Defaulting to new monopole extrapolation.
  Density update method: automatic selection selected.
------------------------------------------------------------


------------------------------------------------------------
          Reading geometry description geometry.in.
------------------------------------------------------------
 No relaxation requested - ignoring relaxation constraint.
 No relaxation requested - ignoring relaxation constraint.
 No relaxation requested - ignoring relaxation constraint.
 * Warning: Initial charge and total charge of the system are inconsistent.
 * Selected charge in control.in:    -1.0000* Sum of initial charges in geometry.in:     0.0000
  Input structure read successfully.
  The structure contains        6 atoms,  and a total of         44.000 electrons.

  Input geometry:
  | No unit cell requested.
  | Atomic structure:
  |       Atom                x [A]            y [A]            z [A]
  |    1: Species Cl            0.00000000        0.00000000        0.00000000
  |    2: Species C             2.32865616        0.00000000       -0.00000000
  |    3: Species Cl            4.66983119        0.00000000        0.00000000
  |    4: Species H             2.33344422        1.07702574       -0.00000000
  |    5: Species H             2.33351302       -0.53855992        0.93272058
  |    6: Species H             2.33351302       -0.53855992       -0.93272058
  |

  | The smallest distance between any two atoms is         1.07703638 AA.
  |
  | The first atom of this pair is atom number                      2 .
  | The second atom of this pair is atom number                     4 .

  Number of empty states per atom not set in control.in - providing a guess from actual geometry.
  | Total number of empty states used during s.c.f. cycle:       14
  If you use a very high smearing, use empty_states (per atom!) in control.in to increase this value.

  Structure-dependent array size parameters: 
  | Maximum number of distinct radial functions  :       26
  | Maximum number of basis functions            :      120
  | Number of Kohn-Sham states (occupied + empty):       36
------------------------------------------------------------

------------------------------------------------------------
          Preparing all fixed parts of the calculation.
------------------------------------------------------------
  Determining machine precision:
    2.225073858507201E-308
  Setting up grids for atomic and cluster calculations.

  Creating wave function, potential, and density for free atoms.

  Species: H

  List of occupied orbitals and eigenvalues:
    n    l              occ      energy [Ha]    energy [eV]
    1    0           1.0000        -0.238386        -6.4868


  Species: C

  List of occupied orbitals and eigenvalues:
    n    l              occ      energy [Ha]    energy [eV]
    1    0           2.0000       -10.049212      -273.4530
    2    0           2.0000        -0.504761       -13.7352
    2    1           2.0000        -0.193631        -5.2690


  Species: Cl

  List of occupied orbitals and eigenvalues:
    n    l              occ      energy [Ha]    energy [eV]
    1    0           2.0000      -101.451673     -2760.6405
    2    0           2.0000        -9.288282      -252.7470
    3    0           2.0000        -0.759332       -20.6625
    2    1           6.0000        -7.042657      -191.6405
    3    1           5.0000        -0.314806        -8.5663

  Creating fixed part of basis set: Ionic, confined, hydrogenic.
 
  H                    hydrogenic:
 
  List of hydrogenic basis orbitals: 
    n    l      effective z      eigenvalue [eV]  inner max. [A]     outer max. [A]     outer radius [A]   
    2    0         2.100000       -14.9965           0.193243           1.317208           5.373006
    2    1         3.500000       -41.6672           0.602369           0.602369           4.056063
    1    0         0.850000        -9.8292           0.624871           0.624871           5.373006
    2    1         3.700000       -46.5653           0.573622           0.573622           3.910002
    2    0         1.200000        -4.5995           0.334980           2.228188           5.505995
    3    2         7.000000       -74.0753           0.680699           0.680699           3.769201
 
 
  C                    hydrogenic:
 
  List of hydrogenic basis orbitals: 
    n    l      effective z      eigenvalue [eV]  inner max. [A]     outer max. [A]     outer radius [A]   
    2    1         1.700000        -9.8152           1.245706           1.245706           5.401630
    3    2         6.000000       -54.4226           0.792453           0.792453           4.178599
    2    0         4.900000       -81.6681           0.082559           0.562749           3.353238
    4    3         9.800000       -81.6681           0.863254           0.863254           4.028125
    3    1         5.200000       -40.8774           0.305389           1.215618           4.898362
    3    0         4.300000       -27.9508           0.091041           1.610311           5.401630
    5    4        14.400000      -112.8510           0.917666           0.917666           3.883070
    3    2         6.200000       -58.1113           0.763917           0.763917           4.077671
 
 
  Cl                   ion:

  List of free ionic orbitals and eigenvalues:
    n    l      energy [Ha]    energy [eV]
    1    0      -102.554413     -2790.6476
    2    0       -10.359555      -281.8978
    3    0        -1.672516       -45.5115
    2    1        -8.116241      -220.8542
    3    1        -1.184158       -32.2226


  List of ionic basis orbitals and eigenvalues:
    n    l      energy [Ha]    energy [eV]    outer radius [A]
    3    2        -0.527851       -14.3636       4.541334
    3    0        -1.672502       -45.5111       3.428237

 
  Cl                   hydrogenic:
 
  List of hydrogenic basis orbitals: 
    n    l      effective z      eigenvalue [eV]  inner max. [A]     outer max. [A]     outer radius [A]   
    2    1         1.900000       -12.2492           1.113321           1.113321           4.597192
 

  Adding cutoff potential to free-atom effective potential.
  Creating atomic-like basis functions for current effective potential.

  Species H                   :

  List of atomic basis orbitals and eigenvalues:
    n    l      energy [Ha]    energy [eV]    outer radius [A]
    1    0        -0.238386        -6.4868       5.373006


  Species C                   :

  List of atomic basis orbitals and eigenvalues:
    n    l      energy [Ha]    energy [eV]    outer radius [A]
    1    0       -10.049212      -273.4530       1.934409
    2    0        -0.504761       -13.7352       5.271162
    2    1        -0.193631        -5.2690       5.401630


  Species Cl                  :

  List of atomic basis orbitals and eigenvalues:
    n    l      energy [Ha]    energy [eV]    outer radius [A]
    1    0      -101.451673     -2760.6405       0.642251
    2    0        -9.288282      -252.7470       2.102331
    3    0        -0.759332       -20.6625       4.431645
    2    1        -7.042657      -191.6405       2.346844
    3    1        -0.314806        -8.5663       4.541334

  Assembling full basis from fixed parts.
  | Species H :   atomic orbital   1 s accepted.
  | Species H :    hydro orbital   2 s accepted.
  | Species H :    hydro orbital   1 s accepted.
  | Species H :    hydro orbital   2 s accepted.
  | Species H :    hydro orbital   2 p accepted.
  | Species H :    hydro orbital   2 p accepted.
  | Species H :    hydro orbital   3 d accepted.
  | Species C :   atomic orbital   1 s accepted.
  | Species C :    hydro orbital   2 s accepted.
  | Species C :   atomic orbital   2 s accepted.
  | Species C :    hydro orbital   3 s accepted.
  | Species C :    hydro orbital   3 p accepted.
  | Species C :   atomic orbital   2 p accepted.
  | Species C :    hydro orbital   2 p accepted.
  | Species C :    hydro orbital   3 d accepted.
  | Species C :    hydro orbital   3 d accepted.
  | Species C :    hydro orbital   4 f accepted.
  | Species C :    hydro orbital   5 g accepted.
  | Species Cl :   atomic orbital   1 s accepted.
  | Species Cl :   atomic orbital   2 s accepted.
  | Species Cl :    ionic orbital   3 s accepted.
  | Species Cl :   atomic orbital   3 s accepted.
  | Species Cl :   atomic orbital   2 p accepted.
  | Species Cl :   atomic orbital   3 p accepted.
  | Species Cl :    hydro orbital   2 p accepted.
  | Species Cl :    ionic orbital   3 d accepted.
 
  Basis size parameters after reduction:
  | Total number of radial functions:       26
  | Total number of basis functions :      120
 
  Per-task memory consumption for arrays in subroutine allocate_ext:
  |           9.070220MB.
  Testing on-site integration grid accuracy.
  |  Species  Function  <phi|h_atom|phi> (log., in eV)  <phi|h_atom|phi> (rad., in eV)
           1        1                 -6.4870767962                 -6.4871688290
           1        2                 13.5032046589                 13.5028982997
           1        3                 32.8195184817                 32.8119941656
           1        4                 33.8513856511                 33.7670005767 ***
           1        5                 28.8544614965                 28.8544615203
           1        6                 59.6326952547                 59.6327656460
           1        7                 60.2719308513                 60.2719305949
           2        8               -273.4529726040               -273.4529710510
           2        9                -10.7721037319                -10.7721022091
           2       10                 17.6044132601                 17.6044162068
           2       11                 53.7706460658                 53.7706913775
           2       12                 15.0973290362                 15.0973256023
           2       13                  3.8545134692                  3.8545724671
           2       14                 12.1156992592                 12.1182024429
           2       15                 29.4352039302                 29.4352041819
           2       16                 54.8741144708                 54.8740268730
           2       17                 59.3556032049                 59.3556031384
           2       18                 93.4551837154                 93.4551838010
           3       19              -2760.6404887023              -2760.6391663390
           3       20               -252.7470135404               -252.7470033792
           3       21                -20.4099766545                -20.4099452961
           3       22                  8.9880683035                  8.9931146792
           3       23               -191.6404587283               -191.6404582884
           3       24                 -8.5668684731                 -8.5677140829
           3       25                  8.1442214099                  8.1082388447 ***
           3       26                  7.0580434359                  7.0555511342
 * Note: Onsite integrals marked "***" above are less accurate than
 * onsite_accuracy_threshold =    0.03000 eV. Usually, this is harmless.
 * When in doubt, tighten the "radial" and/or "radial_multiplier" flags to check.

  Preparing densities etc. for the partition functions (integrals / Hartree potential).

  Preparations completed.
  max(cpu_time)          :      0.388 s.
  Wall clock time (cpu1) :      0.397 s.
------------------------------------------------------------

------------------------------------------------------------
          Begin self-consistency loop: Initialization.

          Date     :  20180214, Time     :  162532.376
------------------------------------------------------------

  Initializing index lists of integration centers etc. from given atomic structure:
  | Number of centers in hartree potential         :         6
  | Number of centers in hartree multipole         :         6
  | Number of centers in electron density summation:         6
  | Number of centers in basis integrals           :         6
  | Number of centers in integrals                 :         6
  | Number of centers in hamiltonian               :         6
  Partitioning the integration grid into batches with parallel hashing+maxmin method.
  | Number of batches:      958
  | Maximal batch size:     200
  | Minimal batch size:      49
  | Average batch size:      83.223
  | Standard deviation of batch sizes:      26.068

  Integration load balanced across     8 MPI tasks.
  Work distribution over tasks is as follows:
  Task     0 has      10022 integration points.
  Task     1 has      10001 integration points.
  Task     2 has       9993 integration points.
  Task     3 has       9936 integration points.
  Task     4 has       9911 integration points.
  Task     5 has       9932 integration points.
  Task     6 has       9937 integration points.
  Task     7 has       9996 integration points.
  Initializing partition tables, free-atom densities, potentials, etc. across the integration grid (initialize_grid_storage).
  | initialize_grid_storage: Actual outermost partition radius vs. multipole_radius_free
  | (-- VB: in principle, multipole_radius_free should be larger, hence this output)
  | Species        1: Confinement radius =              6.000000000000000 AA, multipole_radius_free =              6.071692442739658 AA.
  | Species        1: outer_partition_radius set to              6.071692442739658 AA .
  | Species        2: Confinement radius =              6.000000000000000 AA, multipole_radius_free =              6.029870734432609 AA.
  | Species        2: outer_partition_radius set to              6.029870734432609 AA .
  | Species        3: Confinement radius =              4.999999999999999 AA, multipole_radius_free =              5.007919576009533 AA.
  | Species        3: outer_partition_radius set to              5.007919576009533 AA .
  | Original list of interatomic distances with           6 x          6 entries is created.
  | Net number of integration points:    79728
  | of which are non-zero points    :    69202
  Renormalizing the initial density to the exact electron count on the 3D integration grid.
  | Initial density: Formal number of electrons (from input files) :      43.0000000000
  | Integrated number of electrons on 3D grid     :      42.9999451426
  | Charge integration error                      :      -0.0000548574
  | Normalization factor for density and gradient :       1.0000012758
  Obtaining max. number of non-zero basis functions in each batch (get_n_compute_maxes).
  | Maximal number of non-zero basis functions:      118 in task     0
  | Maximal number of non-zero basis functions:      118 in task     1
  | Maximal number of non-zero basis functions:      118 in task     2
  | Maximal number of non-zero basis functions:      118 in task     3
  | Maximal number of non-zero basis functions:      118 in task     4
  | Maximal number of non-zero basis functions:      118 in task     5
  | Maximal number of non-zero basis functions:      118 in task     6
  | Maximal number of non-zero basis functions:      118 in task     7
  Selecting the method for density update.
  Loop over occupied states selected for charge density update.
  Allocating        0.035 MB for KS_eigenvector
  Integrating Hamiltonian matrix: batch-based integration.
  Time summed over all CPUs for integration: real work        1.979 s, elapsed        2.034 s
  Integrating overlap matrix.
  Time summed over all CPUs for integration: real work        0.751 s, elapsed        0.769 s

  Updating Kohn-Sham eigenvalues, eigenvectors, occupation numbers, and Fermi level.
  Solving generalized eigenproblem
  Updating Kohn-Sham eigenvalues and eigenfunctions.
  Transforming overlap matrix and checking for singularities.
  Overlap matrix is nonsingular:
  | Lowest eigenvalue:  0.195816E-03
  Solving real generalised eigenvalue problem by standard LAPACK (fast)

  Obtaining occupation numbers and chemical potential using ELSI.
  | Chemical potential (Fermi level):    -6.69848320eV
  Writing Kohn-Sham eigenvalues.

  State    Occupation    Eigenvalue [Ha]    Eigenvalue [eV]
      1       2.00000        -101.453834        -2760.69929
      2       2.00000        -101.453767        -2760.69746
      3       2.00000         -10.162722         -276.54174
      4       2.00000          -9.290694         -252.81265
      5       2.00000          -9.290619         -252.81061
      6       2.00000          -7.045252         -191.71107
      7       2.00000          -7.045171         -191.70886
      8       2.00000          -7.044933         -191.70239
      9       2.00000          -7.044933         -191.70239
     10       2.00000          -7.044863         -191.70048
     11       2.00000          -7.044863         -191.70048
     12       2.00000          -0.816320          -22.21320
     13       2.00000          -0.770957          -20.97881
     14       2.00000          -0.737761          -20.07549
     15       2.00000          -0.544739          -14.82310
     16       2.00000          -0.544722          -14.82264
     17       2.00000          -0.406285          -11.05556
     18       2.00000          -0.321770           -8.75581
     19       2.00000          -0.321770           -8.75581
     20       2.00000          -0.316150           -8.60287
     21       2.00000          -0.316149           -8.60286
     22       2.00000          -0.312394           -8.50067
     23       0.00000          -0.188717           -5.13524
     24       0.00000          -0.047775           -1.30003
     25       0.00000           0.008461            0.23024
     26       0.00000           0.008463            0.23030
     27       0.00000           0.057450            1.56331
     28       0.00000           0.057458            1.56351
     29       0.00000           0.112725            3.06740
     30       0.00000           0.119398            3.24900
     31       0.00000           0.174775            4.75587
     32       0.00000           0.174798            4.75649
     33       0.00000           0.183141            4.98351
     34       0.00000           0.183143            4.98358
     35       0.00000           0.241274            6.56541
     36       0.00000           0.250438            6.81477

  Highest occupied state (VBM) at     -8.50066543 eV
  | Occupation number:      2.00000000

  Lowest unoccupied state (CBM) at    -5.13524265 eV
  | Occupation number:      0.00000000

  Overall HOMO-LUMO gap:      3.36542278 eV.
  Calculating total energy contributions from superposition of free atom densities.

  Total energy components:
  | Sum of eigenvalues            :        -558.66133876 Ha      -15201.94849437 eV
  | XC energy correction          :         -62.44032784 Ha       -1699.08776922 eV
  | XC potential correction       :          80.67078648 Ha        2195.16378892 eV
  | Free-atom electrostatic energy:        -424.31121514 Ha      -11546.09562289 eV
  | Hartree energy correction     :           0.00000000 Ha           0.00000000 eV
  | vdW energy correction         :           0.00000000 Ha           0.00000000 eV
  | Entropy correction            :           0.00000000 Ha           0.00000000 eV
  | ---------------------------
  | Total energy                  :        -964.74209526 Ha      -26251.96809756 eV
  | Total energy, T -> 0          :        -964.74209526 Ha      -26251.96809756 eV  <-- do not rely on this value for anything but (periodic) metals
  | Electronic free energy        :        -964.74209526 Ha      -26251.96809756 eV

  Derived energy quantities:
  | Kinetic energy                :         967.20332260 Ha       26318.94150103 eV
  | Electrostatic energy          :       -1869.50509002 Ha      -50871.82182937 eV
  | Energy correction for multipole
  | error in Hartree potential    :           0.00000000 Ha           0.00000000 eV
  | Sum of eigenvalues per atom                           :       -2533.65808240 eV
  | Total energy (T->0) per atom                          :       -4375.32801626 eV  <-- do not rely on this value for anything but (periodic) metals
  | Electronic free energy per atom                       :       -4375.32801626 eV
  Initialize hartree_potential_storage
  Max. number of atoms included in rho_multipole:            6

  End scf initialization - timings             :  max(cpu_time)    wall_clock(cpu1)
  | Time for scf. initialization               :        0.568 s           0.570 s
  | Boundary condition initialization          :        0.000 s           0.000 s
  | Integration                                :        0.356 s           0.354 s
  | Solution of K.-S. eqns.                    :        0.016 s           0.016 s
  | Grid partitioning                          :        0.080 s           0.082 s
  | Preloading free-atom quantities on grid    :        0.024 s           0.022 s
  | Free-atom superposition energy             :        0.024 s           0.021 s
  | Total energy evaluation                    :        0.004 s           0.001 s

  Partial memory accounting:
  | Current value for overall tracked memory usage on task 0  :           0.267 MB
  | Peak value for overall tracked memory usage on task 0     :           0.832 MB after allocating wave
  | Largest tracked array allocation on task 0 so far         :           0.189 MB  when allocating H_times_psi
  Note:  These values currently only include a subset of arrays which are explicitly tracked.
  The "true" memory usage will be greater.
------------------------------------------------------------

------------------------------------------------------------
          Begin self-consistency iteration #    1

  Date     :  20180214, Time     :  162532.947
------------------------------------------------------------
  Evaluating new KS density.
  Integration grid: deviation in total charge (<rho> - N_e) =   7.105427E-15
  Pulay mixing of updated and previous charge densities.

  Evaluating partitioned Hartree potential by multipole expansion.
  | Analytical far-field extrapolation by fixed multipoles:
  | Hartree multipole sum: apparent total charge =  -0.500541E-01
  Summing up the Hartree potential.
  Time summed over all CPUs for potential: real work        1.291 s, elapsed        1.369 s
  | RMS charge density error from multipole expansion :   0.210844E-03

  Integrating Hamiltonian matrix: batch-based integration.
  Time summed over all CPUs for integration: real work        1.982 s, elapsed        2.018 s

  Updating Kohn-Sham eigenvalues, eigenvectors, occupation numbers, and Fermi level.
  Solving generalized eigenproblem
  Updating Kohn-Sham eigenvalues and eigenfunctions.
  Solving real generalised eigenvalue problem by standard LAPACK (fast)

  Obtaining occupation numbers and chemical potential using ELSI.
  | Chemical potential (Fermi level):    -6.28790379eV
  Writing Kohn-Sham eigenvalues.

  State    Occupation    Eigenvalue [Ha]    Eigenvalue [eV]
      1       2.00000        -101.431535        -2760.09250
      2       2.00000        -101.430824        -2760.07315
      3       2.00000         -10.124383         -275.49847
      4       2.00000          -9.269956         -252.24835
      5       2.00000          -9.269309         -252.23073
      6       2.00000          -7.024637         -191.15011
      7       2.00000          -7.023963         -191.13176
      8       2.00000          -7.023905         -191.13018
      9       2.00000          -7.023905         -191.13018
     10       2.00000          -7.023262         -191.11267
     11       2.00000          -7.023262         -191.11267
     12       2.00000          -0.794480          -21.61889
     13       2.00000          -0.753730          -20.51004
     14       2.00000          -0.717840          -19.53342
     15       2.00000          -0.521238          -14.18360
     16       2.00000          -0.521221          -14.18314
     17       2.00000          -0.386589          -10.51962
     18       2.00000          -0.305709           -8.31876
     19       2.00000          -0.305709           -8.31875
     20       2.00000          -0.299901           -8.16071
     21       2.00000          -0.299900           -8.16071
     22       2.00000          -0.295951           -8.05322
     23       0.00000          -0.167087           -4.54667
     24       0.00000          -0.035373           -0.96254
     25       0.00000           0.020497            0.55776
     26       0.00000           0.020501            0.55786
     27       0.00000           0.070066            1.90659
     28       0.00000           0.070074            1.90682
     29       0.00000           0.124384            3.38467
     30       0.00000           0.132052            3.59333
     31       0.00000           0.187888            5.11268
     32       0.00000           0.187911            5.11331
     33       0.00000           0.198952            5.41375
     34       0.00000           0.198954            5.41382
     35       0.00000           0.255114            6.94201
     36       0.00000           0.265491            7.22439

  Highest occupied state (VBM) at     -8.05322336 eV
  | Occupation number:      2.00000000

  Lowest unoccupied state (CBM) at    -4.54667326 eV
  | Occupation number:      0.00000000

  Overall HOMO-LUMO gap:      3.50655010 eV.

  Total energy components:
  | Sum of eigenvalues            :        -557.74241206 Ha      -15176.94322649 eV
  | XC energy correction          :         -62.48839304 Ha       -1700.39568991 eV
  | XC potential correction       :          80.73342183 Ha        2196.86818330 eV
  | Free-atom electrostatic energy:        -424.31121514 Ha      -11546.09562289 eV
  | Hartree energy correction     :          -0.90411041 Ha         -24.60209596 eV
  | vdW energy correction         :           0.00000000 Ha           0.00000000 eV
  | Entropy correction            :           0.00000000 Ha           0.00000000 eV
  | ---------------------------
  | Total energy                  :        -964.71270883 Ha      -26251.16845195 eV
  | Total energy, T -> 0          :        -964.71270883 Ha      -26251.16845195 eV  <-- do not rely on this value for anything but (periodic) metals
  | Electronic free energy        :        -964.71270883 Ha      -26251.16845195 eV

  Derived energy quantities:
  | Kinetic energy                :         967.45858240 Ha       26325.88747344 eV
  | Electrostatic energy          :       -1869.68289818 Ha      -50876.66023549 eV
  | Energy correction for multipole
  | error in Hartree potential    :          -0.00014798 Ha          -0.00402675 eV
  | Sum of eigenvalues per atom                           :       -2529.49053775 eV
  | Total energy (T->0) per atom                          :       -4375.19474199 eV  <-- do not rely on this value for anything but (periodic) metals
  | Electronic free energy per atom                       :       -4375.19474199 eV

  Self-consistency convergence accuracy:
  | Change of charge density      :  0.3117E+00
  | Change of sum of eigenvalues  :  0.2501E+02 eV
  | Change of total energy        :  0.7996E+00 eV

  End self-consistency iteration #     1       :  max(cpu_time)    wall_clock(cpu1)
  | Time for this iteration                    :        0.744 s           0.742 s
  | Charge density update                      :        0.280 s           0.279 s
  | Density mixing                             :        0.004 s           0.002 s
  | Hartree multipole update                   :        0.028 s           0.028 s
  | Hartree multipole summation                :        0.176 s           0.174 s
  | Integration                                :        0.256 s           0.253 s
  | Solution of K.-S. eqns.                    :        0.004 s           0.003 s
  | Total energy evaluation                    :        0.000 s           0.001 s

  Partial memory accounting:
  | Current value for overall tracked memory usage on task 0  :           0.267 MB
  | Peak value for overall tracked memory usage on task 0     :           1.022 MB after allocating gradient_basis_wave
  | Largest tracked array allocation on task 0 so far         :           0.566 MB  when allocating gradient_basis_wave
  Note:  These values currently only include a subset of arrays which are explicitly tracked.
  The "true" memory usage will be greater.
------------------------------------------------------------

------------------------------------------------------------
          Begin self-consistency iteration #    2

  Date     :  20180214, Time     :  162533.690
------------------------------------------------------------
  Evaluating new KS density.
  Integration grid: deviation in total charge (<rho> - N_e) =   2.131628E-14
  Pulay mixing of updated and previous charge densities.

  Evaluating partitioned Hartree potential by multipole expansion.
  | Analytical far-field extrapolation by fixed multipoles:
  | Hartree multipole sum: apparent total charge =  -0.436413E+00
  Summing up the Hartree potential.
  Time summed over all CPUs for potential: real work        1.319 s, elapsed        1.376 s
  | RMS charge density error from multipole expansion :   0.184388E-02

  Integrating Hamiltonian matrix: batch-based integration.
  Time summed over all CPUs for integration: real work        1.973 s, elapsed        1.990 s

  Updating Kohn-Sham eigenvalues, eigenvectors, occupation numbers, and Fermi level.
  Solving generalized eigenproblem
  Updating Kohn-Sham eigenvalues and eigenfunctions.
  Solving real generalised eigenvalue problem by standard LAPACK (fast)

  Obtaining occupation numbers and chemical potential using ELSI.
  | Chemical potential (Fermi level):    -0.45866017eV
  Highest occupied state (VBM) at     -4.66303369 eV
  | Occupation number:      2.00000000

  Lowest unoccupied state (CBM) at    -0.16425741 eV
  | Occupation number:      0.00000000

  Overall HOMO-LUMO gap:      4.49877628 eV.

  Checking to see if s.c.f. parameters should be adjusted.
  The system likely has a gap. Increased the default Pulay mixing parameter (charge_mix_param). Value:   0.200000 .
  Kept the default occupation width. Value:   0.010000 eV.

  Total energy components:
  | Sum of eigenvalues            :        -550.88887559 Ha      -14990.44901051 eV
  | XC energy correction          :         -62.85551079 Ha       -1710.38547192 eV
  | XC potential correction       :          81.21151049 Ha        2209.87763775 eV
  | Free-atom electrostatic energy:        -424.31121514 Ha      -11546.09562289 eV
  | Hartree energy correction     :          -7.73581403 Ha        -210.50220997 eV
  | vdW energy correction         :           0.00000000 Ha           0.00000000 eV
  | Entropy correction            :           0.00000000 Ha           0.00000000 eV
  | ---------------------------
  | Total energy                  :        -964.57990506 Ha      -26247.55467754 eV
  | Total energy, T -> 0          :        -964.57990506 Ha      -26247.55467754 eV  <-- do not rely on this value for anything but (periodic) metals
  | Electronic free energy        :        -964.57990506 Ha      -26247.55467754 eV

  Derived energy quantities:
  | Kinetic energy                :         969.15099697 Ha       26371.94041702 eV
  | Electrostatic energy          :       -1870.87539124 Ha      -50909.10962265 eV
  | Energy correction for multipole
  | error in Hartree potential    :          -0.00125713 Ha          -0.03420825 eV
  | Sum of eigenvalues per atom                           :       -2498.40816842 eV
  | Total energy (T->0) per atom                          :       -4374.59244626 eV  <-- do not rely on this value for anything but (periodic) metals
  | Electronic free energy per atom                       :       -4374.59244626 eV

  Self-consistency convergence accuracy:
  | Change of charge density      :  0.2864E+00
  | Change of sum of eigenvalues  :  0.1865E+03 eV
  | Change of total energy        :  0.3614E+01 eV

  End self-consistency iteration #     2       :  max(cpu_time)    wall_clock(cpu1)
  | Time for this iteration                    :        0.704 s           0.704 s
  | Charge density update                      :        0.256 s           0.256 s
  | Density mixing                             :        0.004 s           0.004 s
  | Hartree multipole update                   :        0.016 s           0.016 s
  | Hartree multipole summation                :        0.172 s           0.173 s
  | Integration                                :        0.252 s           0.250 s
  | Solution of K.-S. eqns.                    :        0.004 s           0.003 s
  | Total energy evaluation                    :        0.004 s           0.001 s

  Partial memory accounting:
  | Current value for overall tracked memory usage on task 0  :           0.268 MB
  | Peak value for overall tracked memory usage on task 0     :           1.022 MB after allocating gradient_basis_wave
  | Largest tracked array allocation on task 0 so far         :           0.566 MB  when allocating gradient_basis_wave
  Note:  These values currently only include a subset of arrays which are explicitly tracked.
  The "true" memory usage will be greater.
------------------------------------------------------------

------------------------------------------------------------
          Begin self-consistency iteration #    3

  Date     :  20180214, Time     :  162534.395
------------------------------------------------------------
  Evaluating new KS density.
  Integration grid: deviation in total charge (<rho> - N_e) =   7.105427E-15
  Pulay mixing of updated and previous charge densities.

  Evaluating partitioned Hartree potential by multipole expansion.
  | Analytical far-field extrapolation by fixed multipoles:
  | Hartree multipole sum: apparent total charge =  -0.688120E+00
  Summing up the Hartree potential.
  Time summed over all CPUs for potential: real work        1.335 s, elapsed        1.421 s
  | RMS charge density error from multipole expansion :   0.295465E-02

  Integrating Hamiltonian matrix: batch-based integration.
  Time summed over all CPUs for integration: real work        2.058 s, elapsed        2.777 s => Consider using load balancing!

  Updating Kohn-Sham eigenvalues, eigenvectors, occupation numbers, and Fermi level.
  Solving generalized eigenproblem
  Updating Kohn-Sham eigenvalues and eigenfunctions.
  Solving real generalised eigenvalue problem by standard LAPACK (fast)

  Obtaining occupation numbers and chemical potential using ELSI.
  | Chemical potential (Fermi level):     1.09196024eV
  Highest occupied state (VBM) at     -3.07995105 eV
  | Occupation number:      2.00000000

  Lowest unoccupied state (CBM) at     1.37211395 eV
  | Occupation number:      0.00000000

  Overall HOMO-LUMO gap:      4.45206500 eV.

  Total energy components:
  | Sum of eigenvalues            :        -548.29362448 Ha      -14919.82863452 eV
  | XC energy correction          :         -62.96399637 Ha       -1713.33751491 eV
  | XC potential correction       :          81.35143214 Ha        2213.68509948 eV
  | Free-atom electrostatic energy:        -424.31121514 Ha      -11546.09562289 eV
  | Hartree energy correction     :         -10.33366969 Ha        -281.19345927 eV
  | vdW energy correction         :           0.00000000 Ha           0.00000000 eV
  | Entropy correction            :           0.00000000 Ha           0.00000000 eV
  | ---------------------------
  | Total energy                  :        -964.55107354 Ha      -26246.77013211 eV
  | Total energy, T -> 0          :        -964.55107354 Ha      -26246.77013211 eV  <-- do not rely on this value for anything but (periodic) metals
  | Electronic free energy        :        -964.55107354 Ha      -26246.77013211 eV

  Derived energy quantities:
  | Kinetic energy                :         969.10154317 Ha       26370.59471069 eV
  | Electrostatic energy          :       -1870.68862034 Ha      -50904.02732789 eV
  | Energy correction for multipole
  | error in Hartree potential    :          -0.00184310 Ha          -0.05015337 eV
  | Sum of eigenvalues per atom                           :       -2486.63810575 eV
  | Total energy (T->0) per atom                          :       -4374.46168869 eV  <-- do not rely on this value for anything but (periodic) metals
  | Electronic free energy per atom                       :       -4374.46168869 eV

  Self-consistency convergence accuracy:
  | Change of charge density      :  0.1536E+00
  | Change of sum of eigenvalues  :  0.7062E+02 eV
  | Change of total energy        :  0.7845E+00 eV

  End self-consistency iteration #     3       :  max(cpu_time)    wall_clock(cpu1)
  | Time for this iteration                    :        0.812 s           0.814 s
  | Charge density update                      :        0.260 s           0.259 s
  | Density mixing                             :        0.008 s           0.006 s
  | Hartree multipole update                   :        0.020 s           0.017 s
  | Hartree multipole summation                :        0.180 s           0.179 s
  | Integration                                :        0.348 s           0.348 s
  | Solution of K.-S. eqns.                    :        0.004 s           0.003 s
  | Total energy evaluation                    :        0.000 s           0.001 s

  Partial memory accounting:
  | Current value for overall tracked memory usage on task 0  :           0.268 MB
  | Peak value for overall tracked memory usage on task 0     :           1.023 MB after allocating gradient_basis_wave
  | Largest tracked array allocation on task 0 so far         :           0.566 MB  when allocating gradient_basis_wave
  Note:  These values currently only include a subset of arrays which are explicitly tracked.
  The "true" memory usage will be greater.
------------------------------------------------------------

------------------------------------------------------------
          Begin self-consistency iteration #    4

  Date     :  20180214, Time     :  162535.210
------------------------------------------------------------
  Evaluating new KS density.
  Integration grid: deviation in total charge (<rho> - N_e) =   1.421085E-14
  Pulay mixing of updated and previous charge densities.

  Evaluating partitioned Hartree potential by multipole expansion.
  | Analytical far-field extrapolation by fixed multipoles:
  | Hartree multipole sum: apparent total charge =  -0.953657E+00
  Summing up the Hartree potential.
  Time summed over all CPUs for potential: real work        1.319 s, elapsed        1.390 s
  | RMS charge density error from multipole expansion :   0.425362E-02

  Integrating Hamiltonian matrix: batch-based integration.
  Time summed over all CPUs for integration: real work        1.973 s, elapsed        2.009 s

  Updating Kohn-Sham eigenvalues, eigenvectors, occupation numbers, and Fermi level.
  Solving generalized eigenproblem
  Updating Kohn-Sham eigenvalues and eigenfunctions.
  Solving real generalised eigenvalue problem by standard LAPACK (fast)

  Obtaining occupation numbers and chemical potential using ELSI.
  | Chemical potential (Fermi level):     2.41013620eV
  Highest occupied state (VBM) at     -1.69030653 eV
  | Occupation number:      2.00000000

  Lowest unoccupied state (CBM) at     2.52179521 eV
  | Occupation number:      0.00000000

  Overall HOMO-LUMO gap:      4.21210174 eV.

  Total energy components:
  | Sum of eigenvalues            :        -546.39496460 Ha      -14868.16347059 eV
  | XC energy correction          :         -63.01925528 Ha       -1714.84118646 eV
  | XC potential correction       :          81.42151688 Ha        2215.59220253 eV
  | Free-atom electrostatic energy:        -424.31121514 Ha      -11546.09562289 eV
  | Hartree energy correction     :         -12.23528727 Ha        -332.93910644 eV
  | vdW energy correction         :           0.00000000 Ha           0.00000000 eV
  | Entropy correction            :          -0.00000000 Ha          -0.00000000 eV
  | ---------------------------
  | Total energy                  :        -964.53920541 Ha      -26246.44718385 eV
  | Total energy, T -> 0          :        -964.53920541 Ha      -26246.44718385 eV  <-- do not rely on this value for anything but (periodic) metals
  | Electronic free energy        :        -964.53920541 Ha      -26246.44718385 eV

  Derived energy quantities:
  | Kinetic energy                :         968.50646862 Ha       26354.40190833 eV
  | Electrostatic energy          :       -1870.02641875 Ha      -50886.00790572 eV
  | Energy correction for multipole
  | error in Hartree potential    :          -0.00232089 Ha          -0.06315463 eV
  | Sum of eigenvalues per atom                           :       -2478.02724510 eV
  | Total energy (T->0) per atom                          :       -4374.40786398 eV  <-- do not rely on this value for anything but (periodic) metals
  | Electronic free energy per atom                       :       -4374.40786398 eV

  Self-consistency convergence accuracy:
  | Change of charge density      :  0.9155E-01
  | Change of sum of eigenvalues  :  0.5167E+02 eV
  | Change of total energy        :  0.3229E+00 eV

  End self-consistency iteration #     4       :  max(cpu_time)    wall_clock(cpu1)
  | Time for this iteration                    :        0.720 s           0.717 s
  | Charge density update                      :        0.260 s           0.256 s
  | Density mixing                             :        0.008 s           0.008 s
  | Hartree multipole update                   :        0.016 s           0.016 s
  | Hartree multipole summation                :        0.176 s           0.176 s
  | Integration                                :        0.256 s           0.257 s
  | Solution of K.-S. eqns.                    :        0.004 s           0.003 s
  | Total energy evaluation                    :        0.000 s           0.001 s

  Partial memory accounting:
  | Current value for overall tracked memory usage on task 0  :           0.268 MB
  | Peak value for overall tracked memory usage on task 0     :           1.023 MB after allocating gradient_basis_wave
  | Largest tracked array allocation on task 0 so far         :           0.566 MB  when allocating gradient_basis_wave
  Note:  These values currently only include a subset of arrays which are explicitly tracked.
  The "true" memory usage will be greater.
------------------------------------------------------------

------------------------------------------------------------
          Begin self-consistency iteration #    5

  Date     :  20180214, Time     :  162535.928
------------------------------------------------------------
  Evaluating new KS density.
  Integration grid: deviation in total charge (<rho> - N_e) =   2.131628E-14
  Pulay mixing of updated and previous charge densities.

  Evaluating partitioned Hartree potential by multipole expansion.
  | Analytical far-field extrapolation by fixed multipoles:
  | Hartree multipole sum: apparent total charge =  -0.979418E+00
  Summing up the Hartree potential.
  Time summed over all CPUs for potential: real work        1.319 s, elapsed        1.380 s
  | RMS charge density error from multipole expansion :   0.436945E-02

  Integrating Hamiltonian matrix: batch-based integration.
  Time summed over all CPUs for integration: real work        1.975 s, elapsed        2.010 s

  Updating Kohn-Sham eigenvalues, eigenvectors, occupation numbers, and Fermi level.
  Solving generalized eigenproblem
  Updating Kohn-Sham eigenvalues and eigenfunctions.
  Solving real generalised eigenvalue problem by standard LAPACK (fast)

  Obtaining occupation numbers and chemical potential using ELSI.
  | Chemical potential (Fermi level):     2.51640240eV
  Highest occupied state (VBM) at     -1.57605103 eV
  | Occupation number:      2.00000000

  Lowest unoccupied state (CBM) at     2.69420692 eV
  | Occupation number:      0.00000000

  Overall HOMO-LUMO gap:      4.27025795 eV.

  Total energy components:
  | Sum of eigenvalues            :        -546.28808557 Ha      -14865.25514424 eV
  | XC energy correction          :         -63.01515196 Ha       -1714.72952918 eV
  | XC potential correction       :          81.41613429 Ha        2215.44573475 eV
  | Free-atom electrostatic energy:        -424.31121514 Ha      -11546.09562289 eV
  | Hartree energy correction     :         -12.34058895 Ha        -335.80451084 eV
  | vdW energy correction         :           0.00000000 Ha           0.00000000 eV
  | Entropy correction            :          -0.00000000 Ha          -0.00000000 eV
  | ---------------------------
  | Total energy                  :        -964.53890732 Ha      -26246.43907240 eV
  | Total energy, T -> 0          :        -964.53890732 Ha      -26246.43907240 eV  <-- do not rely on this value for anything but (periodic) metals
  | Electronic free energy        :        -964.53890732 Ha      -26246.43907240 eV

  Derived energy quantities:
  | Kinetic energy                :         968.37112923 Ha       26350.71913606 eV
  | Electrostatic energy          :       -1869.89488459 Ha      -50882.42867927 eV
  | Energy correction for multipole
  | error in Hartree potential    :          -0.00223360 Ha          -0.06077936 eV
  | Sum of eigenvalues per atom                           :       -2477.54252404 eV
  | Total energy (T->0) per atom                          :       -4374.40651207 eV  <-- do not rely on this value for anything but (periodic) metals
  | Electronic free energy per atom                       :       -4374.40651207 eV

  Self-consistency convergence accuracy:
  | Change of charge density      :  0.1999E-01
  | Change of sum of eigenvalues  :  0.2908E+01 eV
  | Change of total energy        :  0.8111E-02 eV

  End self-consistency iteration #     5       :  max(cpu_time)    wall_clock(cpu1)
  | Time for this iteration                    :        0.716 s           0.718 s
  | Charge density update                      :        0.260 s           0.259 s
  | Density mixing                             :        0.012 s           0.012 s
  | Hartree multipole update                   :        0.016 s           0.016 s
  | Hartree multipole summation                :        0.176 s           0.174 s
  | Integration                                :        0.252 s           0.252 s
  | Solution of K.-S. eqns.                    :        0.004 s           0.003 s
  | Total energy evaluation                    :        0.000 s           0.001 s

  Partial memory accounting:
  | Current value for overall tracked memory usage on task 0  :           0.268 MB
  | Peak value for overall tracked memory usage on task 0     :           1.023 MB after allocating gradient_basis_wave
  | Largest tracked array allocation on task 0 so far         :           0.566 MB  when allocating gradient_basis_wave
  Note:  These values currently only include a subset of arrays which are explicitly tracked.
  The "true" memory usage will be greater.
------------------------------------------------------------

------------------------------------------------------------
          Begin self-consistency iteration #    6

  Date     :  20180214, Time     :  162536.647
------------------------------------------------------------
  Evaluating new KS density.
  Integration grid: deviation in total charge (<rho> - N_e) =   7.105427E-15
  Pulay mixing of updated and previous charge densities.

  Evaluating partitioned Hartree potential by multipole expansion.
  | Analytical far-field extrapolation by fixed multipoles:
  | Hartree multipole sum: apparent total charge =  -0.992828E+00
  Summing up the Hartree potential.
  Time summed over all CPUs for potential: real work        1.318 s, elapsed        1.413 s
  | RMS charge density error from multipole expansion :   0.443746E-02

  Integrating Hamiltonian matrix: batch-based integration.
  Time summed over all CPUs for integration: real work        1.960 s, elapsed        1.999 s

  Updating Kohn-Sham eigenvalues, eigenvectors, occupation numbers, and Fermi level.
  Solving generalized eigenproblem
  Updating Kohn-Sham eigenvalues and eigenfunctions.
  Solving real generalised eigenvalue problem by standard LAPACK (fast)

  Obtaining occupation numbers and chemical potential using ELSI.
  | Chemical potential (Fermi level):     2.58140949eV
  Highest occupied state (VBM) at     -1.50634209 eV
  | Occupation number:      2.00000000

  Lowest unoccupied state (CBM) at     2.73302579 eV
  | Occupation number:      0.00000000

  Overall HOMO-LUMO gap:      4.23936788 eV.

  Total energy components:
  | Sum of eigenvalues            :        -546.22264339 Ha      -14863.47437181 eV
  | XC energy correction          :         -63.01432185 Ha       -1714.70694076 eV
  | XC potential correction       :          81.41505091 Ha        2215.41625435 eV
  | Free-atom electrostatic energy:        -424.31121514 Ha      -11546.09562289 eV
  | Hartree energy correction     :         -12.40571155 Ha        -337.57658709 eV
  | vdW energy correction         :           0.00000000 Ha           0.00000000 eV
  | Entropy correction            :          -0.00000000 Ha          -0.00000000 eV
  | ---------------------------
  | Total energy                  :        -964.53884102 Ha      -26246.43726819 eV
  | Total energy, T -> 0          :        -964.53884102 Ha      -26246.43726819 eV  <-- do not rely on this value for anything but (periodic) metals
  | Electronic free energy        :        -964.53884102 Ha      -26246.43726819 eV

  Derived energy quantities:
  | Kinetic energy                :         968.32749243 Ha       26349.53171837 eV
  | Electrostatic energy          :       -1869.85201160 Ha      -50881.26204581 eV
  | Energy correction for multipole
  | error in Hartree potential    :          -0.00217981 Ha          -0.05931565 eV
  | Sum of eigenvalues per atom                           :       -2477.24572863 eV
  | Total energy (T->0) per atom                          :       -4374.40621137 eV  <-- do not rely on this value for anything but (periodic) metals
  | Electronic free energy per atom                       :       -4374.40621137 eV

  Self-consistency convergence accuracy:
  | Change of charge density      :  0.1095E-01
  | Change of sum of eigenvalues  :  0.1781E+01 eV
  | Change of total energy        :  0.1804E-02 eV

  End self-consistency iteration #     6       :  max(cpu_time)    wall_clock(cpu1)
  | Time for this iteration                    :        0.720 s           0.717 s
  | Charge density update                      :        0.256 s           0.255 s
  | Density mixing                             :        0.016 s           0.012 s
  | Hartree multipole update                   :        0.016 s           0.016 s
  | Hartree multipole summation                :        0.180 s           0.178 s
  | Integration                                :        0.252 s           0.251 s
  | Solution of K.-S. eqns.                    :        0.004 s           0.003 s
  | Total energy evaluation                    :        0.000 s           0.001 s

  Partial memory accounting:
  | Current value for overall tracked memory usage on task 0  :           0.268 MB
  | Peak value for overall tracked memory usage on task 0     :           1.023 MB after allocating gradient_basis_wave
  | Largest tracked array allocation on task 0 so far         :           0.566 MB  when allocating gradient_basis_wave
  Note:  These values currently only include a subset of arrays which are explicitly tracked.
  The "true" memory usage will be greater.
------------------------------------------------------------

------------------------------------------------------------
          Begin self-consistency iteration #    7

  Date     :  20180214, Time     :  162537.365
------------------------------------------------------------
  Evaluating new KS density.
  Integration grid: deviation in total charge (<rho> - N_e) =   2.131628E-14
  Pulay mixing of updated and previous charge densities.

  Evaluating partitioned Hartree potential by multipole expansion.
  | Analytical far-field extrapolation by fixed multipoles:
  | Hartree multipole sum: apparent total charge =  -0.999284E+00
  Summing up the Hartree potential.
  Time summed over all CPUs for potential: real work        1.375 s, elapsed        1.795 s
  | RMS charge density error from multipole expansion :   0.446537E-02

  Integrating Hamiltonian matrix: batch-based integration.
  Time summed over all CPUs for integration: real work        1.955 s, elapsed        2.032 s

  Updating Kohn-Sham eigenvalues, eigenvectors, occupation numbers, and Fermi level.
  Solving generalized eigenproblem
  Updating Kohn-Sham eigenvalues and eigenfunctions.
  Solving real generalised eigenvalue problem by standard LAPACK (fast)

  Obtaining occupation numbers and chemical potential using ELSI.
  | Chemical potential (Fermi level):     2.62948240eV
  Highest occupied state (VBM) at     -1.44828117 eV
  | Occupation number:      2.00000000

  Lowest unoccupied state (CBM) at     2.79114429 eV
  | Occupation number:      0.00000000

  Overall HOMO-LUMO gap:      4.23942546 eV.

  Total energy components:
  | Sum of eigenvalues            :        -546.11665382 Ha      -14860.59024888 eV
  | XC energy correction          :         -63.02004752 Ha       -1714.86274421 eV
  | XC potential correction       :          81.42254577 Ha        2215.62020004 eV
  | Free-atom electrostatic energy:        -424.31121514 Ha      -11546.09562289 eV
  | Hartree energy correction     :         -12.51346178 Ha        -340.50861987 eV
  | vdW energy correction         :           0.00000000 Ha           0.00000000 eV
  | Entropy correction            :          -0.00000000 Ha          -0.00000000 eV
  | ---------------------------
  | Total energy                  :        -964.53883248 Ha      -26246.43703581 eV
  | Total energy, T -> 0          :        -964.53883248 Ha      -26246.43703581 eV  <-- do not rely on this value for anything but (periodic) metals
  | Electronic free energy        :        -964.53883248 Ha      -26246.43703581 eV

  Derived energy quantities:
  | Kinetic energy                :         968.35415834 Ha       26350.25733464 eV
  | Electrostatic energy          :       -1869.87294330 Ha      -50881.83162625 eV
  | Energy correction for multipole
  | error in Hartree potential    :          -0.00216581 Ha          -0.05893461 eV
  | Sum of eigenvalues per atom                           :       -2476.76504148 eV
  | Total energy (T->0) per atom                          :       -4374.40617264 eV  <-- do not rely on this value for anything but (periodic) metals
  | Electronic free energy per atom                       :       -4374.40617264 eV

  Self-consistency convergence accuracy:
  | Change of charge density      :  0.5036E-02
  | Change of sum of eigenvalues  :  0.2884E+01 eV
  | Change of total energy        :  0.2324E-03 eV

  End self-consistency iteration #     7       :  max(cpu_time)    wall_clock(cpu1)
  | Time for this iteration                    :        0.800 s           0.798 s
  | Charge density update                      :        0.280 s           0.281 s
  | Density mixing                             :        0.016 s           0.015 s
  | Hartree multipole update                   :        0.016 s           0.016 s
  | Hartree multipole summation                :        0.228 s           0.226 s
  | Integration                                :        0.256 s           0.255 s
  | Solution of K.-S. eqns.                    :        0.004 s           0.003 s
  | Total energy evaluation                    :        0.000 s           0.000 s

  Partial memory accounting:
  | Current value for overall tracked memory usage on task 0  :           0.268 MB
  | Peak value for overall tracked memory usage on task 0     :           1.023 MB after allocating gradient_basis_wave
  | Largest tracked array allocation on task 0 so far         :           0.566 MB  when allocating gradient_basis_wave
  Note:  These values currently only include a subset of arrays which are explicitly tracked.
  The "true" memory usage will be greater.
------------------------------------------------------------

------------------------------------------------------------
          Begin self-consistency iteration #    8

  Date     :  20180214, Time     :  162538.163
------------------------------------------------------------
  Evaluating new KS density.
  Integration grid: deviation in total charge (<rho> - N_e) =   0.000000E+00
  Pulay mixing of updated and previous charge densities.

  Evaluating partitioned Hartree potential by multipole expansion.
  | Analytical far-field extrapolation by fixed multipoles:
  | Hartree multipole sum: apparent total charge =  -0.100190E+01
  Summing up the Hartree potential.
  Time summed over all CPUs for potential: real work        1.314 s, elapsed        1.369 s
  | RMS charge density error from multipole expansion :   0.448205E-02

  Integrating Hamiltonian matrix: batch-based integration.
  Time summed over all CPUs for integration: real work        2.006 s, elapsed        2.087 s

[...]
     10       2.00000          -6.758817         -183.91676
     11       2.00000          -6.758817         -183.91676
     12       2.00000          -0.524323          -14.26756
     13       2.00000          -0.500799          -13.62744
     14       2.00000          -0.441673          -12.01855
     15       2.00000          -0.233546           -6.35510
     16       2.00000          -0.233531           -6.35470
     17       2.00000          -0.132462           -3.60447
     18       2.00000          -0.063084           -1.71660
     19       2.00000          -0.063084           -1.71660
     20       2.00000          -0.055066           -1.49843
     21       2.00000          -0.055066           -1.49842
     22       2.00000          -0.053233           -1.44855
     23       0.00000           0.102138            2.77932
     24       0.00000           0.140321            3.81834
     25       0.00000           0.178809            4.86563
     26       0.00000           0.178825            4.86607
     27       0.00000           0.266909            7.26297
     28       0.00000           0.266920            7.26327
     29       0.00000           0.310147            8.43952
     30       0.00000           0.324437            8.82837
     31       0.00000           0.383330           10.43095
     32       0.00000           0.383354           10.43160
     33       0.00000           0.432460           11.76782
     34       0.00000           0.432462           11.76789
     35       0.00000           0.464403           12.63706
     36       0.00000           0.493788           13.43666

  Highest occupied state (VBM) at     -1.44855099 eV
  | Occupation number:      2.00000000

  Lowest unoccupied state (CBM) at     2.77931867 eV
  | Occupation number:      0.00000000

  Overall HOMO-LUMO gap:      4.22786965 eV.

  Self-consistency cycle converged.

  End self-consistency iteration #    14       :  max(cpu_time)    wall_clock(cpu1)
  | Time for this iteration                    :        2.080 s           2.081 s
  | Charge density & force component update    :        1.084 s           1.082 s
  | Density mixing                             :        0.020 s           0.018 s
  | Hartree multipole update                   :        0.016 s           0.017 s
  | Hartree multipole summation                :        0.708 s           0.707 s
  | Integration                                :        0.248 s           0.249 s
  | Solution of K.-S. eqns.                    :        0.004 s           0.003 s
  | Total energy evaluation                    :        0.004 s           0.003 s

  Partial memory accounting:
  | Current value for overall tracked memory usage on task 0  :           0.268 MB
  | Peak value for overall tracked memory usage on task 0     :           2.348 MB after allocating hessian_basis_wave
  | Largest tracked array allocation on task 0 so far         :           1.133 MB  when allocating hessian_basis_wave
  Note:  These values currently only include a subset of arrays which are explicitly tracked.
  The "true" memory usage will be greater.
------------------------------------------------------------
  Obtaining max. number of non-zero basis functions in each batch .
  Evaluating KS electron density on previously omitted grid points.
  Evaluating non-empirical van der Waals correction (Tkatchenko/Scheffler 2009).
  Performing Hirshfeld analysis of fragment charges and moments.
  ----------------------------------------------------------------------
  | Atom     1: Cl
  |   Hirshfeld charge        :     -0.50080559
  |   Free atom volume        :     65.35447769
  |   Hirshfeld volume        :     76.23748255
  |   Hirshfeld dipole vector :      0.15952093       0.00000206       0.00000000
  |   Hirshfeld dipole moment :      0.15952093
  |   Hirshfeld second moments:     -0.17727106       0.00000578      -0.00000000
  |                                  0.00000578      -0.40202467      -0.00000000
  |                                 -0.00000000      -0.00000000      -0.40202886
  ----------------------------------------------------------------------
  | Atom     2: C
  |   Hirshfeld charge        :     -0.07739393
  |   Free atom volume        :     38.37861207
  |   Hirshfeld volume        :     33.74345376
  |   Hirshfeld dipole vector :     -0.00044110       0.00000871      -0.00000000
  |   Hirshfeld dipole moment :      0.00044118
  |   Hirshfeld second moments:      0.05992709       0.00000196       0.00000000
  |                                  0.00000196       0.11890894       0.00000000
  |                                  0.00000000       0.00000000       0.11890241
  ----------------------------------------------------------------------
  | Atom     3: Cl
  |   Hirshfeld charge        :     -0.50787409
  |   Free atom volume        :     65.35447769
  |   Hirshfeld volume        :     76.44627447
  |   Hirshfeld dipole vector :     -0.16038271      -0.00000261      -0.00000000
  |   Hirshfeld dipole moment :      0.16038271
  |   Hirshfeld second moments:     -0.18328061      -0.00000493       0.00000000
  |                                 -0.00000493      -0.40754958       0.00000000
  |                                  0.00000000       0.00000000      -0.40755037
  ----------------------------------------------------------------------
  | Atom     4: H
  |   Hirshfeld charge        :      0.02866180
  |   Free atom volume        :     10.31539447
  |   Hirshfeld volume        :      8.11167316
  |   Hirshfeld dipole vector :      0.00008864       0.08940454      -0.00000000
  |   Hirshfeld dipole moment :      0.08940459
  |   Hirshfeld second moments:      0.02824966      -0.00011719      -0.00000000
  |                                 -0.00011719       0.08141189      -0.00000000
  |                                 -0.00000000      -0.00000000       0.09590758
  ----------------------------------------------------------------------
  | Atom     5: H
  |   Hirshfeld charge        :      0.02866044
  |   Free atom volume        :     10.31539447
  |   Hirshfeld volume        :      8.11157616
  |   Hirshfeld dipole vector :      0.00009036      -0.04470671       0.07742045
  |   Hirshfeld dipole moment :      0.08940148
  |   Hirshfeld second moments:      0.02824798       0.00005856      -0.00010213
  |                                  0.00005856       0.09228617       0.00627578
  |                                 -0.00010213       0.00627578       0.08503889
  ----------------------------------------------------------------------
  | Atom     6: H
  |   Hirshfeld charge        :      0.02866044
  |   Free atom volume        :     10.31539447
  |   Hirshfeld volume        :      8.11157616
  |   Hirshfeld dipole vector :      0.00009036      -0.04470671      -0.07742045
  |   Hirshfeld dipole moment :      0.08940148
  |   Hirshfeld second moments:      0.02824798       0.00005856       0.00010213
  |                                  0.00005856       0.09228617      -0.00627578
  |                                  0.00010213      -0.00627578       0.08503889
  ----------------------------------------------------------------------


  Total energy components:
  | Sum of eigenvalues            :        -546.13115978 Ha      -14860.98497618 eV
  | XC energy correction          :         -63.01893983 Ha       -1714.83260237 eV
  | XC potential correction       :          81.42109978 Ha        2215.58085258 eV
  | Free-atom electrostatic energy:        -424.31121514 Ha      -11546.09562289 eV
  | Hartree energy correction     :         -12.49861274 Ha        -340.10455694 eV
  | vdW energy correction         :          -0.00037971 Ha          -0.01033243 eV
  | Entropy correction            :          -0.00000000 Ha          -0.00000000 eV
  | ---------------------------
  | Total energy                  :        -964.53920741 Ha      -26246.44723823 eV
  | Total energy, T -> 0          :        -964.53920741 Ha      -26246.44723823 eV  <-- do not rely on this value for anything but (periodic) metals
  | Electronic free energy        :        -964.53920741 Ha      -26246.44723823 eV

  Derived energy quantities:
  | Kinetic energy                :         968.34484007 Ha       26350.00377171 eV
  | Electrostatic energy          :       -1869.86472795 Ha      -50881.60807514 eV
  | Energy correction for multipole
  | error in Hartree potential    :          -0.00213395 Ha          -0.05806773 eV
  | Sum of eigenvalues per atom                           :       -2476.83082936 eV
  | Total energy (T->0) per atom                          :       -4374.40787304 eV  <-- do not rely on this value for anything but (periodic) metals
  | Electronic free energy per atom                       :       -4374.40787304 eV

  atomic forces [eV/Ang]:
  -----------------------
  atom #    1
   Hellmann-Feynman              : -0.878089E+01 -0.115640E-03  0.290574E-10
   Ionic forces                  :  0.000000E+00  0.000000E+00  0.000000E+00
   Multipole                     :  0.736900E-01 -0.485234E-05 -0.110909E-11
   Pulay + GGA                   :  0.869370E+01  0.116933E-03 -0.105548E-09
   Van der Waals                 :  0.424859E-02  0.201925E-06  0.275904E-13
   ----------------------------------------------------------------
   Total forces(   1)            : -0.925504E-02 -0.335742E-05 -0.775720E-10
  atom #    2
   Hellmann-Feynman              :  0.376950E-01 -0.139709E-02  0.487328E-10
   Ionic forces                  :  0.000000E+00  0.000000E+00  0.000000E+00
   Multipole                     : -0.834877E-02 -0.744680E-04  0.224867E-12
   Pulay + GGA                   : -0.550367E-01  0.277209E-02 -0.657034E-11
   Van der Waals                 : -0.194214E-04  0.142214E-08 -0.162738E-14
   ----------------------------------------------------------------
   Total forces(   2)            : -0.257099E-01  0.130054E-02  0.423857E-10
  atom #    3
   Hellmann-Feynman              :  0.847922E+01 -0.252316E-03  0.244721E-10
   Ionic forces                  :  0.000000E+00  0.000000E+00  0.000000E+00
   Multipole                     : -0.745468E-01 -0.952860E-05  0.943462E-13
   Pulay + GGA                   : -0.837091E+01  0.350109E-03 -0.153252E-09
   Van der Waals                 : -0.421391E-02 -0.522845E-07 -0.721543E-14
   ----------------------------------------------------------------
   Total forces(   3)            :  0.295491E-01  0.882118E-04 -0.128693E-09
  atom #    4
   Hellmann-Feynman              :  0.221162E-02 -0.191605E-01  0.298001E-12
   Ionic forces                  :  0.000000E+00  0.000000E+00  0.000000E+00
   Multipole                     : -0.785670E-03 -0.438668E-01 -0.516723E-13
   Pulay + GGA                   :  0.507083E-03  0.827001E-01 -0.872740E-13
   Van der Waals                 : -0.551996E-05  0.160886E-02 -0.405273E-14
   ----------------------------------------------------------------
   Total forces(   4)            :  0.192751E-02  0.212816E-01  0.155002E-12
  atom #    5
   Hellmann-Feynman              :  0.201892E-02  0.100100E-01 -0.168064E-01
   Ionic forces                  :  0.000000E+00  0.000000E+00  0.000000E+00
   Multipole                     : -0.796326E-03  0.219390E-01 -0.379796E-01
   Pulay + GGA                   :  0.513543E-03 -0.413125E-01  0.716204E-01
   Van der Waals                 : -0.486584E-05 -0.804503E-03  0.139328E-02
   ----------------------------------------------------------------
   Total forces(   5)            :  0.173128E-02 -0.101680E-01  0.182276E-01
  atom #    6
   Hellmann-Feynman              :  0.201892E-02  0.100100E-01  0.168064E-01
   Ionic forces                  :  0.000000E+00  0.000000E+00  0.000000E+00
   Multipole                     : -0.796326E-03  0.219390E-01  0.379796E-01
   Pulay + GGA                   :  0.513543E-03 -0.413125E-01 -0.716204E-01
   Van der Waals                 : -0.486584E-05 -0.804503E-03 -0.139328E-02
   ----------------------------------------------------------------
   Total forces(   6)            :  0.173128E-02 -0.101680E-01 -0.182276E-01

  Timings for VdW correction (Tkatchenko-Scheffler 2009 or later):
  | CPU time:        0.044 s, Wall clock time:        0.046 s.
  Removing unitary transformations (pure translations, rotations) from forces on atoms.
  Atomic forces before filtering:
  | Net force on center of mass :  -0.257700E-04  0.233108E-02 -0.202216E-09 eV/A
  | Net torque on center of mass:   0.116420E-12  0.145166E-09 -0.422015E-05 eV
  Atomic forces after filtering:
  | Net force on center of mass :   0.731744E-17 -0.278760E-17 -0.278760E-17 eV/A
  | Net torque on center of mass:  -0.442540E-17 -0.180790E-18  0.165952E-17 eV

  Energy and forces in a compact form:
  | Total energy uncorrected      :         -0.262464472382347E+05 eV
  | Total energy corrected        :         -0.262464472382347E+05 eV  <-- do not rely on this value for anything but (periodic) metals
  | Electronic free energy        :         -0.262464472382347E+05 eV
  Total atomic forces (unitary forces cleaned) [eV/Ang]:
  |   1         -0.925074804333176E-02         -0.392649852185345E-03         -0.706572104899308E-10
  |   2         -0.257056100592805E-01          0.912022437174293E-03          0.760366675658977E-10
  |   3          0.295534068623649E-01         -0.299521992252764E-03         -0.681620836859333E-10
  |   4          0.193144867077697E-02          0.208931183378770E-01          0.338252128151078E-10
  |   5          0.173575128739048E-02         -0.105564844541362E-01          0.182276397824596E-01
  |   6          0.173575128207989E-02         -0.105564844764770E-01         -0.182276397535021E-01

  ------------------------------------ 
  Start decomposition of the XC Energy 
  ------------------------------------ 
  X and C from original XC functional choice 
  Hartree-Fock Energy :          0.000000000 Ha              0.000000000 eV
  X Energy            :        -61.395379272 Ha          -1670.653271903 eV
  C Energy            :         -1.623560553 Ha            -44.179330464 eV
  Total XC Energy     :        -63.018939825 Ha          -1714.832602367 eV
  ------------------------------------ 
  LDA X and C from self-consistent density 
  X Energy LDA        :        -56.802857245 Ha          -1545.684389183 eV
  C Energy LDA        :         -3.247939258 Ha            -88.380923985 eV
  ------------------------------------ 
  End decomposition of the XC Energy 
  ------------------------------------ 

------------------------------------------------------------

------------------------------------------------------------------------------
  Final output of selected total energy values:

  The following output summarizes some interesting total energy values
  at the end of a run (AFTER all relaxation, molecular dynamics, etc.).

  | Total energy of the DFT / Hartree-Fock s.c.f. calculation      :         -26246.447238235 eV
  | Final zero-broadening corrected energy (caution - metals only) :         -26246.447238235 eV
  | For reference only, the value of 1 Hartree used in FHI-aims is :             27.211384500 eV

  Before relying on these values, please be sure to understand exactly which
  total energy value is referred to by a given number. Different objects may
  all carry the same name 'total energy'. Definitions:

  Total energy of the DFT / Hartree-Fock s.c.f. calculation:
  | Note that this energy does not include ANY quantities calculated after the
  | s.c.f. cycle, in particular not ANY RPA, MP2, etc. many-body perturbation terms.

  Final zero-broadening corrected energy:
  | For metallic systems only, a broadening of the occupation numbers at the Fermi
  | level can be extrapolated back to zero broadening by an electron-gas inspired
  | formula. For all systems that are not real metals, this value can be
  | meaningless and should be avoided.

------------------------------------------------------------------------------
  Methods described in the following list of references were used in this FHI-aims run.
  If you publish the results, please make sure to cite these reference if they apply.
  FHI-aims is an academic code, and for our developers (often, Ph.D. students
  and postdocs), scientific credit in the community is essential.
  Thank you for helping us!

  For any use of FHI-aims, please cite:

    Volker Blum, Ralf Gehrke, Felix Hanke, Paula Havu, Ville Havu,
    Xinguo Ren, Karsten Reuter, and Matthias Scheffler
    'Ab initio molecular simulations with numeric atom-centered orbitals'
    Computer Physics Communications 180, 2175-2196 (2009)
    http://dx.doi.org/10.1016/j.cpc.2009.06.022


  For the real-space grid partitioning and parallelization used in this calculation, please cite:

    Ville Havu, Volker Blum, Paula Havu, and Matthias Scheffler,
    'Efficient O(N) integration for all-electron electronic structure calculation'
    'using numerically tabulated basis functions'
    Journal of Computational Physics 228, 8367-8379 (2009).
    http://dx.doi.org/10.1016/j.jcp.2009.08.008

  Of course, there are many other important community references, e.g., those cited in the
  above references. Our list is limited to references that describe implementations in the
  FHI-aims code. The reason is purely practical (length of this list) - please credit others as well.

------------------------------------------------------------
          Leaving FHI-aims.
          Date     :  20180214, Time     :  162544.714

          Computational steps:
          | Number of self-consistency cycles          :           14
          | Number of SCF (re)initializations          :            1

          Detailed time accounting                     :  max(cpu_time)    wall_clock(cpu1)
          | Total time                                 :       12.660 s          12.758 s
          | Preparation time                           :        0.388 s           0.397 s
          | Boundary condition initalization           :        0.000 s           0.000 s
          | Grid partitioning                          :        0.080 s           0.082 s
          | Preloading free-atom quantities on grid    :        0.024 s           0.022 s
          | Free-atom superposition energy             :        0.024 s           0.021 s
          | Total time for integrations                :        4.032 s           4.019 s
          | Total time for solution of K.-S. equations :        0.072 s           0.062 s
          | Total time for density & force components  :        4.500 s           4.488 s
          | Total time for mixing                      :        0.208 s           0.189 s
          | Total time for Hartree multipole update    :        0.248 s           0.241 s
          | Total time for Hartree multipole sum       :        3.052 s           3.041 s
          | Total time for total energy evaluation     :        0.012 s           0.014 s
          | Total time for scaled ZORA corrections     :        0.000 s           0.000 s
          | Total time for vdW correction              :        0.044 s           0.046 s

          Partial memory accounting:
          | Residual value for overall tracked memory usage across tasks :           0.000 MB (should be 0.000 MB)
          | Peak values for overall tracked memory usage (after allocating hessian_basis_wave):
          |   Minimum:        2.348 MB (on task 1)
          |   Maximum:        2.348 MB (on task 1)
          |   Average:        2.348 MB
          | Largest tracked array allocation (hessian_basis_wave):
          |   Minimum:        1.133 MB (on task 1)
          |   Maximum:        1.133 MB (on task 1)
          |   Average:        1.133 MB
          Note:  These values currently only include a subset of arrays which are explicitly tracked.
          The "true" memory usage will be greater.

          Have a nice day.
------------------------------------------------------------
