  MPI-parallelism will be employed.
------------------------------------------------------------
          Invoking FHI-aims ...
          Version 180101-
          Git rev. (modified): fa29f3a Merge branch master of fhiaims.rzberlin.mp[...]
          Compiled on 2018/01/19 at 14:47:46 on host theobook132.

          When using FHI-aims, please cite the following reference:

          Volker Blum, Ralf Gehrke, Felix Hanke, Paula Havu,
          Ville Havu, Xinguo Ren, Karsten Reuter, and Matthias Scheffler,
          'Ab Initio Molecular Simulations with Numeric Atom-Centered Orbitals',
          Computer Physics Communications 180, 2175-2196 (2009)

          For any questions about FHI-aims, please visit the aimsclub website
          with its forums and wiki. Contributions to both the forums and the
          wiki are warmly encouraged - they are for you, and everyone is welcome there.

------------------------------------------------------------



  Date     :  20180215, Time     :  214410.141
  Time zero on CPU 1             :   0.440000000000000E-01  s.
  Internal wall clock time zero  :           287963050.141  s.

  FHI-aims created a unique identifier for this run for later identification
  aims_uuid : 83036D0C-19C1-47A9-A511-3ABD9328C552

  Using        8 parallel tasks.
  Task        0 on host theobook132 reporting.
  Task        1 on host theobook132 reporting.
  Task        2 on host theobook132 reporting.
  Task        3 on host theobook132 reporting.
  Task        4 on host theobook132 reporting.
  Task        5 on host theobook132 reporting.
  Task        6 on host theobook132 reporting.
  Task        7 on host theobook132 reporting.

  Performing system and environment tests:
  *** Environment variable OMP_NUM_THREADS is not set
  *** For performance reasons you might want to set it to 1
  | Stacksize not measured: no C compiler
  | Checking for scalapack...
  | No scalapack compiled in.

  Obtaining array dimensions for all initial allocations:
  
  -----------------------------------------------------------------------
  Parsing control.in (first pass over file, find array dimensions only).
  The contents of control.in will be repeated verbatim below
  unless switched off by setting 'verbatim_writeout .false.' .
  in the first line of control.in .
  -----------------------------------------------------------------------
  
  ################################################################################
  #
  #		Control.in generated by mkcontrol
  #
  ################################################################################
  xc			pbe
  vdw_correction_hirshfeld
  relativistic		none
  sc_accuracy_rho		1E-5
  sc_accuracy_eev		1E-3
  sc_accuracy_etot	1E-6
  sc_iter_limit		1000	
  
  compute_forces .true.
  final_forces_cleaned .true.
  
  ################################################################################
  #
  #  FHI-aims code project
  #  VB, Fritz-Haber Institut, 2009
  #
  #  Suggested "light" defaults for H atom (to be pasted into control.in file)
  #  Be sure to double-check any results obtained with these settings for post-processing,
  #  e.g., with the "tight" defaults and larger basis sets.
  #
  ################################################################################
    species        H
  #     global species definitions
      nucleus             1
      mass                1.00794
  #
      l_hartree           4
  #
      cut_pot             3.5  1.5  1.0
      basis_dep_cutoff    1e-4
  #
      radial_base         24 5.0
      radial_multiplier   1
      angular_grids       specified
        division   0.2421   50
        division   0.3822  110
        division   0.4799  194
        division   0.5341  302
  #      division   0.5626  434
  #      division   0.5922  590
  #      division   0.6542  770
  #      division   0.6868 1202
  #      outer_grid  770
        outer_grid  302
  ################################################################################
  #
  #  Definition of "minimal" basis
  #
  ################################################################################
  #     valence basis states
      valence      1  s   1.
  #     ion occupancy
      ion_occ      1  s   0.5
  ################################################################################
  #
  #  Suggested additional basis functions. For production calculations,
  #  uncomment them one after another (the most important basis functions are
  #  listed first).
  #
  #  Basis constructed for dimers: 0.5 A, 0.7 A, 1.0 A, 1.5 A, 2.5 A
  #
  ################################################################################
  #  "First tier" - improvements: -1014.90 meV to -62.69 meV
       hydro 2 s 2.1
       hydro 2 p 3.5
  #  "Second tier" - improvements: -12.89 meV to -1.83 meV
  #     hydro 1 s 0.85
  #     hydro 2 p 3.7
  #     hydro 2 s 1.2
  #     hydro 3 d 7
  #  "Third tier" - improvements: -0.25 meV to -0.12 meV
  #     hydro 4 f 11.2
  #     hydro 3 p 4.8
  #     hydro 4 d 9
  #     hydro 3 s 3.2
  
  ################################################################################
  #
  #  FHI-aims code project
  #  VB, Fritz-Haber Institut, 2009
  #
  #  Suggested "light" defaults for C atom (to be pasted into control.in file)
  #  Be sure to double-check any results obtained with these settings forpost-processing,
  #  e.g., with the "tight" defaults and larger basis sets.
  #
  ################################################################################
    species        C
  #     global species definitions
      nucleus             6
      mass                12.0107
  #
      l_hartree           4
  #
      cut_pot             3.5  1.5  1.0
      basis_dep_cutoff    1e-4
  #
      radial_base         34 5.0
      radial_multiplier   1
      angular_grids specified
        division   0.3326   50
        division   0.5710  110
        division   0.7727  194
        division   0.8772  302
  #      division   0.9334  434
  #      division   0.9625  590
  #      division   0.9924  770
  #      division   1.0230  974
  #      division   1.4589 1202
  #     outer_grid  974
       outer_grid 302
  ################################################################################
  #
  #  Definition of "minimal" basis
  #
  ################################################################################
  #     valence basis states
      valence      2  s   2.
      valence      2  p   2.
  #     ion occupancy
      ion_occ      2  s   1.
      ion_occ      2  p   1.
  ################################################################################
  #
  #  Suggested additional basis functions. For production calculations,
  #  uncomment them one after another (the most important basis functions are
  #  listed first).
  #
  #  Constructed for dimers: 1.0 A, 1.25 A, 1.5 A, 2.0 A, 3.0 A
  #
  ################################################################################
  #  "First tier" - improvements: -1214.57 meV to -155.61 meV
       hydro 2 p 1.7
       hydro 3 d 6
       hydro 2 s 4.9
  #  "Second tier" - improvements: -67.75 meV to -5.23 meV
  #     hydro 4 f 9.8
  #     hydro 3 p 5.2
  #     hydro 3 s 4.3
  #     hydro 5 g 14.4
  #     hydro 3 d 6.2
  #  "Third tier" - improvements: -2.43 meV to -0.60 meV
  #     hydro 2 p 5.6
  #     hydro 2 s 1.4
  #     hydro 3 d 4.9
  #     hydro 4 f 11.2
  #  "Fourth tier" - improvements: -0.39 meV to -0.18 meV
  #     hydro 2 p 2.1
  #     hydro 5 g 16.4
  #     hydro 4 d 13.2
  #     hydro 3 s 13.6
  #     hydro 4 f 17.6
  #  Further basis functions - improvements: -0.08 meV and below
  #     hydro 3 s 2
  #     hydro 3 p 6
  #     hydro 4 d 20
  
  -----------------------------------------------------------------------
  Completed first pass over input file control.in .
  -----------------------------------------------------------------------
  
  
  -----------------------------------------------------------------------
  Parsing geometry.in (first pass over file, find array dimensions only).
  The contents of geometry.in will be repeated verbatim below
  unless switched off by setting 'verbatim_writeout .false.' .
  in the first line of geometry.in .
  -----------------------------------------------------------------------
  
  #=======================================#
  # iterations/iteration0037/aims-chain-node-0.53883/geometry.in
  #=======================================#
  atom -1.4644365275645268 -0.9030725268632042 -0.3902043960838657 C
  atom -0.6621682793339362 -0.1487637356404625 0.6294460166511952 C
  atom 0.6621682134390675 0.1487638483117411 0.6294460313952576 C
  atom 1.4644365438901037 0.9030724820398042 -0.3902044387819130 C
  atom -0.9083527173993817 -1.1328478371619015 -1.3076768399639436 H
  atom -2.4744626138655108 -0.5330948923765738 -0.6193016885314934 H
  atom -1.6211600796373393 -1.8802194211397623 0.1121978933057440 H
  atom -1.1966929085046922 -0.0017528276597972 1.5755391015894986 H
  atom 1.1966927915912537 0.0017530259397258 1.5755391571580031 H
  atom 0.9083526264854337 1.1328480129273077 -1.3076767632051334 H
  atom 1.6211604707451162 1.8802192945416389 0.1121978875499231 H
  atom 2.4744624801543971 0.5330945770814798 -0.6193019610832821 H
  
  -----------------------------------------------------------------------
  Completed first pass over input file geometry.in .
  -----------------------------------------------------------------------
  

  Basic array size parameters:
  | Number of species                 :        2
  | Number of atoms                   :       12
  | Max. basis fn. angular momentum   :        2
  | Max. atomic/ionic basis occupied n:        2
  | Max. number of basis fn. types    :        2
  | Max. radial fns per species/type  :        3
  | Max. logarithmic grid size        :     1277
  | Max. radial integration grid size :       34
  | Max. angular integration grid size:      302
  | Max. angular grid division number :        8
  | Radial grid for Hartree potential :     1277
  | Number of spin channels           :        1

------------------------------------------------------------
          Reading file control.in.
------------------------------------------------------------
  XC: Using PBE gradient-corrected functionals.
  Non-relativistic treatment of kinetic energy.
  Convergence accuracy of self-consistent charge density:  0.1000E-04
  Convergence accuracy of sum of eigenvalues:  0.1000E-02
  Convergence accuracy of total energy:  0.1000E-05
  Maximum number of s.-c. iterations  :  1000
  Forces will be computed.
  Cleaning forces before final output.
 
  Reading configuration options for species H                   .
  | Found nuclear charge :   1.0000
  | Found atomic mass :    1.00794000000000      amu
  | Found l_max for Hartree potential  :   4
  | Found cutoff potl. onset [A], width [A], scale factor :    3.50000    1.50000    1.00000
  | Threshold for basis-dependent cutoff potential is   0.100000E-03
  | Found data for basic radial integration grid :    24 points, outermost radius =    5.000 A
  | Found multiplier for basic radial grid :   1
  | Found angular grid specification: user-specified.
  | Specified grid contains     5 separate shells.
  | Check grid settings after all constraints further below.
  | Found free-atom valence shell :  1 s   1.000
  | No ionic wave fns used. Skipping ion_occ.
  | Found hydrogenic basis function :  2 s   2.100
  | Found hydrogenic basis function :  2 p   3.500
  Species H                   : Missing cutoff potential type.
  Defaulting to exp(1/x)/(1-x)^2 type cutoff potential.
  Species H : No 'logarithmic' tag. Using default grid for free atom:
  | Default logarithmic grid data [bohr] : 0.1000E-03 0.1000E+03 0.1012E+01
  Species H : On-site basis accuracy parameter (for Gram-Schmidt orthonormalisation) not specified.
  Using default value basis_acc =  0.1000000E-03.
  Species H                   : Using default innermost maximum threshold i_radial=  2 for radial functions.
  Species H                   : Default cutoff onset for free atom density etc. : 0.35000000E+01 AA.
  Species H                   : Basic radial grid will be enhanced according to radial_multiplier =   1, to contain    24 grid points.
 
  Reading configuration options for species C                   .
  | Found nuclear charge :   6.0000
  | Found atomic mass :    12.0107000000000      amu
  | Found l_max for Hartree potential  :   4
  | Found cutoff potl. onset [A], width [A], scale factor :    3.50000    1.50000    1.00000
  | Threshold for basis-dependent cutoff potential is   0.100000E-03
  | Found data for basic radial integration grid :    34 points, outermost radius =    5.000 A
  | Found multiplier for basic radial grid :   1
  | Found angular grid specification: user-specified.
  | Specified grid contains     5 separate shells.
  | Check grid settings after all constraints further below.
  | Found free-atom valence shell :  2 s   2.000
  | Found free-atom valence shell :  2 p   2.000
  | No ionic wave fns used. Skipping ion_occ.
  | No ionic wave fns used. Skipping ion_occ.
  | Found hydrogenic basis function :  2 p   1.700
  | Found hydrogenic basis function :  3 d   6.000
  | Found hydrogenic basis function :  2 s   4.900
  Species C                   : Missing cutoff potential type.
  Defaulting to exp(1/x)/(1-x)^2 type cutoff potential.
  Species C : No 'logarithmic' tag. Using default grid for free atom:
  | Default logarithmic grid data [bohr] : 0.1000E-03 0.1000E+03 0.1012E+01
  Species C : On-site basis accuracy parameter (for Gram-Schmidt orthonormalisation) not specified.
  Using default value basis_acc =  0.1000000E-03.
  Species C                   : Using default innermost maximum threshold i_radial=  2 for radial functions.
  Species C                   : Default cutoff onset for free atom density etc. : 0.35000000E+01 AA.
  Species C                   : Basic radial grid will be enhanced according to radial_multiplier =   1, to contain    34 grid points.
 
  Finished reading input file 'control.in'. Consistency checks are next.
 
  MPI_IN_PLACE appears to work with this MPI implementation.
  | Keeping use_mpi_in_place .true. (see manual).
  Target number of points in a grid batch is not set. Defaulting to  100
  Method for grid partitioning is not set. Defaulting to parallel hash+maxmin partitioning.
  Batch size limit is not set. Defaulting to    200
  By default, will store active basis functions for each batch.
  If in need of memory, prune_basis_once .false. can be used to disable this option.
  communication_type for Hartree potential was not specified.
  Defaulting to calc_hartree .
  Defaulting to Pulay charge density mixer.
  Pulay mixer: Number of relevant iterations not set.
  Defaulting to    8 iterations.
  Pulay mixer: Number of initial linear mixing iterations not set.
  Defaulting to    0 iterations.
  Work space size for distributed Hartree potential not set.
  Defaulting to   0.200000E+03 MB.
  Mixing parameter for charge density mixing has not been set.
  Using default: charge_mix_param =     0.0500.
  The mixing parameter will be adjusted in iteration number     2 of the first full s.c.f. cycle only.
  Algorithm-dependent basis array size parameters:
  | n_max_pulay                         :        8
  Presetting        40 iterations before the initial mixing cycle
  is restarted anyway using the sc_init_iter criterion / keyword.
  Presetting a factor      1.000 between actual scf density residual
  and density convergence criterion sc_accuracy_rho below which sc_init_iter
  takes no effect.
  Geometry relaxation not requested: no relaxation will be performed.
  Force calculation: scf convergence accuracy of forces not set.
  Defaulting to 'sc_accuracy_forces not_checked'.
  Handling of forces: Unphysical translation and rotation will be removed from forces.
  No accuracy limit for integral partition fn. given. Defaulting to  0.1000E-14.
  No threshold value for u(r) in integrations given. Defaulting to  0.1000E-05.
  No occupation type (smearing scheme) given. Defaulting to Gaussian broadening, width =  0.1000E-01 eV.
  The width will be adjusted in iteration number     2 of the first full s.c.f. cycle only.
  S.C.F. convergence parameters will be adjusted in iteration number     2 of the first full s.c.f. cycle only.
  No accuracy for occupation numbers given. Defaulting to  0.1000E-12.
  No threshold value for occupation numbers given. Defaulting to  0.0000E+00.
  No accuracy for fermi level given. Defaulting to  0.1000E-19.
  Maximum # of iterations to find E_F not set. Defaulting to  200.
  Preferred method for the eigenvalue solver ('KS_method') not specified in 'control.in'.
  Calling BLACS routine to test compilation state
  The best choice would be 'elsi', but your version of FHI-aims is compiled without ScaLAPACK support.
  Defaulting to 'lapack_fast' instead (serial solution, time will not improve with more CPUs).
  Will not use alltoall communication since running on < 1024 CPUs.
  Threshold for basis singularities not set.
  Default threshold for basis singularities:  0.1000E-04
  partition_type (choice of integration weights) for integrals was not specified.
  | Using a version of the partition function of Stratmann and coworkers ('stratmann_smoother').
  | At each grid point, the set of atoms used to build the partition table is smoothly restricted to
  | only those atoms whose free-atom density would be non-zero at that grid point.
  Partitioning for Hartree potential was not defined. Using partition_type for integrals.
  | Adjusted default value of keyword multip_moments_threshold to:       0.10000000E-11
  | This value may affect high angular momentum components of the Hartree potential in periodic systems.
  Spin handling was not defined in control.in. Defaulting to unpolarized case.
  No q(lm)/r^(l+1) cutoff set for long-range Hartree potential.
  | Using default value of  0.100000E-09 .
  | Verify using the multipole_threshold keyword.
  Defaulting to new monopole extrapolation.
  Density update method: automatic selection selected.
------------------------------------------------------------


------------------------------------------------------------
          Reading geometry description geometry.in.
------------------------------------------------------------
  Input structure read successfully.
  The structure contains       12 atoms,  and a total of         32.000 electrons.

  Input geometry:
  | No unit cell requested.
  | Atomic structure:
  |       Atom                x [A]            y [A]            z [A]
  |    1: Species C            -1.46443653       -0.90307253       -0.39020440
  |    2: Species C            -0.66216828       -0.14876374        0.62944602
  |    3: Species C             0.66216821        0.14876385        0.62944603
  |    4: Species C             1.46443654        0.90307248       -0.39020444
  |    5: Species H            -0.90835272       -1.13284784       -1.30767684
  |    6: Species H            -2.47446261       -0.53309489       -0.61930169
  |    7: Species H            -1.62116008       -1.88021942        0.11219789
  |    8: Species H            -1.19669291       -0.00175283        1.57553910
  |    9: Species H             1.19669279        0.00175303        1.57553916
  |   10: Species H             0.90835263        1.13284801       -1.30767676
  |   11: Species H             1.62116047        1.88021929        0.11219789
  |   12: Species H             2.47446248        0.53309458       -0.61930196
  |

  | The smallest distance between any two atoms is         1.09654955 AA.
  |
  | The first atom of this pair is atom number                      3 .
  | The second atom of this pair is atom number                     9 .

  Number of empty states per atom not set in control.in - providing a guess from actual geometry.
  | Total number of empty states used during s.c.f. cycle:       24
  If you use a very high smearing, use empty_states (per atom!) in control.in to increase this value.

  Structure-dependent array size parameters: 
  | Maximum number of distinct radial functions  :        9
  | Maximum number of basis functions            :       96
  | Number of Kohn-Sham states (occupied + empty):       40
------------------------------------------------------------

------------------------------------------------------------
          Preparing all fixed parts of the calculation.
------------------------------------------------------------
  Determining machine precision:
    2.225073858507201E-308
  Setting up grids for atomic and cluster calculations.

  Creating wave function, potential, and density for free atoms.

  Species: H

  List of occupied orbitals and eigenvalues:
    n    l              occ      energy [Ha]    energy [eV]
    1    0           1.0000        -0.237589        -6.4651


  Species: C

  List of occupied orbitals and eigenvalues:
    n    l              occ      energy [Ha]    energy [eV]
    1    0           2.0000       -10.038835      -273.1706
    2    0           2.0000        -0.502696       -13.6791
    2    1           2.0000        -0.191971        -5.2238

  Creating fixed part of basis set: Ionic, confined, hydrogenic.
 
  H                    hydrogenic:
 
  List of hydrogenic basis orbitals: 
    n    l      effective z      eigenvalue [eV]  inner max. [A]     outer max. [A]     outer radius [A]   
    2    0         2.100000       -14.9728           0.193243           1.317208           4.583499
    2    1         3.500000       -41.6669           0.602369           0.602369           3.723403
 
 
  C                    hydrogenic:
 
  List of hydrogenic basis orbitals: 
    n    l      effective z      eigenvalue [eV]  inner max. [A]     outer max. [A]     outer radius [A]   
    2    1         1.700000        -9.7616           1.230570           1.230570           4.607917
    3    2         6.000000       -54.4224           0.792453           0.792453           3.883070
    2    0         4.900000       -81.6679           0.082559           0.562749           3.078220
 

  Adding cutoff potential to free-atom effective potential.
  Creating atomic-like basis functions for current effective potential.

  Species H                   :

  List of atomic basis orbitals and eigenvalues:
    n    l      energy [Ha]    energy [eV]    outer radius [A]
    1    0        -0.237589        -6.4651       4.527807


  Species C                   :

  List of atomic basis orbitals and eigenvalues:
    n    l      energy [Ha]    energy [eV]    outer radius [A]
    1    0       -10.038835      -273.1706       1.934409
    2    0        -0.502696       -13.6791       4.496620
    2    1        -0.191971        -5.2238       4.551928

  Assembling full basis from fixed parts.
  | Species H :   atomic orbital   1 s accepted.
  | Species H :    hydro orbital   2 s accepted.
  | Species H :    hydro orbital   2 p accepted.
  | Species C :   atomic orbital   1 s accepted.
  | Species C :    hydro orbital   2 s accepted.
  | Species C :   atomic orbital   2 s accepted.
  | Species C :   atomic orbital   2 p accepted.
  | Species C :    hydro orbital   2 p accepted.
  | Species C :    hydro orbital   3 d accepted.
 
  Basis size parameters after reduction:
  | Total number of radial functions:        9
  | Total number of basis functions :       96
 
  Per-task memory consumption for arrays in subroutine allocate_ext:
  |           2.209696MB.
  Testing on-site integration grid accuracy.
  |  Species  Function  <phi|h_atom|phi> (log., in eV)  <phi|h_atom|phi> (rad., in eV)
           1        1                 -6.4663192853                 -6.4651273558
           1        2                 13.7111246313                 13.7170609718
           1        3                 25.2673269279                 25.2674696378
           2        4               -273.1705927641               -273.1705631568
           2        5                -10.7109323383                -10.7107120029
           2        6                 17.4381822266                 17.4352413244
           2        7                 -5.2255326521                 -5.2270484734
           2        8                  8.6835629259                  8.6603288385
           2        9                 27.4952418996                 27.4953360207

  Preparing densities etc. for the partition functions (integrals / Hartree potential).

  Preparations completed.
  max(cpu_time)          :      0.128 s.
  Wall clock time (cpu1) :      0.134 s.
------------------------------------------------------------

------------------------------------------------------------
          Begin self-consistency loop: Initialization.

          Date     :  20180215, Time     :  214410.284
------------------------------------------------------------

  Initializing index lists of integration centers etc. from given atomic structure:
  | Number of centers in hartree potential         :        12
  | Number of centers in hartree multipole         :        12
  | Number of centers in electron density summation:        12
  | Number of centers in basis integrals           :        12
  | Number of centers in integrals                 :        12
  | Number of centers in hamiltonian               :        12
  Partitioning the integration grid into batches with parallel hashing+maxmin method.
  | Number of batches:      792
  | Maximal batch size:     150
  | Minimal batch size:      51
  | Average batch size:      76.949
  | Standard deviation of batch sizes:      23.103

  Integration load balanced across     8 MPI tasks.
  Work distribution over tasks is as follows:
  Task     0 has       7570 integration points.
  Task     1 has       7572 integration points.
  Task     2 has       7580 integration points.
  Task     3 has       7644 integration points.
  Task     4 has       7669 integration points.
  Task     5 has       7670 integration points.
  Task     6 has       7688 integration points.
  Task     7 has       7551 integration points.
  Initializing partition tables, free-atom densities, potentials, etc. across the integration grid (initialize_grid_storage).
  | initialize_grid_storage: Actual outermost partition radius vs. multipole_radius_free
  | (-- VB: in principle, multipole_radius_free should be larger, hence this output)
  | Species        1: Confinement radius =              4.999999999999999 AA, multipole_radius_free =              5.054417573612229 AA.
  | Species        1: outer_partition_radius set to              5.054417573612229 AA .
  | Species        2: Confinement radius =              4.999999999999999 AA, multipole_radius_free =              5.019602836301480 AA.
  | Species        2: outer_partition_radius set to              5.019602836301480 AA .
  | Original list of interatomic distances with          12 x         12 entries is created.
  | Net number of integration points:    60944
  | of which are non-zero points    :    52418
  Renormalizing the initial density to the exact electron count on the 3D integration grid.
  | Initial density: Formal number of electrons (from input files) :      32.0000000000
  | Integrated number of electrons on 3D grid     :      31.9998609745
  | Charge integration error                      :      -0.0001390255
  | Normalization factor for density and gradient :       1.0000043446
  Obtaining max. number of non-zero basis functions in each batch (get_n_compute_maxes).
  | Maximal number of non-zero basis functions:       96 in task     0
  | Maximal number of non-zero basis functions:       96 in task     1
  | Maximal number of non-zero basis functions:       96 in task     2
  | Maximal number of non-zero basis functions:       96 in task     3
  | Maximal number of non-zero basis functions:       96 in task     4
  | Maximal number of non-zero basis functions:       96 in task     5
  | Maximal number of non-zero basis functions:       96 in task     6
  | Maximal number of non-zero basis functions:       96 in task     7
  Selecting the method for density update.
  Loop over occupied states selected for charge density update.
  Allocating        0.031 MB for KS_eigenvector
  Integrating Hamiltonian matrix: batch-based integration.
  Time summed over all CPUs for integration: real work        1.337 s, elapsed        1.363 s
  Integrating overlap matrix.
  Time summed over all CPUs for integration: real work        0.497 s, elapsed        0.505 s

  Updating Kohn-Sham eigenvalues, eigenvectors, occupation numbers, and Fermi level.
  Solving generalized eigenproblem
  Updating Kohn-Sham eigenvalues and eigenfunctions.
  Transforming overlap matrix and checking for singularities.
  Overlap matrix is nonsingular:
  | Lowest eigenvalue:  0.354524E-02
  Solving real generalised eigenvalue problem by standard LAPACK (fast)

  Obtaining occupation numbers and chemical potential using ELSI.
  | Chemical potential (Fermi level):    -8.52048912eV
  Writing Kohn-Sham eigenvalues.

  State    Occupation    Eigenvalue [Ha]    Eigenvalue [eV]
      1       2.00000         -10.166000         -276.63094
      2       2.00000         -10.166000         -276.63094
      3       2.00000         -10.148618         -276.15793
      4       2.00000         -10.148054         -276.14261
      5       2.00000          -0.921907          -25.08637
      6       2.00000          -0.854491          -23.25189
      7       2.00000          -0.789782          -21.49107
      8       2.00000          -0.657285          -17.88562
      9       2.00000          -0.604436          -16.44754
     10       2.00000          -0.568048          -15.45739
     11       2.00000          -0.555894          -15.12666
     12       2.00000          -0.531275          -14.45672
     13       2.00000          -0.525044          -14.28717
     14       2.00000          -0.495732          -13.48956
     15       2.00000          -0.488880          -13.30310
     16       2.00000          -0.352732           -9.59832
     17       0.00000          -0.209134           -5.69083
     18       0.00000          -0.040111           -1.09147
     19       0.00000          -0.011189           -0.30446
     20       0.00000          -0.007070           -0.19239
     21       0.00000           0.000545            0.01484
     22       0.00000           0.012191            0.33174
     23       0.00000           0.014616            0.39771
     24       0.00000           0.025445            0.69240
     25       0.00000           0.040059            1.09005
     26       0.00000           0.052325            1.42385
     27       0.00000           0.111266            3.02771
     28       0.00000           0.173039            4.70862
     29       0.00000           0.181703            4.94439
     30       0.00000           0.223193            6.07338
     31       0.00000           0.228212            6.20997
     32       0.00000           0.238259            6.48335
     33       0.00000           0.277343            7.54689
     34       0.00000           0.301970            8.21703
     35       0.00000           0.318104            8.65605
     36       0.00000           0.340993            9.27889
     37       0.00000           0.391969           10.66603
     38       0.00000           0.427709           11.63855
     39       0.00000           0.504216           13.72041
     40       0.00000           0.521867           14.20074

  Highest occupied state (VBM) at     -9.59832074 eV
  | Occupation number:      2.00000000

  Lowest unoccupied state (CBM) at    -5.69083391 eV
  | Occupation number:      0.00000000

  Overall HOMO-LUMO gap:      3.90748683 eV.
  Calculating total energy contributions from superposition of free atom densities.

  Total energy components:
  | Sum of eigenvalues            :         -95.94835816 Ha       -2610.88766601 eV
  | XC energy correction          :         -23.64968742 Ha        -643.54073770 eV
  | XC potential correction       :          30.37934516 Ha         826.66404193 eV
  | Free-atom electrostatic energy:         -68.06623303 Ha       -1852.17643850 eV
  | Hartree energy correction     :           0.00000000 Ha           0.00000000 eV
  | vdW energy correction         :           0.00000000 Ha           0.00000000 eV
  | Entropy correction            :           0.00000000 Ha           0.00000000 eV
  | ---------------------------
  | Total energy                  :        -157.28493345 Ha       -4279.94080028 eV
  | Total energy, T -> 0          :        -157.28493345 Ha       -4279.94080028 eV  <-- do not rely on this value for anything but (periodic) metals
  | Electronic free energy        :        -157.28493345 Ha       -4279.94080028 eV

  Derived energy quantities:
  | Kinetic energy                :         154.21309344 Ha        4196.35178063 eV
  | Electrostatic energy          :        -287.84833948 Ha       -7832.75184320 eV
  | Energy correction for multipole
  | error in Hartree potential    :           0.00000000 Ha           0.00000000 eV
  | Sum of eigenvalues per atom                           :        -217.57397217 eV
  | Total energy (T->0) per atom                          :        -356.66173336 eV  <-- do not rely on this value for anything but (periodic) metals
  | Electronic free energy per atom                       :        -356.66173336 eV
  Initialize hartree_potential_storage
  Max. number of atoms included in rho_multipole:           12

  End scf initialization - timings             :  max(cpu_time)    wall_clock(cpu1)
  | Time for scf. initialization               :        0.428 s           0.428 s
  | Boundary condition initialization          :        0.000 s           0.001 s
  | Integration                                :        0.244 s           0.242 s
  | Solution of K.-S. eqns.                    :        0.012 s           0.011 s
  | Grid partitioning                          :        0.068 s           0.067 s
  | Preloading free-atom quantities on grid    :        0.004 s           0.003 s
  | Free-atom superposition energy             :        0.024 s           0.022 s
  | Total energy evaluation                    :        0.000 s           0.001 s

  Partial memory accounting:
  | Current value for overall tracked memory usage on task 0  :           0.179 MB
  | Peak value for overall tracked memory usage on task 0     :           0.527 MB after allocating wave
  | Largest tracked array allocation on task 0 so far         :           0.115 MB  when allocating H_times_psi
  Note:  These values currently only include a subset of arrays which are explicitly tracked.
  The "true" memory usage will be greater.
------------------------------------------------------------

------------------------------------------------------------
          Begin self-consistency iteration #    1

  Date     :  20180215, Time     :  214410.713
------------------------------------------------------------
  Evaluating new KS density.
  Integration grid: deviation in total charge (<rho> - N_e) =   7.105427E-15
  Pulay mixing of updated and previous charge densities.

  Evaluating partitioned Hartree potential by multipole expansion.
  | Analytical far-field extrapolation by fixed multipoles:
  | Hartree multipole sum: apparent total charge =  -0.168541E-03
  Summing up the Hartree potential.
  Time summed over all CPUs for potential: real work        1.295 s, elapsed        1.302 s
  | RMS charge density error from multipole expansion :   0.127439E-02

  Integrating Hamiltonian matrix: batch-based integration.
  Time summed over all CPUs for integration: real work        1.306 s, elapsed        1.323 s

  Updating Kohn-Sham eigenvalues, eigenvectors, occupation numbers, and Fermi level.
  Solving generalized eigenproblem
  Updating Kohn-Sham eigenvalues and eigenfunctions.
  Solving real generalised eigenvalue problem by standard LAPACK (fast)

  Obtaining occupation numbers and chemical potential using ELSI.
  | Chemical potential (Fermi level):    -8.11814281eV
  Writing Kohn-Sham eigenvalues.

  State    Occupation    Eigenvalue [Ha]    Eigenvalue [eV]
      1       2.00000         -10.131522         -275.69274
      2       2.00000         -10.131522         -275.69274
      3       2.00000         -10.119686         -275.37065
      4       2.00000         -10.119122         -275.35532
      5       2.00000          -0.902059          -24.54627
      6       2.00000          -0.835633          -22.73873
      7       2.00000          -0.770686          -20.97142
      8       2.00000          -0.640415          -17.42658
      9       2.00000          -0.587524          -15.98735
     10       2.00000          -0.548177          -14.91665
     11       2.00000          -0.539071          -14.66887
     12       2.00000          -0.515008          -14.01409
     13       2.00000          -0.508353          -13.83299
     14       2.00000          -0.479208          -13.03990
     15       2.00000          -0.471921          -12.84163
     16       2.00000          -0.336024           -9.14369
     17       0.00000          -0.192638           -5.24195
     18       0.00000          -0.031681           -0.86208
     19       0.00000          -0.002460           -0.06695
     20       0.00000           0.001611            0.04384
     21       0.00000           0.013565            0.36911
     22       0.00000           0.022854            0.62188
     23       0.00000           0.026075            0.70955
     24       0.00000           0.035493            0.96582
     25       0.00000           0.050106            1.36345
     26       0.00000           0.065472            1.78158
     27       0.00000           0.124219            3.38017
     28       0.00000           0.183708            4.99896
     29       0.00000           0.193220            5.25779
     30       0.00000           0.234371            6.37755
     31       0.00000           0.240085            6.53304
     32       0.00000           0.248085            6.75074
     33       0.00000           0.292849            7.96884
     34       0.00000           0.312863            8.51343
     35       0.00000           0.328994            8.95237
     36       0.00000           0.351954            9.57716
     37       0.00000           0.403418           10.97756
     38       0.00000           0.439434           11.95761
     39       0.00000           0.516949           14.06689
     40       0.00000           0.534985           14.55767

  Highest occupied state (VBM) at     -9.14368514 eV
  | Occupation number:      2.00000000

  Lowest unoccupied state (CBM) at    -5.24194768 eV
  | Occupation number:      0.00000000

  Overall HOMO-LUMO gap:      3.90173746 eV.

  Total energy components:
  | Sum of eigenvalues            :         -95.27186136 Ha       -2592.47925158 eV
  | XC energy correction          :         -23.70968287 Ha        -645.17329692 eV
  | XC potential correction       :          30.45710512 Ha         828.77999810 eV
  | Free-atom electrostatic energy:         -68.06623303 Ha       -1852.17643850 eV
  | Hartree energy correction     :          -0.64604373 Ha         -17.57974424 eV
  | vdW energy correction         :           0.00000000 Ha           0.00000000 eV
  | Entropy correction            :           0.00000000 Ha           0.00000000 eV
  | ---------------------------
  | Total energy                  :        -157.23671587 Ha       -4278.62873315 eV
  | Total energy, T -> 0          :        -157.23671587 Ha       -4278.62873315 eV  <-- do not rely on this value for anything but (periodic) metals
  | Electronic free energy        :        -157.23671587 Ha       -4278.62873315 eV

  Derived energy quantities:
  | Kinetic energy                :         154.53610207 Ha        4205.14129257 eV
  | Electrostatic energy          :        -288.06313507 Ha       -7838.59672879 eV
  | Energy correction for multipole
  | error in Hartree potential    :           0.00219857 Ha           0.05982624 eV
  | Sum of eigenvalues per atom                           :        -216.03993763 eV
  | Total energy (T->0) per atom                          :        -356.55239443 eV  <-- do not rely on this value for anything but (periodic) metals
  | Electronic free energy per atom                       :        -356.55239443 eV

  Self-consistency convergence accuracy:
  | Change of charge density      :  0.4836E+00
  | Change of sum of eigenvalues  :  0.1841E+02 eV
  | Change of total energy        :  0.1312E+01 eV

  End self-consistency iteration #     1       :  max(cpu_time)    wall_clock(cpu1)
  | Time for this iteration                    :        0.524 s           0.523 s
  | Charge density update                      :        0.168 s           0.166 s
  | Density mixing                             :        0.004 s           0.002 s
  | Hartree multipole update                   :        0.012 s           0.010 s
  | Hartree multipole summation                :        0.168 s           0.169 s
  | Integration                                :        0.172 s           0.171 s
  | Solution of K.-S. eqns.                    :        0.004 s           0.002 s
  | Total energy evaluation                    :        0.000 s           0.000 s

  Partial memory accounting:
  | Current value for overall tracked memory usage on task 0  :           0.179 MB
  | Peak value for overall tracked memory usage on task 0     :           0.640 MB after allocating gradient_basis_wave
  | Largest tracked array allocation on task 0 so far         :           0.346 MB  when allocating gradient_basis_wave
  Note:  These values currently only include a subset of arrays which are explicitly tracked.
  The "true" memory usage will be greater.
------------------------------------------------------------

------------------------------------------------------------
          Begin self-consistency iteration #    2

  Date     :  20180215, Time     :  214411.236
------------------------------------------------------------
  Evaluating new KS density.
  Integration grid: deviation in total charge (<rho> - N_e) =  -3.552714E-15
  Pulay mixing of updated and previous charge densities.

  Evaluating partitioned Hartree potential by multipole expansion.
  | Analytical far-field extrapolation by fixed multipoles:
  | Hartree multipole sum: apparent total charge =  -0.425901E-03
  Summing up the Hartree potential.
  Time summed over all CPUs for potential: real work        1.300 s, elapsed        1.344 s
  | RMS charge density error from multipole expansion :   0.124564E-01

  Integrating Hamiltonian matrix: batch-based integration.
  Time summed over all CPUs for integration: real work        1.300 s, elapsed        1.324 s

  Updating Kohn-Sham eigenvalues, eigenvectors, occupation numbers, and Fermi level.
  Solving generalized eigenproblem
  Updating Kohn-Sham eigenvalues and eigenfunctions.
  Solving real generalised eigenvalue problem by standard LAPACK (fast)

  Obtaining occupation numbers and chemical potential using ELSI.
  | Chemical potential (Fermi level):    -4.67237572eV
  Highest occupied state (VBM) at     -5.43098200 eV
  | Occupation number:      2.00000000

  Lowest unoccupied state (CBM) at    -1.60810350 eV
  | Occupation number:      0.00000000

  Overall HOMO-LUMO gap:      3.82287850 eV.

  Checking to see if s.c.f. parameters should be adjusted.
  The system likely has a gap. Increased the default Pulay mixing parameter (charge_mix_param). Value:   0.200000 .
  Kept the default occupation width. Value:   0.010000 eV.

  Total energy components:
  | Sum of eigenvalues            :         -89.66606223 Ha       -2439.93769582 eV
  | XC energy correction          :         -24.25769667 Ha        -660.08551130 eV
  | XC potential correction       :          31.16706218 Ha         848.09891285 eV
  | Free-atom electrostatic energy:         -68.06623303 Ha       -1852.17643850 eV
  | Hartree energy correction     :          -6.21650578 Ha        -169.15972890 eV
  | vdW energy correction         :           0.00000000 Ha           0.00000000 eV
  | Entropy correction            :           0.00000000 Ha           0.00000000 eV
  | ---------------------------
  | Total energy                  :        -157.03943552 Ha       -4273.26046167 eV
  | Total energy, T -> 0          :        -157.03943552 Ha       -4273.26046167 eV  <-- do not rely on this value for anything but (periodic) metals
  | Electronic free energy        :        -157.03943552 Ha       -4273.26046167 eV

  Derived energy quantities:
  | Kinetic energy                :         156.90192058 Ha        4269.51848970 eV
  | Electrostatic energy          :        -289.68365943 Ha       -7882.69344007 eV
  | Energy correction for multipole
  | error in Hartree potential    :           0.02067623 Ha           0.56262887 eV
  | Sum of eigenvalues per atom                           :        -203.32814132 eV
  | Total energy (T->0) per atom                          :        -356.10503847 eV  <-- do not rely on this value for anything but (periodic) metals
  | Electronic free energy per atom                       :        -356.10503847 eV

  Self-consistency convergence accuracy:
  | Change of charge density      :  0.4448E+00
  | Change of sum of eigenvalues  :  0.1525E+03 eV
  | Change of total energy        :  0.5368E+01 eV

  End self-consistency iteration #     2       :  max(cpu_time)    wall_clock(cpu1)
  | Time for this iteration                    :        0.528 s           0.528 s
  | Charge density update                      :        0.168 s           0.164 s
  | Density mixing                             :        0.004 s           0.003 s
  | Hartree multipole update                   :        0.012 s           0.012 s
  | Hartree multipole summation                :        0.176 s           0.174 s
  | Integration                                :        0.172 s           0.171 s
  | Solution of K.-S. eqns.                    :        0.004 s           0.002 s
  | Total energy evaluation                    :        0.000 s           0.000 s

  Partial memory accounting:
  | Current value for overall tracked memory usage on task 0  :           0.180 MB
  | Peak value for overall tracked memory usage on task 0     :           0.640 MB after allocating gradient_basis_wave
  | Largest tracked array allocation on task 0 so far         :           0.346 MB  when allocating gradient_basis_wave
  Note:  These values currently only include a subset of arrays which are explicitly tracked.
  The "true" memory usage will be greater.
------------------------------------------------------------

------------------------------------------------------------
          Begin self-consistency iteration #    3

  Date     :  20180215, Time     :  214411.766
------------------------------------------------------------
  Evaluating new KS density.
  Integration grid: deviation in total charge (<rho> - N_e) =   2.131628E-14
  Pulay mixing of updated and previous charge densities.

  Evaluating partitioned Hartree potential by multipole expansion.
  | Analytical far-field extrapolation by fixed multipoles:
  | Hartree multipole sum: apparent total charge =  -0.431842E-03
  Summing up the Hartree potential.
  Time summed over all CPUs for potential: real work        1.283 s, elapsed        1.290 s
  | RMS charge density error from multipole expansion :   0.156121E-01

  Integrating Hamiltonian matrix: batch-based integration.
  Time summed over all CPUs for integration: real work        1.307 s, elapsed        1.345 s

  Updating Kohn-Sham eigenvalues, eigenvectors, occupation numbers, and Fermi level.
  Solving generalized eigenproblem
  Updating Kohn-Sham eigenvalues and eigenfunctions.
  Solving real generalised eigenvalue problem by standard LAPACK (fast)

  Obtaining occupation numbers and chemical potential using ELSI.
  | Chemical potential (Fermi level):    -5.13097851eV
  Highest occupied state (VBM) at     -6.01932905 eV
  | Occupation number:      2.00000000

  Lowest unoccupied state (CBM) at    -2.20588495 eV
  | Occupation number:      0.00000000

  Overall HOMO-LUMO gap:      3.81344410 eV.

  Total energy components:
  | Sum of eigenvalues            :         -90.56880171 Ha       -2464.50248711 eV
  | XC energy correction          :         -24.21855657 Ha        -659.02045488 eV
  | XC potential correction       :          31.11279810 Ha         846.62231192 eV
  | Free-atom electrostatic energy:         -68.06623303 Ha       -1852.17643850 eV
  | Hartree energy correction     :          -5.29267107 Ha        -144.02090763 eV
  | vdW energy correction         :           0.00000000 Ha           0.00000000 eV
  | Entropy correction            :           0.00000000 Ha           0.00000000 eV
  | ---------------------------
  | Total energy                  :        -157.03346429 Ha       -4273.09797620 eV
  | Total energy, T -> 0          :        -157.03346429 Ha       -4273.09797620 eV  <-- do not rely on this value for anything but (periodic) metals
  | Electronic free energy        :        -157.03346429 Ha       -4273.09797620 eV

  Derived energy quantities:
  | Kinetic energy                :         156.26179363 Ha        4252.09974920 eV
  | Electrostatic energy          :        -289.07670135 Ha       -7866.17727052 eV
  | Energy correction for multipole
  | error in Hartree potential    :           0.02479908 Ha           0.67481727 eV
  | Sum of eigenvalues per atom                           :        -205.37520726 eV
  | Total energy (T->0) per atom                          :        -356.09149802 eV  <-- do not rely on this value for anything but (periodic) metals
  | Electronic free energy per atom                       :        -356.09149802 eV

  Self-consistency convergence accuracy:
  | Change of charge density      :  0.2095E+00
  | Change of sum of eigenvalues  : -0.2456E+02 eV
  | Change of total energy        :  0.1625E+00 eV

  End self-consistency iteration #     3       :  max(cpu_time)    wall_clock(cpu1)
  | Time for this iteration                    :        0.528 s           0.525 s
  | Charge density update                      :        0.168 s           0.163 s
  | Density mixing                             :        0.004 s           0.004 s
  | Hartree multipole update                   :        0.012 s           0.011 s
  | Hartree multipole summation                :        0.168 s           0.167 s
  | Integration                                :        0.176 s           0.177 s
  | Solution of K.-S. eqns.                    :        0.004 s           0.002 s
  | Total energy evaluation                    :        0.000 s           0.001 s

  Partial memory accounting:
  | Current value for overall tracked memory usage on task 0  :           0.180 MB
  | Peak value for overall tracked memory usage on task 0     :           0.641 MB after allocating gradient_basis_wave
  | Largest tracked array allocation on task 0 so far         :           0.346 MB  when allocating gradient_basis_wave
  Note:  These values currently only include a subset of arrays which are explicitly tracked.
  The "true" memory usage will be greater.
------------------------------------------------------------

------------------------------------------------------------
          Begin self-consistency iteration #    4

  Date     :  20180215, Time     :  214412.292
------------------------------------------------------------
  Evaluating new KS density.
  Integration grid: deviation in total charge (<rho> - N_e) =   0.000000E+00
  Pulay mixing of updated and previous charge densities.

  Evaluating partitioned Hartree potential by multipole expansion.
  | Analytical far-field extrapolation by fixed multipoles:
  | Hartree multipole sum: apparent total charge =  -0.513822E-03
  Summing up the Hartree potential.
  Time summed over all CPUs for potential: real work        1.293 s, elapsed        1.307 s
  | RMS charge density error from multipole expansion :   0.210760E-01

  Integrating Hamiltonian matrix: batch-based integration.
  Time summed over all CPUs for integration: real work        1.321 s, elapsed        1.338 s

  Updating Kohn-Sham eigenvalues, eigenvectors, occupation numbers, and Fermi level.
  Solving generalized eigenproblem
  Updating Kohn-Sham eigenvalues and eigenfunctions.
  Solving real generalised eigenvalue problem by standard LAPACK (fast)

  Obtaining occupation numbers and chemical potential using ELSI.
  | Chemical potential (Fermi level):    -4.44878137eV
  Highest occupied state (VBM) at     -5.37351763 eV
  | Occupation number:      2.00000000

  Lowest unoccupied state (CBM) at    -1.59734393 eV
  | Occupation number:      0.00000000

  Overall HOMO-LUMO gap:      3.77617370 eV.

  Total energy components:
  | Sum of eigenvalues            :         -89.67182637 Ha       -2440.09454623 eV
  | XC energy correction          :         -24.35441393 Ha        -662.71732160 eV
  | XC potential correction       :          31.28657666 Ha         851.35106710 eV
  | Free-atom electrostatic energy:         -68.06623303 Ha       -1852.17643850 eV
  | Hartree energy correction     :          -6.21729560 Ha        -169.18122126 eV
  | vdW energy correction         :           0.00000000 Ha           0.00000000 eV
  | Entropy correction            :           0.00000000 Ha           0.00000000 eV
  | ---------------------------
  | Total energy                  :        -157.02319228 Ha       -4272.81846049 eV
  | Total energy, T -> 0          :        -157.02319228 Ha       -4272.81846049 eV  <-- do not rely on this value for anything but (periodic) metals
  | Electronic free energy        :        -157.02319228 Ha       -4272.81846049 eV

  Derived energy quantities:
  | Kinetic energy                :         156.32746901 Ha        4253.88686713 eV
  | Electrostatic energy          :        -288.99624736 Ha       -7863.98800602 eV
  | Energy correction for multipole
  | error in Hartree potential    :           0.03179725 Ha           0.86524723 eV
  | Sum of eigenvalues per atom                           :        -203.34121219 eV
  | Total energy (T->0) per atom                          :        -356.06820504 eV  <-- do not rely on this value for anything but (periodic) metals
  | Electronic free energy per atom                       :        -356.06820504 eV

  Self-consistency convergence accuracy:
  | Change of charge density      :  0.1251E+00
  | Change of sum of eigenvalues  :  0.2441E+02 eV
  | Change of total energy        :  0.2795E+00 eV

  End self-consistency iteration #     4       :  max(cpu_time)    wall_clock(cpu1)
  | Time for this iteration                    :        0.528 s           0.527 s
  | Charge density update                      :        0.168 s           0.164 s
  | Density mixing                             :        0.008 s           0.006 s
  | Hartree multipole update                   :        0.012 s           0.010 s
  | Hartree multipole summation                :        0.172 s           0.170 s
  | Integration                                :        0.172 s           0.173 s
  | Solution of K.-S. eqns.                    :        0.004 s           0.002 s
  | Total energy evaluation                    :        0.004 s           0.001 s

  Partial memory accounting:
  | Current value for overall tracked memory usage on task 0  :           0.180 MB
  | Peak value for overall tracked memory usage on task 0     :           0.641 MB after allocating gradient_basis_wave
  | Largest tracked array allocation on task 0 so far         :           0.346 MB  when allocating gradient_basis_wave
  Note:  These values currently only include a subset of arrays which are explicitly tracked.
  The "true" memory usage will be greater.
------------------------------------------------------------

------------------------------------------------------------
          Begin self-consistency iteration #    5

  Date     :  20180215, Time     :  214412.819
------------------------------------------------------------
  Evaluating new KS density.
  Integration grid: deviation in total charge (<rho> - N_e) =   7.105427E-15
  Pulay mixing of updated and previous charge densities.

  Evaluating partitioned Hartree potential by multipole expansion.
  | Analytical far-field extrapolation by fixed multipoles:
  | Hartree multipole sum: apparent total charge =  -0.540962E-03
  Summing up the Hartree potential.
  Time summed over all CPUs for potential: real work        1.287 s, elapsed        1.294 s
  | RMS charge density error from multipole expansion :   0.217717E-01

  Integrating Hamiltonian matrix: batch-based integration.
  Time summed over all CPUs for integration: real work        1.303 s, elapsed        1.319 s

  Updating Kohn-Sham eigenvalues, eigenvectors, occupation numbers, and Fermi level.
  Solving generalized eigenproblem
  Updating Kohn-Sham eigenvalues and eigenfunctions.
  Solving real generalised eigenvalue problem by standard LAPACK (fast)

  Obtaining occupation numbers and chemical potential using ELSI.
  | Chemical potential (Fermi level):    -4.23625923eV
  Highest occupied state (VBM) at     -5.12421245 eV
  | Occupation number:      2.00000000

  Lowest unoccupied state (CBM) at    -1.34958676 eV
  | Occupation number:      0.00000000

  Overall HOMO-LUMO gap:      3.77462568 eV.

  Total energy components:
  | Sum of eigenvalues            :         -89.41120430 Ha       -2433.00265881 eV
  | XC energy correction          :         -24.37706114 Ha        -663.33358366 eV
  | XC potential correction       :          31.31597976 Ha         852.15116631 eV
  | Free-atom electrostatic energy:         -68.06623303 Ha       -1852.17643850 eV
  | Hartree energy correction     :          -6.48343733 Ha        -176.42330596 eV
  | vdW energy correction         :           0.00000000 Ha           0.00000000 eV
  | Entropy correction            :           0.00000000 Ha           0.00000000 eV
  | ---------------------------
  | Total energy                  :        -157.02195604 Ha       -4272.78482061 eV
  | Total energy, T -> 0          :        -157.02195604 Ha       -4272.78482061 eV  <-- do not rely on this value for anything but (periodic) metals
  | Electronic free energy        :        -157.02195604 Ha       -4272.78482061 eV

  Derived energy quantities:
  | Kinetic energy                :         156.30066427 Ha        4253.15747295 eV
  | Electrostatic energy          :        -288.94555916 Ha       -7862.60870991 eV
  | Energy correction for multipole
  | error in Hartree potential    :           0.03136695 Ha           0.85353825 eV
  | Sum of eigenvalues per atom                           :        -202.75022157 eV
  | Total energy (T->0) per atom                          :        -356.06540172 eV  <-- do not rely on this value for anything but (periodic) metals
  | Electronic free energy per atom                       :        -356.06540172 eV

  Self-consistency convergence accuracy:
  | Change of charge density      :  0.3295E-01
  | Change of sum of eigenvalues  :  0.7092E+01 eV
  | Change of total energy        :  0.3364E-01 eV

  End self-consistency iteration #     5       :  max(cpu_time)    wall_clock(cpu1)
  | Time for this iteration                    :        0.524 s           0.524 s
  | Charge density update                      :        0.168 s           0.164 s
  | Density mixing                             :        0.008 s           0.008 s
  | Hartree multipole update                   :        0.012 s           0.010 s
  | Hartree multipole summation                :        0.168 s           0.168 s
  | Integration                                :        0.172 s           0.171 s
  | Solution of K.-S. eqns.                    :        0.004 s           0.002 s
  | Total energy evaluation                    :        0.000 s           0.001 s

  Partial memory accounting:
  | Current value for overall tracked memory usage on task 0  :           0.180 MB
  | Peak value for overall tracked memory usage on task 0     :           0.641 MB after allocating gradient_basis_wave
  | Largest tracked array allocation on task 0 so far         :           0.346 MB  when allocating gradient_basis_wave
  Note:  These values currently only include a subset of arrays which are explicitly tracked.
  The "true" memory usage will be greater.
------------------------------------------------------------

------------------------------------------------------------
          Begin self-consistency iteration #    6

  Date     :  20180215, Time     :  214413.344
------------------------------------------------------------
  Evaluating new KS density.
  Integration grid: deviation in total charge (<rho> - N_e) =   2.131628E-14
  Pulay mixing of updated and previous charge densities.

  Evaluating partitioned Hartree potential by multipole expansion.
  | Analytical far-field extrapolation by fixed multipoles:
  | Hartree multipole sum: apparent total charge =  -0.558320E-03
  Summing up the Hartree potential.
  Time summed over all CPUs for potential: real work        1.296 s, elapsed        1.318 s
  | RMS charge density error from multipole expansion :   0.220620E-01

  Integrating Hamiltonian matrix: batch-based integration.
  Time summed over all CPUs for integration: real work        1.310 s, elapsed        1.326 s

  Updating Kohn-Sham eigenvalues, eigenvectors, occupation numbers, and Fermi level.
  Solving generalized eigenproblem
  Updating Kohn-Sham eigenvalues and eigenfunctions.
  Solving real generalised eigenvalue problem by standard LAPACK (fast)

  Obtaining occupation numbers and chemical potential using ELSI.
  | Chemical potential (Fermi level):    -4.16118162eV
  Highest occupied state (VBM) at     -5.04410243 eV
  | Occupation number:      2.00000000

  Lowest unoccupied state (CBM) at    -1.27095140 eV
  | Occupation number:      0.00000000

  Overall HOMO-LUMO gap:      3.77315102 eV.

  Total energy components:
  | Sum of eigenvalues            :         -89.31755037 Ha       -2430.45420579 eV
  | XC energy correction          :         -24.38694472 Ha        -663.60252966 eV
  | XC potential correction       :          31.32881523 Ha         852.50043714 eV
  | Free-atom electrostatic energy:         -68.06623303 Ha       -1852.17643850 eV
  | Hartree energy correction     :          -6.57982097 Ha        -179.04603842 eV
  | vdW energy correction         :           0.00000000 Ha           0.00000000 eV
  | Entropy correction            :           0.00000000 Ha           0.00000000 eV
  | ---------------------------
  | Total energy                  :        -157.02173387 Ha       -4272.77877523 eV
  | Total energy, T -> 0          :        -157.02173387 Ha       -4272.77877523 eV  <-- do not rely on this value for anything but (periodic) metals
  | Electronic free energy        :        -157.02173387 Ha       -4272.77877523 eV

  Derived energy quantities:
  | Kinetic energy                :         156.25594982 Ha        4251.94073101 eV
  | Electrostatic energy          :        -288.89073897 Ha       -7861.11697658 eV
  | Energy correction for multipole
  | error in Hartree potential    :           0.03058956 Ha           0.83238427 eV
  | Sum of eigenvalues per atom                           :        -202.53785048 eV
  | Total energy (T->0) per atom                          :        -356.06489794 eV  <-- do not rely on this value for anything but (periodic) metals
  | Electronic free energy per atom                       :        -356.06489794 eV

  Self-consistency convergence accuracy:
  | Change of charge density      :  0.1541E-01
  | Change of sum of eigenvalues  :  0.2548E+01 eV
  | Change of total energy        :  0.6045E-02 eV

  End self-consistency iteration #     6       :  max(cpu_time)    wall_clock(cpu1)
  | Time for this iteration                    :        0.532 s           0.531 s
  | Charge density update                      :        0.168 s           0.164 s
  | Density mixing                             :        0.012 s           0.011 s
  | Hartree multipole update                   :        0.012 s           0.010 s
  | Hartree multipole summation                :        0.172 s           0.171 s
  | Integration                                :        0.172 s           0.171 s
  | Solution of K.-S. eqns.                    :        0.004 s           0.003 s
  | Total energy evaluation                    :        0.000 s           0.001 s

  Partial memory accounting:
  | Current value for overall tracked memory usage on task 0  :           0.180 MB
  | Peak value for overall tracked memory usage on task 0     :           0.641 MB after allocating gradient_basis_wave
  | Largest tracked array allocation on task 0 so far         :           0.346 MB  when allocating gradient_basis_wave
  Note:  These values currently only include a subset of arrays which are explicitly tracked.
  The "true" memory usage will be greater.
------------------------------------------------------------

------------------------------------------------------------
          Begin self-consistency iteration #    7

  Date     :  20180215, Time     :  214413.876
------------------------------------------------------------
  Evaluating new KS density.
  Integration grid: deviation in total charge (<rho> - N_e) =   3.552714E-14
  Pulay mixing of updated and previous charge densities.

  Evaluating partitioned Hartree potential by multipole expansion.
  | Analytical far-field extrapolation by fixed multipoles:
  | Hartree multipole sum: apparent total charge =  -0.561299E-03
  Summing up the Hartree potential.
  Time summed over all CPUs for potential: real work        1.284 s, elapsed        1.291 s
  | RMS charge density error from multipole expansion :   0.220476E-01

  Integrating Hamiltonian matrix: batch-based integration.
  Time summed over all CPUs for integration: real work        1.313 s, elapsed        1.336 s

  Updating Kohn-Sham eigenvalues, eigenvectors, occupation numbers, and Fermi level.
  Solving generalized eigenproblem
  Updating Kohn-Sham eigenvalues and eigenfunctions.
  Solving real generalised eigenvalue problem by standard LAPACK (fast)

  Obtaining occupation numbers and chemical potential using ELSI.
  | Chemical potential (Fermi level):    -4.14178439eV
  Highest occupied state (VBM) at     -5.01988398 eV
  | Occupation number:      2.00000000

  Lowest unoccupied state (CBM) at    -1.24691935 eV
  | Occupation number:      0.00000000

  Overall HOMO-LUMO gap:      3.77296463 eV.

  Total energy components:
  | Sum of eigenvalues            :         -89.29231155 Ha       -2429.76742241 eV
  | XC energy correction          :         -24.38848510 Ha        -663.64444535 eV
  | XC potential correction       :          31.33087064 Ha         852.55636775 eV
  | Free-atom electrostatic energy:         -68.06623303 Ha       -1852.17643850 eV
  | Hartree energy correction     :          -6.60553646 Ha        -179.74579233 eV
  | vdW energy correction         :           0.00000000 Ha           0.00000000 eV
  | Entropy correction            :           0.00000000 Ha           0.00000000 eV
  | ---------------------------
  | Total energy                  :        -157.02169549 Ha       -4272.77773084 eV
  | Total energy, T -> 0          :        -157.02169549 Ha       -4272.77773084 eV  <-- do not rely on this value for anything but (periodic) metals
  | Electronic free energy        :        -157.02169549 Ha       -4272.77773084 eV

  Derived energy quantities:
  | Kinetic energy                :         156.25457163 Ha        4251.90322851 eV
  | Electrostatic energy          :        -288.88778202 Ha       -7861.03651401 eV
  | Energy correction for multipole
  | error in Hartree potential    :           0.03035123 Ha           0.82589904 eV
  | Sum of eigenvalues per atom                           :        -202.48061853 eV
  | Total energy (T->0) per atom                          :        -356.06481090 eV  <-- do not rely on this value for anything but (periodic) metals
  | Electronic free energy per atom                       :        -356.06481090 eV

  Self-consistency convergence accuracy:
  | Change of charge density      :  0.6701E-02
  | Change of sum of eigenvalues  :  0.6868E+00 eV
  | Change of total energy        :  0.1044E-02 eV

  End self-consistency iteration #     7       :  max(cpu_time)    wall_clock(cpu1)
  | Time for this iteration                    :        0.532 s           0.529 s
  | Charge density update                      :        0.168 s           0.163 s
  | Density mixing                             :        0.012 s           0.011 s
  | Hartree multipole update                   :        0.012 s           0.011 s
  | Hartree multipole summation                :        0.168 s           0.167 s
  | Integration                                :        0.176 s           0.173 s
  | Solution of K.-S. eqns.                    :        0.004 s           0.002 s
  | Total energy evaluation                    :        0.000 s           0.000 s

  Partial memory accounting:
  | Current value for overall tracked memory usage on task 0  :           0.180 MB
  | Peak value for overall tracked memory usage on task 0     :           0.641 MB after allocating gradient_basis_wave
  | Largest tracked array allocation on task 0 so far         :           0.346 MB  when allocating gradient_basis_wave
  Note:  These values currently only include a subset of arrays which are explicitly tracked.
  The "true" memory usage will be greater.
------------------------------------------------------------

------------------------------------------------------------
          Begin self-consistency iteration #    8

  Date     :  20180215, Time     :  214414.405
------------------------------------------------------------
  Evaluating new KS density.
  Integration grid: deviation in total charge (<rho> - N_e) =   1.421085E-14
  Pulay mixing of updated and previous charge densities.

  Evaluating partitioned Hartree potential by multipole expansion.
  | Analytical far-field extrapolation by fixed multipoles:
  | Hartree multipole sum: apparent total charge =  -0.569213E-03
  Summing up the Hartree potential.
  Time summed over all CPUs for potential: real work        1.286 s, elapsed        1.294 s
  | RMS charge density error from multipole expansion :   0.220984E-01

  Integrating Hamiltonian matrix: batch-based integration.
  Time summed over all CPUs for integration: real work        1.319 s, elapsed        1.336 s

  Updating Kohn-Sham eigenvalues, eigenvectors, occupation numbers, and Fermi level.
  Solving generalized eigenproblem
  Updating Kohn-Sham eigenvalues and eigenfunctions.
  Solving real generalised eigenvalue problem by standard LAPACK (fast)

  Obtaining occupation numbers and chemical potential using ELSI.
  | Chemical potential (Fermi level):    -4.08988474eV
  Highest occupied state (VBM) at     -4.95811214 eV
  | Occupation number:      2.00000000

  Lowest unoccupied state (CBM) at    -1.18734553 eV
  | Occupation number:      0.00000000

  Overall HOMO-LUMO gap:      3.77076661 eV.

  Total energy components:
  | Sum of eigenvalues            :         -89.22731105 Ha       -2427.99866888 eV
  | XC energy correction          :         -24.39452975 Ha        -663.80892875 eV
  | XC potential correction       :          31.33878641 Ha         852.77176677 eV
  | Free-atom electrostatic energy:         -68.06623303 Ha       -1852.17643850 eV
  | Hartree energy correction     :          -6.67236242 Ha        -181.56421941 eV
  | vdW energy correction         :           0.00000000 Ha           0.00000000 eV
  | Entropy correction            :           0.00000000 Ha           0.00000000 eV
  | ---------------------------
  | Total energy                  :        -157.02164985 Ha       -4272.77648876 eV
  | Total energy, T -> 0          :        -157.02164985 Ha       -4272.77648876 eV  <-- do not rely on this value for anything but (periodic) metals
  | Electronic free energy        :        -157.02164985 Ha       -4272.77648876 eV

  Derived energy quantities:
  | Kinetic energy                :         156.25402234 Ha        4251.88828146 eV
  | Electrostatic energy          :        -288.88114243 Ha       -7860.85584148 eV
  | Energy correction for multipole
  | error in Hartree potential    :           0.02994335 Ha           0.81480014 eV
  | Sum of eigenvalues per atom                           :        -202.33322241 eV
  | Total energy (T->0) per atom                          :        -356.06470740 eV  <-- do not rely on this value for anything but (periodic) metals
  | Electronic free energy per atom                       :        -356.06470740 eV

  Self-consistency convergence accuracy:
  | Change of charge density      :  0.5265E-02
  | Change of sum of eigenvalues  :  0.1769E+01 eV
  | Change of total energy        :  0.1242E-02 eV

  End self-consistency iteration #     8       :  max(cpu_time)    wall_clock(cpu1)
  | Time for this iteration                    :        0.536 s           0.533 s
  | Charge density update                      :        0.168 s           0.165 s
  | Density mixing                             :        0.012 s           0.014 s
  | Hartree multipole update                   :        0.012 s           0.010 s
  | Hartree multipole summation                :        0.168 s           0.168 s
  | Integration                                :        0.176 s           0.173 s
  | Solution of K.-S. eqns.                    :        0.004 s           0.002 s
  | Total energy evaluation                    :        0.004 s           0.001 s

  Partial memory accounting:
  | Current value for overall tracked memory usage on task 0  :           0.180 MB
  | Peak value for overall tracked memory usage on task 0     :           0.641 MB after allocating gradient_basis_wave
  | Largest tracked array allocation on task 0 so far         :           0.346 MB  when allocating gradient_basis_wave
  Note:  These values currently only include a subset of arrays which are explicitly tracked.
  The "true" memory usage will be greater.
------------------------------------------------------------

------------------------------------------------------------
          Begin self-consistency iteration #    9

  Date     :  20180215, Time     :  214414.940
------------------------------------------------------------
  Evaluating new KS density.
  Integration grid: deviation in total charge (<rho> - N_e) =   1.421085E-14
  Pulay mixing of updated and previous charge densities.

  Evaluating partitioned Hartree potential by multipole expansion.
  | Analytical far-field extrapolation by fixed multipoles:
  | Hartree multipole sum: apparent total charge =  -0.571244E-03
  Summing up the Hartree potential.
  Time summed over all CPUs for potential: real work        1.290 s, elapsed        1.312 s
  | RMS charge density error from multipole expansion :   0.221119E-01

  Integrating Hamiltonian matrix: batch-based integration.
  Time summed over all CPUs for integration: real work        1.320 s, elapsed        1.349 s

  Updating Kohn-Sham eigenvalues, eigenvectors, occupation numbers, and Fermi level.
  Solving generalized eigenproblem
  Updating Kohn-Sham eigenvalues and eigenfunctions.
  Solving real generalised eigenvalue problem by standard LAPACK (fast)

  Obtaining occupation numbers and chemical potential using ELSI.
  | Chemical potential (Fermi level):    -4.07557752eV
  Highest occupied state (VBM) at     -4.94238298 eV
  | Occupation number:      2.00000000

  Lowest unoccupied state (CBM) at    -1.17215140 eV
  | Occupation number:      0.00000000

  Overall HOMO-LUMO gap:      3.77023157 eV.

  Total energy components:
  | Sum of eigenvalues            :         -89.20905547 Ha       -2427.50190921 eV
  | XC energy correction          :         -24.39645064 Ha        -663.86119892 eV
  | XC potential correction       :          31.34129188 Ha         852.83994412 eV
  | Free-atom electrostatic energy:         -68.06623303 Ha       -1852.17643850 eV
  | Hartree energy correction     :          -6.69120070 Ha        -182.07683506 eV
  | vdW energy correction         :           0.00000000 Ha           0.00000000 eV
  | Entropy correction            :           0.00000000 Ha           0.00000000 eV
  | ---------------------------
  | Total energy                  :        -157.02164796 Ha       -4272.77643757 eV
  | Total energy, T -> 0          :        -157.02164796 Ha       -4272.77643757 eV  <-- do not rely on this value for anything but (periodic) metals
  | Electronic free energy        :        -157.02164796 Ha       -4272.77643757 eV

  Derived energy quantities:
  | Kinetic energy                :         156.25652531 Ha        4251.95639092 eV
  | Electrostatic energy          :        -288.88172263 Ha       -7860.87162957 eV
  | Energy correction for multipole
  | error in Hartree potential    :           0.02985946 Ha           0.81251736 eV
  | Sum of eigenvalues per atom                           :        -202.29182577 eV
  | Total energy (T->0) per atom                          :        -356.06470313 eV  <-- do not rely on this value for anything but (periodic) metals
  | Electronic free energy per atom                       :        -356.06470313 eV

  Self-consistency convergence accuracy:
  | Change of charge density      :  0.1221E-02
  | Change of sum of eigenvalues  :  0.4968E+00 eV
  | Change of total energy        :  0.5119E-04 eV

  End self-consistency iteration #     9       :  max(cpu_time)    wall_clock(cpu1)
  | Time for this iteration                    :        0.536 s           0.536 s
  | Charge density update                      :        0.168 s           0.165 s
  | Density mixing                             :        0.016 s           0.013 s
  | Hartree multipole update                   :        0.012 s           0.010 s
  | Hartree multipole summation                :        0.172 s           0.170 s
  | Integration                                :        0.176 s           0.175 s
  | Solution of K.-S. eqns.                    :        0.004 s           0.002 s
  | Total energy evaluation                    :        0.000 s           0.001 s

  Partial memory accounting:
  | Current value for overall tracked memory usage on task 0  :           0.180 MB
  | Peak value for overall tracked memory usage on task 0     :           0.641 MB after allocating gradient_basis_wave
  | Largest tracked array allocation on task 0 so far         :           0.346 MB  when allocating gradient_basis_wave
  Note:  These values currently only include a subset of arrays which are explicitly tracked.
  The "true" memory usage will be greater.
------------------------------------------------------------

------------------------------------------------------------
          Begin self-consistency iteration #   10

  Date     :  20180215, Time     :  214415.477
------------------------------------------------------------
  Evaluating new KS density.
  Integration grid: deviation in total charge (<rho> - N_e) =  -3.552714E-15
  Pulay mixing of updated and previous charge densities.

  Evaluating partitioned Hartree potential by multipole expansion.
  | Analytical far-field extrapolation by fixed multipoles:
  | Hartree multipole sum: apparent total charge =  -0.571203E-03
  Summing up the Hartree potential.
  Time summed over all CPUs for potential: real work        1.285 s, elapsed        1.292 s
  | RMS charge density error from multipole expansion :   0.221127E-01

  Integrating Hamiltonian matrix: batch-based integration.
  Time summed over all CPUs for integration: real work        1.316 s, elapsed        1.334 s

[...]
  |   Hirshfeld dipole moment :      0.08915492
  |   Hirshfeld second moments:      0.10445841      -0.00654603      -0.00323551
  |                                 -0.00654603       0.08979590       0.00629016
  |                                 -0.00323551       0.00629016       0.10354925
  ----------------------------------------------------------------------
  | Atom     8: H
  |   Hirshfeld charge        :      0.03323302
  |   Free atom volume        :      9.95071624
  |   Hirshfeld volume        :      6.42654520
  |   Hirshfeld dipole vector :     -0.04842994       0.01706802       0.07290094
  |   Hirshfeld dipole moment :      0.08917019
  |   Hirshfeld second moments:      0.09864326      -0.00197002       0.00910498
  |                                 -0.00197002       0.09574654      -0.00020959
  |                                  0.00910498      -0.00020959       0.09078464
  ----------------------------------------------------------------------
  | Atom     9: H
  |   Hirshfeld charge        :      0.03323302
  |   Free atom volume        :      9.95071624
  |   Hirshfeld volume        :      6.42654519
  |   Hirshfeld dipole vector :      0.04842994      -0.01706801       0.07290094
  |   Hirshfeld dipole moment :      0.08917019
  |   Hirshfeld second moments:      0.09864326      -0.00197002      -0.00910498
  |                                 -0.00197002       0.09574655       0.00020959
  |                                 -0.00910498       0.00020959       0.09078464
  ----------------------------------------------------------------------
  | Atom    10: H
  |   Hirshfeld charge        :      0.04183341
  |   Free atom volume        :      9.95071624
  |   Hirshfeld volume        :      6.28263357
  |   Hirshfeld dipole vector :     -0.04158381       0.02245387      -0.07498092
  |   Hirshfeld dipole moment :      0.08863141
  |   Hirshfeld second moments:      0.09843642      -0.00045089      -0.00603155
  |                                 -0.00045089       0.10705025       0.00354923
  |                                 -0.00603155       0.00354923       0.09040688
  ----------------------------------------------------------------------
  | Atom    11: H
  |   Hirshfeld charge        :      0.04640628
  |   Free atom volume        :      9.95071624
  |   Hirshfeld volume        :      6.24241000
  |   Hirshfeld dipole vector :      0.01585201       0.07902718       0.03810538
  |   Hirshfeld dipole moment :      0.08915492
  |   Hirshfeld second moments:      0.10445841      -0.00654603       0.00323551
  |                                 -0.00654603       0.08979590      -0.00629016
  |                                  0.00323551      -0.00629016       0.10354925
  ----------------------------------------------------------------------
  | Atom    12: H
  |   Hirshfeld charge        :      0.04014012
  |   Free atom volume        :      9.95071624
  |   Hirshfeld volume        :      6.10061252
  |   Hirshfeld dipole vector :      0.08173369      -0.02585008      -0.01718993
  |   Hirshfeld dipole moment :      0.08743064
  |   Hirshfeld second moments:      0.09011902       0.00611702       0.00667066
  |                                  0.00611702       0.10576254      -0.00244655
  |                                  0.00667066      -0.00244655       0.10934328
  ----------------------------------------------------------------------


  Total energy components:
  | Sum of eigenvalues            :         -89.20824443 Ha       -2427.47983974 eV
  | XC energy correction          :         -24.39663661 Ha        -663.86625919 eV
  | XC potential correction       :          31.34153005 Ha         852.84642496 eV
  | Free-atom electrostatic energy:         -68.06623303 Ha       -1852.17643850 eV
  | Hartree energy correction     :          -6.69206458 Ha        -182.10034244 eV
  | vdW energy correction         :          -0.00240750 Ha          -0.06551153 eV
  | Entropy correction            :           0.00000000 Ha           0.00000000 eV
  | ---------------------------
  | Total energy                  :        -157.02405611 Ha       -4272.84196644 eV
  | Total energy, T -> 0          :        -157.02405611 Ha       -4272.84196644 eV  <-- do not rely on this value for anything but (periodic) metals
  | Electronic free energy        :        -157.02405611 Ha       -4272.84196644 eV

  Derived energy quantities:
  | Kinetic energy                :         156.25725109 Ha        4251.97614021 eV
  | Electrostatic energy          :        -288.88226308 Ha       -7860.88633593 eV
  | Energy correction for multipole
  | error in Hartree potential    :           0.02986554 Ha           0.81268282 eV
  | Sum of eigenvalues per atom                           :        -202.28998664 eV
  | Total energy (T->0) per atom                          :        -356.07016387 eV  <-- do not rely on this value for anything but (periodic) metals
  | Electronic free energy per atom                       :        -356.07016387 eV

  atomic forces [eV/Ang]:
  -----------------------
  atom #    1
   Hellmann-Feynman              :  0.520972E-01 -0.896077E-01  0.241240E-01
   Ionic forces                  :  0.000000E+00  0.000000E+00  0.000000E+00
   Multipole                     : -0.336276E+00 -0.265053E+00 -0.343044E+00
   Pulay + GGA                   :  0.288953E+00  0.451079E+00  0.241407E+00
   Van der Waals                 :  0.592380E-02  0.328313E-02 -0.232847E-03
   ----------------------------------------------------------------
   Total forces(   1)            :  0.106980E-01  0.997010E-01 -0.777451E-01
  atom #    2
   Hellmann-Feynman              :  0.149231E+01  0.246415E+00  0.410366E+00
   Ionic forces                  :  0.000000E+00  0.000000E+00  0.000000E+00
   Multipole                     :  0.316830E-01 -0.585124E-01  0.302966E+00
   Pulay + GGA                   : -0.146541E+01 -0.379471E+00 -0.593386E+00
   Van der Waals                 : -0.249959E-02 -0.344857E-02  0.598871E-02
   ----------------------------------------------------------------
   Total forces(   2)            :  0.560826E-01 -0.195017E+00  0.125934E+00
  atom #    3
   Hellmann-Feynman              : -0.149231E+01 -0.246415E+00  0.410366E+00
   Ionic forces                  :  0.000000E+00  0.000000E+00  0.000000E+00
   Multipole                     : -0.316830E-01  0.585125E-01  0.302966E+00
   Pulay + GGA                   :  0.146541E+01  0.379471E+00 -0.593386E+00
   Van der Waals                 :  0.249960E-02  0.344857E-02  0.598871E-02
   ----------------------------------------------------------------
   Total forces(   3)            : -0.560825E-01  0.195017E+00  0.125934E+00
  atom #    4
   Hellmann-Feynman              : -0.520971E-01  0.896078E-01  0.241239E-01
   Ionic forces                  :  0.000000E+00  0.000000E+00  0.000000E+00
   Multipole                     :  0.336276E+00  0.265053E+00 -0.343044E+00
   Pulay + GGA                   : -0.288953E+00 -0.451079E+00  0.241407E+00
   Van der Waals                 : -0.592380E-02 -0.328313E-02 -0.232847E-03
   ----------------------------------------------------------------
   Total forces(   4)            : -0.106980E-01 -0.997010E-01 -0.777451E-01
  atom #    5
   Hellmann-Feynman              :  0.393733E-02  0.263636E+00 -0.115106E+00
   Ionic forces                  :  0.000000E+00  0.000000E+00  0.000000E+00
   Multipole                     :  0.189597E-01 -0.643979E-01 -0.117962E+00
   Pulay + GGA                   : -0.460482E-01  0.211339E-01  0.100770E+00
   Van der Waals                 :  0.164527E-02  0.248519E-02 -0.153641E-02
   ----------------------------------------------------------------
   Total forces(   5)            : -0.215059E-01  0.222857E+00 -0.133835E+00
  atom #    6
   Hellmann-Feynman              :  0.591859E-01  0.247499E+00 -0.312062E-01
   Ionic forces                  :  0.000000E+00  0.000000E+00  0.000000E+00
   Multipole                     : -0.118972E+00  0.438691E-02 -0.603591E-01
   Pulay + GGA                   :  0.989733E-01 -0.285202E-01  0.217420E-01
   Van der Waals                 :  0.284415E-02  0.100661E-02 -0.263633E-02
   ----------------------------------------------------------------
   Total forces(   6)            :  0.420312E-01  0.224373E+00 -0.724595E-01
  atom #    7
   Hellmann-Feynman              : -0.976900E-01  0.788735E-01 -0.193604E+00
   Ionic forces                  :  0.000000E+00  0.000000E+00  0.000000E+00
   Multipole                     : -0.180393E-01 -0.877594E-01  0.116376E-01
   Pulay + GGA                   :  0.352334E-01  0.830552E-01 -0.320966E-01
   Van der Waals                 :  0.265725E-03 -0.324259E-02 -0.268251E-02
   ----------------------------------------------------------------
   Total forces(   7)            : -0.802302E-01  0.709267E-01 -0.216745E+00
  atom #    8
   Hellmann-Feynman              :  0.208059E+00 -0.926245E+00  0.322935E+00
   Ionic forces                  :  0.000000E+00  0.000000E+00  0.000000E+00
   Multipole                     : -0.485572E-01  0.539563E-01  0.143638E+00
   Pulay + GGA                   :  0.664069E-01  0.140841E-01 -0.936813E-01
   Van der Waals                 :  0.378610E-02  0.572262E-02  0.109938E-02
   ----------------------------------------------------------------
   Total forces(   8)            :  0.229695E+00 -0.852482E+00  0.373991E+00
  atom #    9
   Hellmann-Feynman              : -0.208059E+00  0.926245E+00  0.322935E+00
   Ionic forces                  :  0.000000E+00  0.000000E+00  0.000000E+00
   Multipole                     :  0.485572E-01 -0.539563E-01  0.143638E+00
   Pulay + GGA                   : -0.664069E-01 -0.140841E-01 -0.936813E-01
   Van der Waals                 : -0.378610E-02 -0.572261E-02  0.109937E-02
   ----------------------------------------------------------------
   Total forces(   9)            : -0.229695E+00  0.852482E+00  0.373991E+00
  atom #   10
   Hellmann-Feynman              : -0.393732E-02 -0.263636E+00 -0.115106E+00
   Ionic forces                  :  0.000000E+00  0.000000E+00  0.000000E+00
   Multipole                     : -0.189597E-01  0.643979E-01 -0.117962E+00
   Pulay + GGA                   :  0.460482E-01 -0.211340E-01  0.100770E+00
   Van der Waals                 : -0.164527E-02 -0.248519E-02 -0.153641E-02
   ----------------------------------------------------------------
   Total forces(  10)            :  0.215059E-01 -0.222857E+00 -0.133835E+00
  atom #   11
   Hellmann-Feynman              :  0.976899E-01 -0.788736E-01 -0.193604E+00
   Ionic forces                  :  0.000000E+00  0.000000E+00  0.000000E+00
   Multipole                     :  0.180394E-01  0.877594E-01  0.116376E-01
   Pulay + GGA                   : -0.352334E-01 -0.830552E-01 -0.320966E-01
   Van der Waals                 : -0.265728E-03  0.324259E-02 -0.268251E-02
   ----------------------------------------------------------------
   Total forces(  11)            :  0.802301E-01 -0.709267E-01 -0.216745E+00
  atom #   12
   Hellmann-Feynman              : -0.591859E-01 -0.247499E+00 -0.312061E-01
   Ionic forces                  :  0.000000E+00  0.000000E+00  0.000000E+00
   Multipole                     :  0.118972E+00 -0.438694E-02 -0.603591E-01
   Pulay + GGA                   : -0.989733E-01  0.285202E-01  0.217421E-01
   Van der Waals                 : -0.284416E-02 -0.100661E-02 -0.263632E-02
   ----------------------------------------------------------------
   Total forces(  12)            : -0.420312E-01 -0.224373E+00 -0.724594E-01

  Timings for VdW correction (Tkatchenko-Scheffler 2009 or later):
  | CPU time:        0.040 s, Wall clock time:        0.042 s.
  Removing unitary transformations (pure translations, rotations) from forces on atoms.
  Atomic forces before filtering:
  | Net force on center of mass :   0.194528E-08 -0.211619E-08 -0.171767E-02 eV/A
  | Net torque on center of mass:  -0.559361E-08  0.951027E-08 -0.746014E-02 eV
  Atomic forces after filtering:
  | Net force on center of mass :  -0.278760E-16  0.178406E-15  0.892031E-16 eV/A
  | Net torque on center of mass:  -0.236021E-16  0.708063E-16 -0.404186E-15 eV

  Energy and forces in a compact form:
  | Total energy uncorrected      :         -0.427284196644404E+04 eV
  | Total energy corrected        :         -0.427284196644404E+04 eV  <-- do not rely on this value for anything but (periodic) metals
  | Electronic free energy        :         -0.427284196644404E+04 eV
  Total atomic forces (unitary forces cleaned) [eV/Ang]:
  |   1          0.108705106320644E-01          0.994213598622995E-01         -0.776020069747990E-01
  |   2          0.561110008456094E-01         -0.195143691087686E+00          0.126077572180387E+00
  |   3         -0.561109550238043E-01          0.195143676631659E+00          0.126077551241486E+00
  |   4         -0.108705003264403E-01         -0.994213577937010E-01         -0.776019608358963E-01
  |   5         -0.212895929324700E-01          0.222683395023065E+00         -0.133691896380951E+00
  |   6          0.421329832536538E-01          0.223900235452847E+00         -0.723163758272192E-01
  |   7         -0.798711400599532E-01          0.706170984806034E-01         -0.216601905379047E+00
  |   8          0.229695419426564E+00         -0.852710997580175E+00          0.374134603408235E+00
  |   9         -0.229695394080276E+00          0.852711033577278E+00          0.374134522751253E+00
  |  10          0.212896029790909E-01         -0.222683431586279E+00         -0.133691914963082E+00
  |  11          0.798710614944888E-01         -0.706170961805746E-01         -0.216601903792149E+00
  |  12         -0.421329962085268E-01         -0.223900224799336E+00         -0.723162854282187E-01

  ------------------------------------ 
  Start decomposition of the XC Energy 
  ------------------------------------ 
  X and C from original XC functional choice 
  Hartree-Fock Energy :          0.000000000 Ha              0.000000000 eV
  X Energy            :        -23.381333763 Ha           -636.238463142 eV
  C Energy            :         -1.015302843 Ha            -27.627796052 eV
  Total XC Energy     :        -24.396636606 Ha           -663.866259194 eV
  ------------------------------------ 
  LDA X and C from self-consistent density 
  X Energy LDA        :        -21.134094082 Ha           -575.087960136 eV
  C Energy LDA        :         -1.973543133 Ha            -53.702841019 eV
  ------------------------------------ 
  End decomposition of the XC Energy 
  ------------------------------------ 

------------------------------------------------------------

------------------------------------------------------------------------------
  Final output of selected total energy values:

  The following output summarizes some interesting total energy values
  at the end of a run (AFTER all relaxation, molecular dynamics, etc.).

  | Total energy of the DFT / Hartree-Fock s.c.f. calculation      :          -4272.841966444 eV
  | Final zero-broadening corrected energy (caution - metals only) :          -4272.841966444 eV
  | For reference only, the value of 1 Hartree used in FHI-aims is :             27.211384500 eV

  Before relying on these values, please be sure to understand exactly which
  total energy value is referred to by a given number. Different objects may
  all carry the same name 'total energy'. Definitions:

  Total energy of the DFT / Hartree-Fock s.c.f. calculation:
  | Note that this energy does not include ANY quantities calculated after the
  | s.c.f. cycle, in particular not ANY RPA, MP2, etc. many-body perturbation terms.

  Final zero-broadening corrected energy:
  | For metallic systems only, a broadening of the occupation numbers at the Fermi
  | level can be extrapolated back to zero broadening by an electron-gas inspired
  | formula. For all systems that are not real metals, this value can be
  | meaningless and should be avoided.

------------------------------------------------------------------------------
  Methods described in the following list of references were used in this FHI-aims run.
  If you publish the results, please make sure to cite these reference if they apply.
  FHI-aims is an academic code, and for our developers (often, Ph.D. students
  and postdocs), scientific credit in the community is essential.
  Thank you for helping us!

  For any use of FHI-aims, please cite:

    Volker Blum, Ralf Gehrke, Felix Hanke, Paula Havu, Ville Havu,
    Xinguo Ren, Karsten Reuter, and Matthias Scheffler
    'Ab initio molecular simulations with numeric atom-centered orbitals'
    Computer Physics Communications 180, 2175-2196 (2009)
    http://dx.doi.org/10.1016/j.cpc.2009.06.022


  For the real-space grid partitioning and parallelization used in this calculation, please cite:

    Ville Havu, Volker Blum, Paula Havu, and Matthias Scheffler,
    'Efficient O(N) integration for all-electron electronic structure calculation'
    'using numerically tabulated basis functions'
    Journal of Computational Physics 228, 8367-8379 (2009).
    http://dx.doi.org/10.1016/j.jcp.2009.08.008

  Of course, there are many other important community references, e.g., those cited in the
  above references. Our list is limited to references that describe implementations in the
  FHI-aims code. The reason is purely practical (length of this list) - please credit others as well.

------------------------------------------------------------
          Leaving FHI-aims.
          Date     :  20180215, Time     :  214419.680

          Computational steps:
          | Number of self-consistency cycles          :           15
          | Number of SCF (re)initializations          :            1

          Detailed time accounting                     :  max(cpu_time)    wall_clock(cpu1)
          | Total time                                 :        9.504 s           9.539 s
          | Preparation time                           :        0.128 s           0.134 s
          | Boundary condition initalization           :        0.000 s           0.001 s
          | Grid partitioning                          :        0.068 s           0.067 s
          | Preloading free-atom quantities on grid    :        0.004 s           0.003 s
          | Free-atom superposition energy             :        0.024 s           0.022 s
          | Total time for integrations                :        2.908 s           2.886 s
          | Total time for solution of K.-S. equations :        0.072 s           0.042 s
          | Total time for density & force components  :        2.900 s           2.850 s
          | Total time for mixing                      :        0.172 s           0.151 s
          | Total time for Hartree multipole update    :        0.180 s           0.157 s
          | Total time for Hartree multipole sum       :        3.048 s           3.038 s
          | Total time for total energy evaluation     :        0.008 s           0.015 s
          | Total time for vdW correction              :        0.040 s           0.042 s

          Partial memory accounting:
          | Residual value for overall tracked memory usage across tasks :           0.000 MB (should be 0.000 MB)
          | Peak values for overall tracked memory usage (after allocating hessian_basis_wave):
          |   Minimum:        1.447 MB (on task 1)
          |   Maximum:        1.447 MB (on task 1)
          |   Average:        1.447 MB
          | Largest tracked array allocation (hessian_basis_wave):
          |   Minimum:        0.691 MB (on task 1)
          |   Maximum:        0.691 MB (on task 1)
          |   Average:        0.691 MB
          Note:  These values currently only include a subset of arrays which are explicitly tracked.
          The "true" memory usage will be greater.

          Have a nice day.
------------------------------------------------------------
