  MPI-parallelism will be employed.
------------------------------------------------------------
          Invoking FHI-aims ...
          Version 170824
          Git rev. (modified): c3e4f001 VB: Merge from master
          Compiled on 2017/08/24 at 12:08:00 on host egr-vwb3-mbp2.local.

          When using FHI-aims, please cite the following reference:

          Volker Blum, Ralf Gehrke, Felix Hanke, Paula Havu,
          Ville Havu, Xinguo Ren, Karsten Reuter, and Matthias Scheffler,
          'Ab Initio Molecular Simulations with Numeric Atom-Centered Orbitals',
          Computer Physics Communications 180, 2175-2196 (2009)

          For any questions about FHI-aims, please visit the aimsclub website
          with its forums and wiki. Contributions to both the forums and the
          wiki are warmly encouraged - they are for you, and everyone is welcome there.

------------------------------------------------------------



  Date     :  20170824, Time     :  124957.409
  Time zero on CPU 1             :   0.888590000000000E-01  s.
  Internal wall clock time zero  :           272810997.409  s.

  FHI-aims created a unique identifier for this run for later identification
  aims_uuid : 8472F19B-B88F-4D17-ABD4-7F2D714632C2

  Using        4 parallel tasks.
  Task        0 on host egr-vwb3-mbp2.local reporting.
  Task        1 on host egr-vwb3-mbp2.local reporting.
  Task        2 on host egr-vwb3-mbp2.local reporting.
  Task        3 on host egr-vwb3-mbp2.local reporting.

  Performing system and environment tests:
  | Environment variable OMP_NUM_THREADS correctly set to 1.
  | Maximum stacksize for task 0: 48 [Mb]
  | Maximum stacksize for task 1: 48 [Mb]
  | Maximum stacksize for task 2: 48 [Mb]
  | Maximum stacksize for task 3: 48 [Mb]
   *** Stacksize is not set to unlimited. This might cause problems...
  | Current stacksize for task 0: 48 [Mb]
  | Current stacksize for task 1: 48 [Mb]
  | Current stacksize for task 2: 48 [Mb]
  | Current stacksize for task 3: 48 [Mb]
  | Checking for scalapack...
  | Testing pdtran()...
  | All pdtran() tests passed.

  Obtaining array dimensions for all initial allocations:
  
  -----------------------------------------------------------------------
  Parsing control.in (first pass over file, find array dimensions only).
  The contents of control.in will be repeated verbatim below
  unless switched off by setting 'verbatim_writeout .false.' .
  in the first line of control.in .
  -----------------------------------------------------------------------
  
  #  Volker Blum, FHI 2004 : Input file for LocalOrb code project
  #
  #  Input file control.in : All computational details for structure geometry.in
  #
  #  * First, general computational parameters:
  #         xc           - specifies type of exchange-correlation potential
  #         relativistic - specifies the type of kinetic energy expression
  #         empty_states - specifies the number of empty states per atom to be included
  #         KS_method    - specifies the treatment of the Kohn-Sham equations (e.g., full diagonalisation by Lapack)
  #         charge_mix_param - mixing parameter for linear charge-density mixing
  #         sc_accuracy_rho - convergence criterion for the average charge
  #                        density distance
  #         sc_accuracy_eev - convergence criterion for the sum of eigenvalues
  #                        between different sc iterations
  #         sc_accuracy_etot - convergence criterion for the total energy
  #                        between different sc iterations
  #         force_potential - Force the use of a debug-type potential,
  #                           e.g. superposition of free atoms
  #
    xc             pw-lda
    qpe_calc       gw
      frequency_points 40
      use_logsbt .false.
      anacon_type 1
    spin           none
    relativistic   none
    empty_states   300
  #  KS_method      lapack
    basis_threshold 1.e-6
    occupation_type gaussian 0.05
    occupation_acc 1e-08
    mixer          pulay
    ini_linear_mixing 0
    charge_mix_param  0.2
    sc_accuracy_rho  1E-6
    sc_accuracy_eev  1E-4
    sc_accuracy_etot 1E-6
    sc_iter_limit 30
    prodbas_threshold 1.e-4
  
    packed_matrix_format index
    use_local_index if_scalapack
    load_balancing .true.
    distributed_spline_storage .true.
  #
  #  * Next, specify output options:
  #    - basis
  #    - matrices
  #    - grids
  #    - v_eff
  #    - v_hartree (partitioned Hartree potentials)
  #
  #  output       basis
  #  output       matrices
  #  output       grids
  #  output       v_eff
  #  output       v_hartree
  #  output       density
  #
  #  * Finally, all details relating to the chemical elements ("species"):
  ################################################################################
  #
  #  FHI-aims code project
  #  VB, Fritz-Haber Institut, 2007
  #
  #  Suggested "safe" defaults for Na atom (to be pasted into control.in file)
  #
  ################################################################################
    species        Na
  #     global species definitions
      nucleus             11
      mass                22.98976928
  #
      l_hartree           6
  #
      cut_pot             5.0          2.0  1.0
      basis_dep_cutoff    1e-4
  #
      radial_base         40 7.0
      radial_multiplier   2
      angular_grids       specified
        division   0.5925  110
        division   0.7843  194
        division   1.0201  302
        division   1.1879  434
  #      division   1.3799  590
  #      division   1.4503  770
  #      division   7.0005  974
  #      outer_grid  974
        outer_grid  434
  ################################################################################
  #
  #  Definition of "minimal" basis
  #
  ################################################################################
  #     valence basis states
      valence      3  s   1.
      valence      2  p   6.
  #     ion occupancy
      ion_occ      2  s   2.
      ion_occ      2  p   6.
  ################################################################################
  #
  #  Suggested additional basis functions. For production calculations,
  #  uncomment them one after another (the most important basis functions are
  #  listed first).
  #
  #  Constructed for dimers: 2.0 A, 2.5 A, 3.0 A, 3.75 A, 4.5 A
  #
  ################################################################################
  #  "First tier" - improvements: -60.09 meV to -10.02 meV
       hydro 2 p 1.2
       hydro 3 s 1.8
       hydro 3 d 3.8
  #  "Second tier" - improvements: -2.94 meV to -1.27 meV
  #     hydro 4 p 3.1
  #     hydro 3 s 10
  #     hydro 4 f 6.2
  #     hydro 4 d 1.3
  #  "Third tier" - improvements: -0.83 meV to -0.07 meV
  #     hydro 3 d 7.8
  #     hydro 3 p 2.3
  #     hydro 5 g 9.6
  #     hydro 4 p 0.85
  #     hydro 5 f 1.8
  #     hydro 2 s 0.6
  #  Further basis functions that fell out of the optimization - noise level...
  #     hydro 5 g 0.1
  #     hydro 4 d 3.4
  #     hydro 4 s 0.1
  
  
  -----------------------------------------------------------------------
  Completed first pass over input file control.in .
  -----------------------------------------------------------------------
  
  
  -----------------------------------------------------------------------
  Parsing geometry.in (first pass over file, find array dimensions only).
  The contents of geometry.in will be repeated verbatim below
  unless switched off by setting 'verbatim_writeout .false.' .
  in the first line of geometry.in .
  -----------------------------------------------------------------------
  
  # LDA relaxed structure for Na4
  #  Final atomic structure:
  #               x [A]             y [A]             z [A]       Atom
    atom        -3.07697712       -0.00000104        0.00000000  Na
    atom         3.07697603       -0.00000104        0.00000000  Na
    atom         0.00000055        1.50192909        0.00000000  Na
    atom         0.00000055       -1.50192702        0.00000000  Na
  
  -----------------------------------------------------------------------
  Completed first pass over input file geometry.in .
  -----------------------------------------------------------------------
  

  Basic array size parameters:
  | Number of species                 :        1
  | Number of atoms                   :        4
  | Max. basis fn. angular momentum   :        2
  | Max. atomic/ionic basis occupied n:        3
  | Max. number of basis fn. types    :        2
  | Max. radial fns per species/type  :        4
  | Max. logarithmic grid size        :     1327
  | Max. radial integration grid size :       81
  | Max. angular integration grid size:      434
  | Max. angular grid division number :        8
  | Radial grid for Hartree potential :     1327
  | Number of spin channels           :        1

------------------------------------------------------------
          Reading file control.in.
------------------------------------------------------------
  XC: Using Perdew-Wang parametrisation of Ceperley-Alder LDA.
  GW quasiparticle calculation of excited states will be started after the DFT/HF calculation.
  Number of frequency points used for the self-energy calculation:     40
  Using 3D grid integrations for auxiliary 2-center integrals.
  Using Pade approximation for analytical continuation.
  Spin treatment: No spin polarisation.
  Non-relativistic treatment of kinetic energy.
  Number of empty states per atom:      300
  Threshold for basis singularities:  0.1000E-05
  Occupation type: Gaussian broadening, width =   0.500000E-01 eV.
  Accuracy of occupation numbers  :  0.1000E-07
  Using pulay charge density mixing.
  Number of initial iterations with linear charge density mixing:     0
  Charge density mixing - mixing parameter:     0.2000
  Convergence accuracy of self-consistent charge density:  0.1000E-05
  Convergence accuracy of sum of eigenvalues:  0.1000E-03
  Convergence accuracy of total energy:  0.1000E-05
  Maximum number of s.-c. iterations  :    30
  Threshold for auxiliary basis singularities:  0.1000E-03
 Using packed matrix format           2
  Using load balancing for integrations.
  Requested to store only required components of Hartree potential.
 
  Reading configuration options for species Na                  .
  | Found nuclear charge :  11.0000
  | Found atomic mass :    22.9897692800000      amu
  | Found l_max for Hartree potential  :   6
  | Found cutoff potl. onset [A], width [A], scale factor :    5.00000    2.00000    1.00000
  | Threshold for basis-dependent cutoff potential is   0.100000E-03
  | Found data for basic radial integration grid :    40 points, outermost radius =    7.000 A
  | Found multiplier for basic radial grid :   2
  | Found angular grid specification: user-specified.
  | Specified grid contains     5 separate shells.
  | Check grid settings after all constraints further below.
  | Found free-atom valence shell :  3 s   1.000
  | Found free-atom valence shell :  2 p   6.000
  | No ionic wave fns used. Skipping ion_occ.
  | No ionic wave fns used. Skipping ion_occ.
  | Found hydrogenic basis function :  2 p   1.200
  | Found hydrogenic basis function :  3 s   1.800
  | Found hydrogenic basis function :  3 d   3.800
  Species Na                  : Missing cutoff potential type.
  Defaulting to exp(1/x)/(1-x)^2 type cutoff potential.
  Species Na: No 'logarithmic' tag. Using default grid for free atom:
  | Default logarithmic grid data [bohr] : 0.1000E-03 0.1000E+03 0.1012E+01
  Species Na: On-site basis accuracy parameter (for Gram-Schmidt orthonormalisation) not specified.
  Using default value basis_acc =  0.1000000E-03.
  Species Na                  : Using default innermost maximum threshold i_radial=  2 for radial functions.
  Species Na                  : Default cutoff onset for free atom density etc. is infinite
  since the product basis is used (hybrid functionals, Hartree-Fock, GW etc.).
  Species Na                  : Basic radial grid will be enhanced according to radial_multiplier =   2, to contain    81 grid points.
 
  Finished reading input file 'control.in'. Consistency checks are next.
 
  MPI_IN_PLACE appears to work with this MPI implementation.
  | Keeping use_mpi_in_place .true. (see manual).
  Explicit treatment of the Coulomb operator is needed, but the RI method is not specified.
  Coulomb operator: Defaulting to 'RI-V' resolution of identity - RI_type = V 
  Species Na: Using default value for prodbas_acc =   1.000000E-03.
  Species Na: Using default value max_l_prodbas =     5.
  Target number of points in a grid batch is not set. Defaulting to  100
  Method for grid partitioning is not set. Defaulting to parallel hash+maxmin partitioning.
  Batch size limit is not set. Defaulting to    200
  By default, will store active basis functions for each batch.
  If in need of memory, prune_basis_once .false. can be used to disable this option.
  communication_type for Hartree potential was not specified.
  Defaulting to calc_hartree .
  Pulay mixer: Number of relevant iterations not set.
  Defaulting to    8 iterations.
  Work space size for distributed Hartree potential not set.
  Defaulting to   0.200000E+03 MB.
  Algorithm-dependent basis array size parameters:
  | n_max_pulay                         :        8
  Presetting        40 iterations before the initial mixing cycle
  is restarted anyway using the sc_init_iter criterion / keyword.
  Presetting a factor      1.000 between actual scf density residual
  and density convergence criterion sc_accuracy_rho below which sc_init_iter
  takes no effect.
  Calculation of forces was not defined in control.in. No forces will be calculated.
  Geometry relaxation not requested: no relaxation will be performed.
  No accuracy limit for integral partition fn. given. Defaulting to  0.1000E-14.
  No threshold value for u(r) in integrations given. Defaulting to  0.1000E-05.
  No threshold value for occupation numbers given. Defaulting to  0.0000E+00.
  No accuracy for fermi level given. Defaulting to  0.1000E-19.
  Maximum # of iterations to find E_F not set. Defaulting to  200.
  Preferred method for the eigenvalue solver ('KS_method') not specified in 'control.in'.
  Calling blacs routine to test compilation state
  Since scalapack support is enabled, defaulting to 'elpa'.
  Have scalapack: Storing only matrices local to each thread.
  Will not use alltoall communication since running on < 1024 CPUs.
  partition_type (choice of integration weights) for integrals was not specified.
  | Using a version of the partition function of Stratmann and coworkers ('stratmann_smoother').
  | At each grid point, the set of atoms used to build the partition table is smoothly restricted to
  | only those atoms whose free-atom density would be non-zero at that grid point.
  Partitioning for Hartree potential was not defined. Using partition_type for integrals.
  | Adjusted default value of keyword multip_moments_threshold to:       0.10000000E-11
  | This value may affect high angular momentum components of the Hartree potential in periodic systems.
  * Doing correlated calculations, so all empty single-particle states will be included.
  No q(lm)/r^(l+1) cutoff set for long-range Hartree potential.
  | Using default value of  0.100000E-09 .
  | Verify using the multipole_threshold keyword.
  Defaulting to new monopole extrapolation.
  Density update method: automatic selection selected.
  Default of use_2d_corr is to use the efficient 2D distribution where possible
------------------------------------------------------------


------------------------------------------------------------
          Reading geometry description geometry.in.
------------------------------------------------------------
 * Attention. You are trying to treat an element beyond Ne (Z=10) without
 * accounting for relativity. This will lead to slight deviations from the true
 * physics of the system. Check your results if in doubt.
  Input structure read successfully.
  The structure contains        4 atoms,  and a total of         44.000 electrons.

  Input geometry:
  | No unit cell requested.
  | Atomic structure:
  |       Atom                x [A]            y [A]            z [A]
  |    1: Species Na            -3.076977        -0.000001         0.000000
  |    2: Species Na             3.076976        -0.000001         0.000000
  |    3: Species Na             0.000001         1.501929         0.000000
  |    4: Species Na             0.000001        -1.501927         0.000000
  |

  | The smallest distance between any two atoms is         3.00385611 AA.
  |
  | The first atom of this pair is atom number                      3 .
  | The second atom of this pair is atom number                     4 .

  Number of empty states per atom not set in control.in .
  | Since you are using a method that relies on the unoccupied spectrum
  | (MP2,GW,RPA et al.), will use the full Hamiltonian size (see below)
  | as the max. possible number of states (occupied plus empty).

  Structure-dependent array size parameters: 
  | Maximum number of distinct radial functions  :        7
  | Maximum number of basis functions            :       60
  | Number of Kohn-Sham states (occupied + empty):       60
------------------------------------------------------------

------------------------------------------------------------
          Preparing all fixed parts of the calculation.
------------------------------------------------------------
  Determining machine precision:
    2.225073858507201E-308
  Setting up grids for atomic and cluster calculations.

  Creating wave function, potential, and density for free atoms.

  Species: Na

  List of occupied orbitals and eigenvalues:
    n    l              occ      energy [Ha]    energy [eV]
    1    0           2.0000       -37.719781     -1026.4075
    2    0           2.0000        -2.063096       -56.1397
    3    0           1.0000        -0.103473        -2.8156
    2    1           6.0000        -1.060346       -28.8535

  Creating fixed part of basis set: Ionic, confined, hydrogenic.
 
  Na                   hydrogenic:
 
  List of hydrogenic basis orbitals: 
    n    l      effective z      eigenvalue [eV]  inner max. [A]     outer max. [A]     outer radius [A]   
    2    1         1.200000        -4.8636           1.741750           1.741750           6.442804
    3    0         1.800000        -4.3244           0.217979           3.539338           6.522051
    3    2         3.800000       -21.8293           1.252092           1.252092           5.771541
 

  Adding cutoff potential to free-atom effective potential.
  Creating atomic-like basis functions for current effective potential.

  Species Na                  :

  List of atomic basis orbitals and eigenvalues:
    n    l      energy [Ha]    energy [eV]    outer radius [A]
    1    0       -37.719781     -1026.4075       1.017136
    2    0        -2.063096       -56.1397       4.251681
    3    0        -0.102515        -2.7896       6.442804
    2    1        -1.060346       -28.8535       5.496102

  Assembling full basis from fixed parts.
  | Species Na :   atomic orbital   1 s accepted.
  | Species Na :   atomic orbital   2 s accepted.
  | Species Na :   atomic orbital   3 s accepted.
  | Species Na :    hydro orbital   3 s accepted.
  | Species Na :   atomic orbital   2 p accepted.
  | Species Na :    hydro orbital   2 p accepted.
  | Species Na :    hydro orbital   3 d accepted.
 
  Basis size parameters after reduction:
  | Total number of radial functions:        7
  | Total number of basis functions :       60
 
  Per-task memory consumption for arrays in subroutine allocate_ext:
  |           1.190756MB.
  Testing on-site integration grid accuracy.
  |  Species  Function  <phi|h_atom|phi> (log., in eV)  <phi|h_atom|phi> (rad., in eV)
           1        1              -1026.4074614289              -1026.4074500714
           1        2                -56.1397101238                -56.1397099617
           1        3                 -2.7942687421                 -2.7944411153
           1        4                  2.1627248508                  2.1615570905
           1        5                -28.8534796411                -28.8534795942
           1        6                 -0.0448823591                 -0.0451118337
           1        7                  9.8964768214                  9.8964647176

  Preparing densities etc. for the partition functions (integrals / Hartree potential).

  Preparations completed.
  max(cpu_time)          :      0.060 s.
  Wall clock time (cpu1) :      0.060 s.
------------------------------------------------------------

------------------------------------------------------------
          Begin self-consistency loop: Initialization.

          Date     :  20170824, Time     :  124957.524
------------------------------------------------------------

  Initializing index lists of integration centers etc. from given atomic structure:
  | Number of centers in hartree potential         :         4
  | Number of centers in hartree multipole         :         4
  | Number of centers in electron density summation:         4
  | Number of centers in basis integrals           :         4
  | Number of centers in integrals                 :         4
  | Number of centers in hamiltonian               :         4
  Using modified Scalapack Eigenvalue solver (ELPA)
  * Using 4 tasks for Scalapack Eigenvalue solver.
  Detailed listing of tasks and assigned k-points:
  (for non-periodic systems, the "k-point" denotes an internal label only)
   Task     0 k-point     1 on egr-vwb3-mbp2.local
   Task     1 k-point     1 on egr-vwb3-mbp2.local
   Task     2 k-point     1 on egr-vwb3-mbp2.local
   Task     3 k-point     1 on egr-vwb3-mbp2.local
  Tasks:     4 split into      2 X      2 BLACS grid
  Calculating block size based on n_basis =           60  max_nprow =            2  max_npcol =            2
  ScaLAPACK block size set to:           16
  Allocating        0.008 MB for ovlp
  Allocating        0.008 MB for ham
  Allocating        0.008 MB for eigenvec
  Required Scalapack workspace - INTEGER:            1  REAL:             1
  Partitioning the integration grid into batches with parallel hashing+maxmin method.
  | Number of batches:      996
  | Maximal batch size:     187
  | Minimal batch size:      68
  | Average batch size:      82.964
  | Standard deviation of batch sizes:      14.328

  Integration load balanced across      4 MPI tasks.
  Work distribution over tasks is as follows:
  Task      0 has      20697 integration points.
  Task      1 has      20633 integration points.
  Task      2 has      20682 integration points.
  Task      3 has      20620 integration points.
  Initializing partition tables, free-atom densities, potentials, etc. across the integration grid (initialize_grid_storage).
  | Species        1: outer_partition_radius set to             42.334883439487662 AA .
  | Original list of interatomic distances with           4 x          4 entries is created.
  | Net number of integration points:    82632
  | of which are non-zero points    :    79092
  Renormalizing the initial density to the exact electron count on the 3D integration grid.
  | Initial density: Formal number of electrons (from input files) :      44.0000000000
  | Integrated number of electrons on 3D grid     :      44.0000010407
  | Charge integration error                      :       0.0000010407
  | Normalization factor for density and gradient :       0.9999999763
  Obtaining max. number of non-zero basis functions in each batch (get_n_compute_maxes).
  | Maximal number of non-zero basis functions:       57
  Selecting the method for density update.
  Loop over occupied states selected for charge density update.
  Hamiltonian matrix size:
  | Size of matrix non-packed:                  1830
  | Size of matrix packed:            1823
  use_local_index: Max. local matrix size =         1709
  Task:     0 matrix size:       1709
  Task:     1 matrix size:       1709
  Task:     2 matrix size:       1709
  Task:     3 matrix size:       1709
  Integrating Hamiltonian matrix: batch-based integration.
  Time summed over all CPUs for integration: real work        0.124 s, elapsed        0.125 s
  Time get_set_sparse_local_matrix_scalapack:     0.001049 s
  Start compute_balanced_batch_distribution
  Done load balancing, time needed:      0.003 s
  Integrating overlap matrix with loadbalancing
  Time summed over all CPUs for integration: real work        0.067 s, elapsed        0.068 s
  Time get_set_full_local_matrix_scalapack:     0.000037 s

  Solving generalized eigenproblem
  Solving real symmetric generalised eigenvalue problem by standard ScaLAPACK.
  Transforming overlap matrix with ScaLAPACK and checking for singularities.
  : Overlap matrix is nonsingular, using Cholesky decomposition
  | Lowest eigenvalue:  0.308067E-01
  Factoring overlap matrix with Cholesky decomposition
  Using Cholesky factor for transformation
  Using 1-stage real ELPA solver
  Determining occupation numbers for Kohn-Sham eigenstates.
  | Chemical potential (Fermi level) in eV                 : -.30184996E+01
  | Error in electron count due to remaining E_F inaccuracy: 0.00000000E+00
  | Maximum occupation number of highest empty state:  0.00E+00

  Writing Kohn-Sham eigenvalues.

  State    Occupation    Eigenvalue [Ha]    Eigenvalue [eV]
      1       2.00000         -37.729100        -1026.66105
      2       2.00000         -37.729100        -1026.66104
      3       2.00000         -37.724139        -1026.52604
      4       2.00000         -37.724139        -1026.52604
      5       2.00000          -2.073792          -56.43075
      6       2.00000          -2.073562          -56.42449
      7       2.00000          -2.068074          -56.27515
      8       2.00000          -2.068074          -56.27514
      9       2.00000          -1.073352          -29.20740
     10       2.00000          -1.071608          -29.15995
     11       2.00000          -1.071210          -29.14911
     12       2.00000          -1.070576          -29.13184
     13       2.00000          -1.070509          -29.13004
     14       2.00000          -1.070249          -29.12296
     15       2.00000          -1.066019          -29.00784
     16       2.00000          -1.065958          -29.00618
     17       2.00000          -1.065315          -28.98870
     18       2.00000          -1.065295          -28.98814
     19       2.00000          -1.065091          -28.98259
     20       2.00000          -1.065089          -28.98255
     21       2.00000          -0.180069           -4.89992
     22       2.00000          -0.128100           -3.48578
     23       0.00000          -0.096910           -2.63706
     24       0.00000          -0.075408           -2.05195
     25       0.00000          -0.068642           -1.86784
     26       0.00000          -0.039338           -1.07045
     27       0.00000          -0.032142           -0.87463
     28       0.00000          -0.032026           -0.87148
     29       0.00000          -0.014299           -0.38911
     30       0.00000           0.022902            0.62321
     31       0.00000           0.026077            0.70958
     32       0.00000           0.038427            1.04566
     33       0.00000           0.058003            1.57833
     34       0.00000           0.069986            1.90441
     35       0.00000           0.070874            1.92859
     36       0.00000           0.075796            2.06252
     37       0.00000           0.120562            3.28066
     38       0.00000           0.141578            3.85252
     39       0.00000           0.192097            5.22722
     40       0.00000           0.203045            5.52513
     41       0.00000           0.255405            6.94992
     42       0.00000           0.267007            7.26564
     43       0.00000           0.270160            7.35144
     44       0.00000           0.300321            8.17215
     45       0.00000           0.326053            8.87235
     46       0.00000           0.336346            9.15243
     47       0.00000           0.348399            9.48041
     48       0.00000           0.367226            9.99274
     49       0.00000           0.386962           10.52976
     50       0.00000           0.402737           10.95904
     51       0.00000           0.403300           10.97436
     52       0.00000           0.408662           11.12025
     53       0.00000           0.449642           12.23539
     54       0.00000           0.486573           13.24031
     55       0.00000           0.511135           13.90868
     56       0.00000           0.576657           15.69163
     57       0.00000           0.589024           16.02817
     58       0.00000           0.591320           16.09063
     59       0.00000           0.606686           16.50876
     60       0.00000           0.723310           19.68228

  Highest occupied state (VBM) at     -3.48577846 eV
  | Occupation number:      2.00000000

  Lowest unoccupied state (CBM) at    -2.63705979 eV
  | Occupation number:      0.00000000

  Overall HOMO-LUMO gap:      0.84871868 eV.
  Calculating total energy contributions from superposition of free atom densities.

  Total energy components:
  | Sum of eigenvalues            :        -344.63683523 Ha       -9378.04543623 eV
  | XC energy correction          :         -54.16277430 Ha       -1473.84407700 eV
  | XC potential correction       :          71.49264280 Ha        1945.41379203 eV
  | Free-atom electrostatic energy:        -318.56083556 Ha       -8668.48138310 eV
  | Hartree energy correction     :           0.00000000 Ha           0.00000000 eV
  | Entropy correction            :          -0.00000000 Ha          -0.00000000 eV
  | ---------------------------
  | Total energy                  :        -645.86780229 Ha      -17574.95710430 eV
  | Total energy, T -> 0          :        -645.86780229 Ha      -17574.95710430 eV  <-- do not rely on this value for anything but (periodic) metals
  | Electronic free energy        :        -645.86780229 Ha      -17574.95710430 eV

  Derived energy quantities:
  | Kinetic energy                :         643.60700656 Ha       17513.43772229 eV
  | Electrostatic energy          :       -1235.31203455 Ha      -33614.55074960 eV
  | Energy correction for multipole
  | error in Hartree potential    :           0.00000000 Ha           0.00000000 eV
  | Sum of eigenvalues per atom                           :       -2344.51135906 eV
  | Total energy (T->0) per atom                          :       -4393.73927607 eV  <-- do not rely on this value for anything but (periodic) metals
  | Electronic free energy per atom                       :       -4393.73927607 eV
  Initialize hartree_potential_storage
  Max. number of atoms included in rho_multipole:            4

  End scf initialization - timings             :  max(cpu_time)    wall_clock(cpu1)
  | Time for scf. initialization               :        0.110 s           0.110 s
  | Boundary condition initialization          :        0.000 s           0.001 s
  | Integration                                :        0.053 s           0.053 s
  | Solution of K.-S. eqns.                    :        0.002 s           0.002 s
  | Grid partitioning                          :        0.025 s           0.025 s
  | Preloading free-atom quantities on grid    :        0.003 s           0.004 s
  | Free-atom superposition energy             :        0.011 s           0.010 s
  | Total energy evaluation                    :        0.000 s           0.000 s
------------------------------------------------------------

------------------------------------------------------------
          Begin self-consistency iteration #    1

  Date     :  20170824, Time     :  124957.634
------------------------------------------------------------
  Evaluating new KS density.
  Integration grid: deviation in total charge (<rho> - N_e) =  -6.394885E-14
  Pulay mixing of updated and previous charge densities.

  Evaluating partitioned Hartree potential by multipole expansion.
  | Analytical far-field extrapolation by fixed multipoles:
  | Hartree multipole sum: apparent total charge =  -0.802868E-05
  Summing up the Hartree potential.
  Time summed over all CPUs for potential: real work        0.114 s, elapsed        0.115 s
  | RMS charge density error from multipole expansion :   0.256288E-03

  Start compute_balanced_batch_distribution
  Done load balancing, time needed:      0.002 s
  Reset hartree_potential_storage for load balanced distribution.
  Max. number of atoms included in rho_multipole:            4
  Integrating Hamiltonian matrix: batch-based integration with load balancing
  Time summed over all CPUs for integration: real work        0.125 s, elapsed        0.126 s
  Time get_set_full_local_matrix_scalapack:     0.000039 s
  Start compute_balanced_batch_distribution
  Done load balancing, time needed:      0.002 s

  Solving generalized eigenproblem
  Solving real symmetric generalised eigenvalue problem by standard ScaLAPACK.
  Using Cholesky factor for transformation
  Using 1-stage real ELPA solver
  Determining occupation numbers for Kohn-Sham eigenstates.
  | Chemical potential (Fermi level) in eV                 : -.26522480E+01
  | Error in electron count due to remaining E_F inaccuracy: 0.29709852E-08
  | Maximum occupation number of highest empty state:  0.00E+00

  Writing Kohn-Sham eigenvalues.

  State    Occupation    Eigenvalue [Ha]    Eigenvalue [eV]
      1       2.00000         -37.714524        -1026.26442
      2       2.00000         -37.714524        -1026.26442
      3       2.00000         -37.709583        -1026.12995
      4       2.00000         -37.709583        -1026.12995
      5       2.00000          -2.060031          -56.05629
      6       2.00000          -2.059807          -56.05020
      7       2.00000          -2.054673          -55.91049
      8       2.00000          -2.054672          -55.91048
      9       2.00000          -1.059463          -28.82945
     10       2.00000          -1.057551          -28.77742
     11       2.00000          -1.057159          -28.76676
     12       2.00000          -1.057146          -28.76640
     13       2.00000          -1.056826          -28.75771
     14       2.00000          -1.056675          -28.75359
     15       2.00000          -1.052357          -28.63609
     16       2.00000          -1.052291          -28.63431
     17       2.00000          -1.052088          -28.62877
     18       2.00000          -1.052064          -28.62813
     19       2.00000          -1.051854          -28.62240
     20       2.00000          -1.051853          -28.62236
     21       2.00000          -0.166588           -4.53308
     22       2.00000          -0.118526           -3.22526
     23       0.00000          -0.089759           -2.44248
     24       0.00000          -0.068957           -1.87642
     25       0.00000          -0.058638           -1.59562
     26       0.00000          -0.031803           -0.86540
     27       0.00000          -0.024617           -0.66986
     28       0.00000          -0.024462           -0.66564
     29       0.00000          -0.006811           -0.18535
     30       0.00000           0.031264            0.85073
     31       0.00000           0.032043            0.87192
     32       0.00000           0.045955            1.25051
     33       0.00000           0.067242            1.82974
     34       0.00000           0.076889            2.09227
     35       0.00000           0.078399            2.13335
     36       0.00000           0.081085            2.20645
     37       0.00000           0.127983            3.48261
     38       0.00000           0.147110            4.00307
     39       0.00000           0.200066            5.44408
     40       0.00000           0.210652            5.73212
     41       0.00000           0.267378            7.27573
     42       0.00000           0.277474            7.55046
     43       0.00000           0.281404            7.65740
     44       0.00000           0.310504            8.44926
     45       0.00000           0.336828            9.16555
     46       0.00000           0.347429            9.45402
     47       0.00000           0.359229            9.77512
     48       0.00000           0.376141           10.23530
     49       0.00000           0.395766           10.76935
     50       0.00000           0.413963           11.26452
     51       0.00000           0.414145           11.26946
     52       0.00000           0.419882           11.42558
     53       0.00000           0.460284           12.52497
     54       0.00000           0.498009           13.55151
     55       0.00000           0.523815           14.25373
     56       0.00000           0.589908           16.05221
     57       0.00000           0.603376           16.41868
     58       0.00000           0.604564           16.45102
     59       0.00000           0.621102           16.90104
     60       0.00000           0.739678           20.12767

  Highest occupied state (VBM) at     -3.22526403 eV
  | Occupation number:      2.00000000

  Lowest unoccupied state (CBM) at    -2.44247799 eV
  | Occupation number:      0.00000000

  Overall HOMO-LUMO gap:      0.78278605 eV.

  Total energy components:
  | Sum of eigenvalues            :        -344.03967205 Ha       -9361.79579945 eV
  | XC energy correction          :         -54.18025074 Ha       -1474.31963517 eV
  | XC potential correction       :          71.51550981 Ha        1946.03603507 eV
  | Free-atom electrostatic energy:        -318.56083556 Ha       -8668.48138310 eV
  | Hartree energy correction     :          -0.59396567 Ha         -16.16262826 eV
  | Entropy correction            :          -0.00000000 Ha          -0.00000000 eV
  | ---------------------------
  | Total energy                  :        -645.85921422 Ha      -17574.72341092 eV
  | Total energy, T -> 0          :        -645.85921422 Ha      -17574.72341092 eV  <-- do not rely on this value for anything but (periodic) metals
  | Electronic free energy        :        -645.85921422 Ha      -17574.72341092 eV

  Derived energy quantities:
  | Kinetic energy                :         643.69504611 Ha       17515.83340055 eV
  | Electrostatic energy          :       -1235.37400959 Ha      -33616.23717629 eV
  | Energy correction for multipole
  | error in Hartree potential    :          -0.00003503 Ha          -0.00095315 eV
  | Sum of eigenvalues per atom                           :       -2340.44894986 eV
  | Total energy (T->0) per atom                          :       -4393.68085273 eV  <-- do not rely on this value for anything but (periodic) metals
  | Electronic free energy per atom                       :       -4393.68085273 eV

  Self-consistency convergence accuracy:
  | Change of charge density      :  0.5911E-01
  | Change of sum of eigenvalues  :  0.1625E+02 eV
  | Change of total energy        :  0.2337E+00 eV

  End self-consistency iteration #     1       :  max(cpu_time)    wall_clock(cpu1)
  | Time for this iteration                    :        0.089 s           0.089 s
  | Charge density update                      :        0.018 s           0.018 s
  | Density mixing                             :        0.000 s           0.001 s
  | Hartree multipole update                   :        0.002 s           0.002 s
  | Hartree multipole summation                :        0.033 s           0.033 s
  | Integration                                :        0.032 s           0.032 s
  | Solution of K.-S. eqns.                    :        0.003 s           0.003 s
  | Total energy evaluation                    :        0.000 s           0.000 s
------------------------------------------------------------

------------------------------------------------------------
          Begin self-consistency iteration #    2

  Date     :  20170824, Time     :  124957.723
------------------------------------------------------------
  Evaluating new KS density.
  Integration grid: deviation in total charge (<rho> - N_e) =   2.971014E-09
  Pulay mixing of updated and previous charge densities.

  Evaluating partitioned Hartree potential by multipole expansion.
  | Analytical far-field extrapolation by fixed multipoles:
  | Hartree multipole sum: apparent total charge =  -0.334398E-04
  Summing up the Hartree potential with load balancing.
  Time summed over all CPUs for potential: real work        0.115 s, elapsed        0.116 s
  | RMS charge density error from multipole expansion :   0.750078E-03

  Integrating Hamiltonian matrix: batch-based integration with load balancing
  Time summed over all CPUs for integration: real work        0.123 s, elapsed        0.124 s
  Time get_set_full_local_matrix_scalapack:     0.000037 s

  Solving generalized eigenproblem
  Solving real symmetric generalised eigenvalue problem by standard ScaLAPACK.
  Using Cholesky factor for transformation
  Using 1-stage real ELPA solver
  Determining occupation numbers for Kohn-Sham eigenstates.
  | Chemical potential (Fermi level) in eV                 : -.24229789E+01
  | Error in electron count due to remaining E_F inaccuracy: 0.00000000E+00
  | Maximum occupation number of highest empty state:  0.00E+00

  Highest occupied state (VBM) at     -2.77085695 eV
  | Occupation number:      2.00000000

  Lowest unoccupied state (CBM) at    -2.11353186 eV
  | Occupation number:      0.00000000

  Overall HOMO-LUMO gap:      0.65732509 eV.

  Total energy components:
  | Sum of eigenvalues            :        -343.03796766 Ha       -9334.53803604 eV
  | XC energy correction          :         -54.21353373 Ha       -1475.22531143 eV
  | XC potential correction       :          71.55900747 Ha        1947.21966661 eV
  | Free-atom electrostatic energy:        -318.56083556 Ha       -8668.48138310 eV
  | Hartree energy correction     :          -1.60040775 Ha         -43.54931066 eV
  | Entropy correction            :          -0.00000000 Ha          -0.00000000 eV
  | ---------------------------
  | Total energy                  :        -645.85373723 Ha      -17574.57437463 eV
  | Total energy, T -> 0          :        -645.85373723 Ha      -17574.57437463 eV  <-- do not rely on this value for anything but (periodic) metals
  | Electronic free energy        :        -645.85373723 Ha      -17574.57437463 eV

  Derived energy quantities:
  | Kinetic energy                :         643.82131882 Ha       17519.26945568 eV
  | Electrostatic energy          :       -1235.46152232 Ha      -33618.61851887 eV
  | Energy correction for multipole
  | error in Hartree potential    :          -0.00009481 Ha          -0.00257991 eV
  | Sum of eigenvalues per atom                           :       -2333.63450901 eV
  | Total energy (T->0) per atom                          :       -4393.64359366 eV  <-- do not rely on this value for anything but (periodic) metals
  | Electronic free energy per atom                       :       -4393.64359366 eV

  Self-consistency convergence accuracy:
  | Change of charge density      :  0.3909E-01
  | Change of sum of eigenvalues  :  0.2726E+02 eV
  | Change of total energy        :  0.1490E+00 eV

  End self-consistency iteration #     2       :  max(cpu_time)    wall_clock(cpu1)
  | Time for this iteration                    :        0.082 s           0.082 s
  | Charge density update                      :        0.016 s           0.017 s
  | Density mixing                             :        0.001 s           0.000 s
  | Hartree multipole update                   :        0.002 s           0.003 s
  | Hartree multipole summation                :        0.030 s           0.030 s
  | Integration                                :        0.031 s           0.031 s
  | Solution of K.-S. eqns.                    :        0.001 s           0.001 s
  | Total energy evaluation                    :        0.000 s           0.000 s
------------------------------------------------------------

------------------------------------------------------------
          Begin self-consistency iteration #    3

  Date     :  20170824, Time     :  124957.806
------------------------------------------------------------
  Evaluating new KS density.
  Integration grid: deviation in total charge (<rho> - N_e) =   1.421085E-14
  Pulay mixing of updated and previous charge densities.

  Evaluating partitioned Hartree potential by multipole expansion.
  | Analytical far-field extrapolation by fixed multipoles:
  | Hartree multipole sum: apparent total charge =  -0.464793E-04
  Summing up the Hartree potential with load balancing.
  Time summed over all CPUs for potential: real work        0.115 s, elapsed        0.116 s
  | RMS charge density error from multipole expansion :   0.861180E-03

  Integrating Hamiltonian matrix: batch-based integration with load balancing
  Time summed over all CPUs for integration: real work        0.126 s, elapsed        0.130 s
  Time get_set_full_local_matrix_scalapack:     0.000046 s

  Solving generalized eigenproblem
  Solving real symmetric generalised eigenvalue problem by standard ScaLAPACK.
  Using Cholesky factor for transformation
  Using 1-stage real ELPA solver
  Determining occupation numbers for Kohn-Sham eigenstates.
  | Chemical potential (Fermi level) in eV                 : -.23807550E+01
  | Error in electron count due to remaining E_F inaccuracy: 0.75729645E-10
  | Maximum occupation number of highest empty state:  0.00E+00

  Highest occupied state (VBM) at     -2.74682995 eV
  | Occupation number:      2.00000000

  Lowest unoccupied state (CBM) at    -2.15063275 eV
  | Occupation number:      0.00000000

  Overall HOMO-LUMO gap:      0.59619720 eV.

  Total energy components:
  | Sum of eigenvalues            :        -343.11803503 Ha       -9336.71678010 eV
  | XC energy correction          :         -54.21074991 Ha       -1475.14955975 eV
  | XC potential correction       :          71.55529501 Ha        1947.11864556 eV
  | Free-atom electrostatic energy:        -318.56083556 Ha       -8668.48138310 eV
  | Hartree energy correction     :          -1.51915317 Ha         -41.33826089 eV
  | Entropy correction            :          -0.00000000 Ha          -0.00000000 eV
  | ---------------------------
  | Total energy                  :        -645.85347865 Ha      -17574.56733828 eV
  | Total energy, T -> 0          :        -645.85347865 Ha      -17574.56733828 eV  <-- do not rely on this value for anything but (periodic) metals
  | Electronic free energy        :        -645.85347865 Ha      -17574.56733828 eV

  Derived energy quantities:
  | Kinetic energy                :         643.79732133 Ha       17518.61645071 eV
  | Electrostatic energy          :       -1235.44005007 Ha      -33618.03422924 eV
  | Energy correction for multipole
  | error in Hartree potential    :          -0.00008307 Ha          -0.00226033 eV
  | Sum of eigenvalues per atom                           :       -2334.17919502 eV
  | Total energy (T->0) per atom                          :       -4393.64183457 eV  <-- do not rely on this value for anything but (periodic) metals
  | Electronic free energy per atom                       :       -4393.64183457 eV

  Self-consistency convergence accuracy:
  | Change of charge density      :  0.9600E-02
  | Change of sum of eigenvalues  : -0.2179E+01 eV
  | Change of total energy        :  0.7036E-02 eV

  End self-consistency iteration #     3       :  max(cpu_time)    wall_clock(cpu1)
  | Time for this iteration                    :        0.084 s           0.083 s
  | Charge density update                      :        0.017 s           0.016 s
  | Density mixing                             :        0.001 s           0.001 s
  | Hartree multipole update                   :        0.002 s           0.002 s
  | Hartree multipole summation                :        0.030 s           0.030 s
  | Integration                                :        0.033 s           0.033 s
  | Solution of K.-S. eqns.                    :        0.001 s           0.001 s
  | Total energy evaluation                    :        0.000 s           0.000 s
------------------------------------------------------------

------------------------------------------------------------
          Begin self-consistency iteration #    4

  Date     :  20170824, Time     :  124957.889
------------------------------------------------------------
  Evaluating new KS density.
  Integration grid: deviation in total charge (<rho> - N_e) =   7.574386E-11
  Pulay mixing of updated and previous charge densities.

  Evaluating partitioned Hartree potential by multipole expansion.
  | Analytical far-field extrapolation by fixed multipoles:
  | Hartree multipole sum: apparent total charge =  -0.511795E-04
  Summing up the Hartree potential with load balancing.
  Time summed over all CPUs for potential: real work        0.114 s, elapsed        0.115 s
  | RMS charge density error from multipole expansion :   0.925597E-03

  Integrating Hamiltonian matrix: batch-based integration with load balancing
  Time summed over all CPUs for integration: real work        0.123 s, elapsed        0.125 s
  Time get_set_full_local_matrix_scalapack:     0.000037 s

  Solving generalized eigenproblem
  Solving real symmetric generalised eigenvalue problem by standard ScaLAPACK.
  Using Cholesky factor for transformation
  Using 1-stage real ELPA solver
  Determining occupation numbers for Kohn-Sham eigenstates.
  | Chemical potential (Fermi level) in eV                 : -.24247208E+01
  | Error in electron count due to remaining E_F inaccuracy: -.71054274E-14
  | Maximum occupation number of highest empty state:  0.00E+00

  Highest occupied state (VBM) at     -2.70194804 eV
  | Occupation number:      2.00000000

  Lowest unoccupied state (CBM) at    -2.10822478 eV
  | Occupation number:      0.00000000

  Overall HOMO-LUMO gap:      0.59372326 eV.

  Total energy components:
  | Sum of eigenvalues            :        -343.02642044 Ha       -9334.22382026 eV
  | XC energy correction          :         -54.21415473 Ha       -1475.24220968 eV
  | XC potential correction       :          71.55973853 Ha        1947.23955977 eV
  | Free-atom electrostatic energy:        -318.56083556 Ha       -8668.48138310 eV
  | Hartree energy correction     :          -1.61183034 Ha         -43.86013509 eV
  | Entropy correction            :          -0.00000000 Ha          -0.00000000 eV
  | ---------------------------
  | Total energy                  :        -645.85350254 Ha      -17574.56798837 eV
  | Total energy, T -> 0          :        -645.85350254 Ha      -17574.56798837 eV  <-- do not rely on this value for anything but (periodic) metals
  | Electronic free energy        :        -645.85350254 Ha      -17574.56798837 eV

  Derived energy quantities:
  | Kinetic energy                :         643.80731534 Ha       17518.88840155 eV
  | Electrostatic energy          :       -1235.44666315 Ha      -33618.21418025 eV
  | Energy correction for multipole
  | error in Hartree potential    :          -0.00008378 Ha          -0.00227985 eV
  | Sum of eigenvalues per atom                           :       -2333.55595507 eV
  | Total energy (T->0) per atom                          :       -4393.64199709 eV  <-- do not rely on this value for anything but (periodic) metals
  | Electronic free energy per atom                       :       -4393.64199709 eV

  Self-consistency convergence accuracy:
  | Change of charge density      :  0.4626E-02
  | Change of sum of eigenvalues  :  0.2493E+01 eV
  | Change of total energy        : -0.6501E-03 eV

  End self-consistency iteration #     4       :  max(cpu_time)    wall_clock(cpu1)
  | Time for this iteration                    :        0.082 s           0.082 s
  | Charge density update                      :        0.016 s           0.017 s
  | Density mixing                             :        0.001 s           0.001 s
  | Hartree multipole update                   :        0.002 s           0.002 s
  | Hartree multipole summation                :        0.030 s           0.030 s
  | Integration                                :        0.032 s           0.031 s
  | Solution of K.-S. eqns.                    :        0.001 s           0.001 s
  | Total energy evaluation                    :        0.000 s           0.000 s
------------------------------------------------------------

------------------------------------------------------------
          Begin self-consistency iteration #    5

  Date     :  20170824, Time     :  124957.972
------------------------------------------------------------
  Evaluating new KS density.
  Integration grid: deviation in total charge (<rho> - N_e) =  -2.842171E-14
  Pulay mixing of updated and previous charge densities.

  Evaluating partitioned Hartree potential by multipole expansion.
  | Analytical far-field extrapolation by fixed multipoles:
  | Hartree multipole sum: apparent total charge =  -0.558000E-04
  Summing up the Hartree potential with load balancing.
  Time summed over all CPUs for potential: real work        0.117 s, elapsed        0.118 s
  | RMS charge density error from multipole expansion :   0.951233E-03

  Integrating Hamiltonian matrix: batch-based integration with load balancing
  Time summed over all CPUs for integration: real work        0.127 s, elapsed        0.133 s
  Time get_set_full_local_matrix_scalapack:     0.000036 s

  Solving generalized eigenproblem
  Solving real symmetric generalised eigenvalue problem by standard ScaLAPACK.
  Using Cholesky factor for transformation
  Using 1-stage real ELPA solver
  Determining occupation numbers for Kohn-Sham eigenstates.
  | Chemical potential (Fermi level) in eV                 : -.23319483E+01
  | Error in electron count due to remaining E_F inaccuracy: 0.27841907E-09
  | Maximum occupation number of highest empty state:  0.00E+00

  Highest occupied state (VBM) at     -2.71235312 eV
  | Occupation number:      2.00000000

  Lowest unoccupied state (CBM) at    -2.10884398 eV
  | Occupation number:      0.00000000

  Overall HOMO-LUMO gap:      0.60350914 eV.

  Total energy components:
  | Sum of eigenvalues            :        -343.06723143 Ha       -9335.33434386 eV
  | XC energy correction          :         -54.21261460 Ha       -1475.20030052 eV
  | XC potential correction       :          71.55771754 Ha        1947.18456579 eV
  | Free-atom electrostatic energy:        -318.56083556 Ha       -8668.48138310 eV
  | Hartree energy correction     :          -1.57054218 Ha         -42.73662710 eV
  | Entropy correction            :          -0.00000000 Ha          -0.00000000 eV
  | ---------------------------
  | Total energy                  :        -645.85350623 Ha      -17574.56808879 eV
  | Total energy, T -> 0          :        -645.85350623 Ha      -17574.56808879 eV  <-- do not rely on this value for anything but (periodic) metals
  | Electronic free energy        :        -645.85350623 Ha      -17574.56808879 eV

  Derived energy quantities:
  | Kinetic energy                :         643.80193944 Ha       17518.74211593 eV
  | Electrostatic energy          :       -1235.44283108 Ha      -33618.10990420 eV
  | Energy correction for multipole
  | error in Hartree potential    :          -0.00006988 Ha          -0.00190150 eV
  | Sum of eigenvalues per atom                           :       -2333.83358596 eV
  | Total energy (T->0) per atom                          :       -4393.64202220 eV  <-- do not rely on this value for anything but (periodic) metals
  | Electronic free energy per atom                       :       -4393.64202220 eV

  Self-consistency convergence accuracy:
  | Change of charge density      :  0.2654E-02
  | Change of sum of eigenvalues  : -0.1111E+01 eV
  | Change of total energy        : -0.1004E-03 eV

  End self-consistency iteration #     5       :  max(cpu_time)    wall_clock(cpu1)
  | Time for this iteration                    :        0.085 s           0.084 s
  | Charge density update                      :        0.016 s           0.016 s
  | Density mixing                             :        0.001 s           0.001 s
  | Hartree multipole update                   :        0.002 s           0.002 s
  | Hartree multipole summation                :        0.030 s           0.030 s
  | Integration                                :        0.034 s           0.034 s
  | Solution of K.-S. eqns.                    :        0.001 s           0.001 s
  | Total energy evaluation                    :        0.000 s           0.000 s
------------------------------------------------------------

------------------------------------------------------------
          Begin self-consistency iteration #    6

  Date     :  20170824, Time     :  124958.057
------------------------------------------------------------
  Evaluating new KS density.
  Integration grid: deviation in total charge (<rho> - N_e) =   2.783693E-10
  Pulay mixing of updated and previous charge densities.

  Evaluating partitioned Hartree potential by multipole expansion.
  | Analytical far-field extrapolation by fixed multipoles:
  | Hartree multipole sum: apparent total charge =  -0.560409E-04
  Summing up the Hartree potential with load balancing.
  Time summed over all CPUs for potential: real work        0.115 s, elapsed        0.116 s
  | RMS charge density error from multipole expansion :   0.947863E-03

  Integrating Hamiltonian matrix: batch-based integration with load balancing
  Time summed over all CPUs for integration: real work        0.123 s, elapsed        0.124 s
  Time get_set_full_local_matrix_scalapack:     0.000044 s

  Solving generalized eigenproblem
  Solving real symmetric generalised eigenvalue problem by standard ScaLAPACK.
  Using Cholesky factor for transformation
  Using 1-stage real ELPA solver
  Determining occupation numbers for Kohn-Sham eigenstates.
  | Chemical potential (Fermi level) in eV                 : -.23484870E+01
  | Error in electron count due to remaining E_F inaccuracy: 0.40628834E-10
  | Maximum occupation number of highest empty state:  0.00E+00

  Highest occupied state (VBM) at     -2.72145061 eV
  | Occupation number:      2.00000000

  Lowest unoccupied state (CBM) at    -2.11507908 eV
  | Occupation number:      0.00000000

  Overall HOMO-LUMO gap:      0.60637153 eV.

  Total energy components:
  | Sum of eigenvalues            :        -343.08655857 Ha       -9335.86026215 eV
  | XC energy correction          :         -54.21215201 Ha       -1475.18771299 eV
  | XC potential correction       :          71.55711977 Ha        1947.16829979 eV
  | Free-atom electrostatic energy:        -318.56083556 Ha       -8668.48138310 eV
  | Hartree energy correction     :          -1.55108044 Ha         -42.20704611 eV
  | Entropy correction            :          -0.00000000 Ha          -0.00000000 eV
  | ---------------------------
  | Total energy                  :        -645.85350681 Ha      -17574.56810457 eV
  | Total energy, T -> 0          :        -645.85350681 Ha      -17574.56810457 eV  <-- do not rely on this value for anything but (periodic) metals
  | Electronic free energy        :        -645.85350681 Ha      -17574.56810457 eV

  Derived energy quantities:
  | Kinetic energy                :         643.80274623 Ha       17518.76406986 eV
  | Electrostatic energy          :       -1235.44410103 Ha      -33618.14446143 eV
  | Energy correction for multipole
  | error in Hartree potential    :          -0.00006553 Ha          -0.00178304 eV
  | Sum of eigenvalues per atom                           :       -2333.96506554 eV
  | Total energy (T->0) per atom                          :       -4393.64202614 eV  <-- do not rely on this value for anything but (periodic) metals
  | Electronic free energy per atom                       :       -4393.64202614 eV

  Self-consistency convergence accuracy:
  | Change of charge density      :  0.4888E-03
  | Change of sum of eigenvalues  : -0.5259E+00 eV
  | Change of total energy        : -0.1578E-04 eV

  End self-consistency iteration #     6       :  max(cpu_time)    wall_clock(cpu1)
  | Time for this iteration                    :        0.082 s           0.081 s
  | Charge density update                      :        0.016 s           0.016 s
  | Density mixing                             :        0.001 s           0.001 s
  | Hartree multipole update                   :        0.002 s           0.002 s
  | Hartree multipole summation                :        0.030 s           0.030 s
  | Integration                                :        0.031 s           0.031 s
  | Solution of K.-S. eqns.                    :        0.001 s           0.001 s
  | Total energy evaluation                    :        0.000 s           0.000 s
------------------------------------------------------------

------------------------------------------------------------
          Begin self-consistency iteration #    7

  Date     :  20170824, Time     :  124958.139
------------------------------------------------------------
  Evaluating new KS density.
  Integration grid: deviation in total charge (<rho> - N_e) =   4.052936E-11
  Pulay mixing of updated and previous charge densities.

  Evaluating partitioned Hartree potential by multipole expansion.
  | Analytical far-field extrapolation by fixed multipoles:
  | Hartree multipole sum: apparent total charge =  -0.564164E-04
  Summing up the Hartree potential with load balancing.
  Time summed over all CPUs for potential: real work        0.119 s, elapsed        0.120 s
  | RMS charge density error from multipole expansion :   0.953956E-03

  Integrating Hamiltonian matrix: batch-based integration with load balancing
  Time summed over all CPUs for integration: real work        0.123 s, elapsed        0.124 s
  Time get_set_full_local_matrix_scalapack:     0.000044 s

  Solving generalized eigenproblem
  Solving real symmetric generalised eigenvalue problem by standard ScaLAPACK.
  Using Cholesky factor for transformation
  Using 1-stage real ELPA solver
  Determining occupation numbers for Kohn-Sham eigenstates.
  | Chemical potential (Fermi level) in eV                 : -.23436620E+01
  | Error in electron count due to remaining E_F inaccuracy: 0.42383874E-10
  | Maximum occupation number of highest empty state:  0.00E+00

  Highest occupied state (VBM) at     -2.71701959 eV
  | Occupation number:      2.00000000

  Lowest unoccupied state (CBM) at    -2.11047560 eV
  | Occupation number:      0.00000000

  Overall HOMO-LUMO gap:      0.60654399 eV.

  Total energy components:
  | Sum of eigenvalues            :        -343.07639370 Ha       -9335.58366175 eV
  | XC energy correction          :         -54.21260359 Ha       -1475.20000098 eV
  | XC potential correction       :          71.55771126 Ha        1947.18439490 eV
  | Free-atom electrostatic energy:        -318.56083556 Ha       -8668.48138310 eV
  | Hartree energy correction     :          -1.56138474 Ha         -42.48744055 eV
  | Entropy correction            :          -0.00000000 Ha          -0.00000000 eV
  | ---------------------------
  | Total energy                  :        -645.85350633 Ha      -17574.56809148 eV
  | Total energy, T -> 0          :        -645.85350633 Ha      -17574.56809148 eV  <-- do not rely on this value for anything but (periodic) metals
  | Electronic free energy        :        -645.85350633 Ha      -17574.56809148 eV

  Derived energy quantities:
  | Kinetic energy                :         643.80461297 Ha       17518.81486639 eV
  | Electrostatic energy          :       -1235.44551571 Ha      -33618.18295689 eV
  | Energy correction for multipole
  | error in Hartree potential    :          -0.00006544 Ha          -0.00178082 eV
  | Sum of eigenvalues per atom                           :       -2333.89591544 eV
  | Total energy (T->0) per atom                          :       -4393.64202287 eV  <-- do not rely on this value for anything but (periodic) metals
  | Electronic free energy per atom                       :       -4393.64202287 eV

  Self-consistency convergence accuracy:
  | Change of charge density      :  0.4199E-03
  | Change of sum of eigenvalues  :  0.2766E+00 eV
  | Change of total energy        :  0.1309E-04 eV

  End self-consistency iteration #     7       :  max(cpu_time)    wall_clock(cpu1)
  | Time for this iteration                    :        0.083 s           0.083 s
  | Charge density update                      :        0.016 s           0.016 s
  | Density mixing                             :        0.002 s           0.002 s
  | Hartree multipole update                   :        0.002 s           0.002 s
  | Hartree multipole summation                :        0.031 s           0.031 s
  | Integration                                :        0.031 s           0.031 s
  | Solution of K.-S. eqns.                    :        0.001 s           0.001 s
  | Total energy evaluation                    :        0.000 s           0.000 s
------------------------------------------------------------

------------------------------------------------------------
          Begin self-consistency iteration #    8

  Date     :  20170824, Time     :  124958.222
------------------------------------------------------------
  Evaluating new KS density.
  Integration grid: deviation in total charge (<rho> - N_e) =   4.249046E-11
  Pulay mixing of updated and previous charge densities.

  Evaluating partitioned Hartree potential by multipole expansion.
  | Analytical far-field extrapolation by fixed multipoles:
  | Hartree multipole sum: apparent total charge =  -0.564125E-04
  Summing up the Hartree potential with load balancing.
  Time summed over all CPUs for potential: real work        0.114 s, elapsed        0.115 s
  | RMS charge density error from multipole expansion :   0.954234E-03

  Integrating Hamiltonian matrix: batch-based integration with load balancing
  Time summed over all CPUs for integration: real work        0.124 s, elapsed        0.125 s
  Time get_set_full_local_matrix_scalapack:     0.000035 s

  Solving generalized eigenproblem
  Solving real symmetric generalised eigenvalue problem by standard ScaLAPACK.
  Using Cholesky factor for transformation
  Using 1-stage real ELPA solver
  Determining occupation numbers for Kohn-Sham eigenstates.
  | Chemical potential (Fermi level) in eV                 : -.23435535E+01
  | Error in electron count due to remaining E_F inaccuracy: 0.42618353E-10
  | Maximum occupation number of highest empty state:  0.00E+00

  Highest occupied state (VBM) at     -2.71691716 eV
  | Occupation number:      2.00000000

  Lowest unoccupied state (CBM) at    -2.11039637 eV
  | Occupation number:      0.00000000

  Overall HOMO-LUMO gap:      0.60652079 eV.

  Total energy components:
  | Sum of eigenvalues            :        -343.07627437 Ha       -9335.58041481 eV
  | XC energy correction          :         -54.21260944 Ha       -1475.20016012 eV
  | XC potential correction       :          71.55771887 Ha        1947.18460214 eV
  | Free-atom electrostatic energy:        -318.56083556 Ha       -8668.48138310 eV
  | Hartree energy correction     :          -1.56150583 Ha         -42.49073564 eV
  | Entropy correction            :          -0.00000000 Ha          -0.00000000 eV
  | ---------------------------
  | Total energy                  :        -645.85350633 Ha      -17574.56809153 eV
  | Total energy, T -> 0          :        -645.85350633 Ha      -17574.56809153 eV  <-- do not rely on this value for anything but (periodic) metals
  | Electronic free energy        :        -645.85350633 Ha      -17574.56809153 eV

  Derived energy quantities:
  | Kinetic energy                :         643.80456261 Ha       17518.81349617 eV
  | Electrostatic energy          :       -1235.44545951 Ha      -33618.18142758 eV
  | Energy correction for multipole
  | error in Hartree potential    :          -0.00006534 Ha          -0.00177797 eV
  | Sum of eigenvalues per atom                           :       -2333.89510370 eV
  | Total energy (T->0) per atom                          :       -4393.64202288 eV  <-- do not rely on this value for anything but (periodic) metals
  | Electronic free energy per atom                       :       -4393.64202288 eV

  Self-consistency convergence accuracy:
  | Change of charge density      :  0.2415E-04
  | Change of sum of eigenvalues  :  0.3247E-02 eV
  | Change of total energy        : -0.5079E-07 eV

  End self-consistency iteration #     8       :  max(cpu_time)    wall_clock(cpu1)
  | Time for this iteration                    :        0.083 s           0.083 s
  | Charge density update                      :        0.016 s           0.017 s
  | Density mixing                             :        0.002 s           0.001 s
  | Hartree multipole update                   :        0.002 s           0.003 s
  | Hartree multipole summation                :        0.030 s           0.029 s
  | Integration                                :        0.032 s           0.032 s
  | Solution of K.-S. eqns.                    :        0.001 s           0.000 s
  | Total energy evaluation                    :        0.000 s           0.000 s
------------------------------------------------------------

------------------------------------------------------------
          Begin self-consistency iteration #    9

  Date     :  20170824, Time     :  124958.305
------------------------------------------------------------
  Evaluating new KS density.
  Integration grid: deviation in total charge (<rho> - N_e) =   4.254019E-11
  Pulay mixing of updated and previous charge densities.

  Evaluating partitioned Hartree potential by multipole expansion.
  | Analytical far-field extrapolation by fixed multipoles:
  | Hartree multipole sum: apparent total charge =  -0.563976E-04
  Summing up the Hartree potential with load balancing.
  Time summed over all CPUs for potential: real work        0.115 s, elapsed        0.116 s
  | RMS charge density error from multipole expansion :   0.954155E-03

  Integrating Hamiltonian matrix: batch-based integration with load balancing
  Time summed over all CPUs for integration: real work        0.125 s, elapsed        0.127 s
  Time get_set_full_local_matrix_scalapack:     0.000055 s

  Solving generalized eigenproblem
  Solving real symmetric generalised eigenvalue problem by standard ScaLAPACK.
  Using Cholesky factor for transformation
  Using 1-stage real ELPA solver
  Determining occupation numbers for Kohn-Sham eigenstates.
  | Chemical potential (Fermi level) in eV                 : -.23436371E+01
  | Error in electron count due to remaining E_F inaccuracy: 0.42561510E-10
  | Maximum occupation number of highest empty state:  0.00E+00

  Highest occupied state (VBM) at     -2.71700314 eV
  | Occupation number:      2.00000000

  Lowest unoccupied state (CBM) at    -2.11047293 eV
  | Occupation number:      0.00000000

  Overall HOMO-LUMO gap:      0.60653020 eV.

  Total energy components:
  | Sum of eigenvalues            :        -343.07645516 Ha       -9335.58533413 eV
  | XC energy correction          :         -54.21260237 Ha       -1475.19996788 eV
  | XC potential correction       :          71.55770966 Ha        1947.18435139 eV
  | Free-atom electrostatic energy:        -318.56083556 Ha       -8668.48138310 eV
  | Hartree energy correction     :          -1.56132290 Ha         -42.48575779 eV
  | Entropy correction            :          -0.00000000 Ha          -0.00000000 eV
  | ---------------------------
  | Total energy                  :        -645.85350633 Ha      -17574.56809152 eV
  | Total energy, T -> 0          :        -645.85350633 Ha      -17574.56809152 eV  <-- do not rely on this value for anything but (periodic) metals
  | Electronic free energy        :        -645.85350633 Ha      -17574.56809152 eV

  Derived energy quantities:
  | Kinetic energy                :         643.80451864 Ha       17518.81229949 eV
  | Electrostatic energy          :       -1235.44542260 Ha      -33618.18042313 eV
  | Energy correction for multipole
  | error in Hartree potential    :          -0.00006530 Ha          -0.00177680 eV
  | Sum of eigenvalues per atom                           :       -2333.89633353 eV
  | Total energy (T->0) per atom                          :       -4393.64202288 eV  <-- do not rely on this value for anything but (periodic) metals
  | Electronic free energy per atom                       :       -4393.64202288 eV

  Self-consistency convergence accuracy:
  | Change of charge density      :  0.5512E-05
  | Change of sum of eigenvalues  : -0.4919E-02 eV
  | Change of total energy        :  0.8560E-08 eV

  End self-consistency iteration #     9       :  max(cpu_time)    wall_clock(cpu1)
  | Time for this iteration                    :        0.084 s           0.085 s
  | Charge density update                      :        0.017 s           0.017 s
  | Density mixing                             :        0.002 s           0.002 s
  | Hartree multipole update                   :        0.003 s           0.003 s
  | Hartree multipole summation                :        0.030 s           0.029 s
  | Integration                                :        0.032 s           0.032 s
  | Solution of K.-S. eqns.                    :        0.001 s           0.001 s
  | Total energy evaluation                    :        0.000 s           0.001 s
------------------------------------------------------------

------------------------------------------------------------
          Begin self-consistency iteration #   10

  Date     :  20170824, Time     :  124958.390
------------------------------------------------------------
  Evaluating new KS density.
  Integration grid: deviation in total charge (<rho> - N_e) =   4.258993E-11
  Pulay mixing of updated and previous charge densities.

  Evaluating partitioned Hartree potential by multipole expansion.
  | Analytical far-field extrapolation by fixed multipoles:
  | Hartree multipole sum: apparent total charge =  -0.563956E-04
  Summing up the Hartree potential with load balancing.
  Time summed over all CPUs for potential: real work        0.114 s, elapsed        0.115 s
  | RMS charge density error from multipole expansion :   0.954163E-03

  Integrating Hamiltonian matrix: batch-based integration with load balancing
  Time summed over all CPUs for integration: real work        0.126 s, elapsed        0.128 s
  Time get_set_full_local_matrix_scalapack:     0.000038 s

  Solving generalized eigenproblem
  Solving real symmetric generalised eigenvalue problem by standard ScaLAPACK.
  Using Cholesky factor for transformation
  Using 1-stage real ELPA solver
  Determining occupation numbers for Kohn-Sham eigenstates.
  | Chemical potential (Fermi level) in eV                 : -.23436243E+01
  | Error in electron count due to remaining E_F inaccuracy: 0.42589932E-10
  | Maximum occupation number of highest empty state:  0.00E+00

  Highest occupied state (VBM) at     -2.71699245 eV
  | Occupation number:      2.00000000

  Lowest unoccupied state (CBM) at    -2.11046356 eV
  | Occupation number:      0.00000000

  Overall HOMO-LUMO gap:      0.60652890 eV.

  Total energy components:
  | Sum of eigenvalues            :        -343.07642163 Ha       -9335.58442193 eV
  | XC energy correction          :         -54.21260443 Ha       -1475.20002382 eV
  | XC potential correction       :          71.55771236 Ha        1947.18442501 eV
  | Free-atom electrostatic energy:        -318.56083556 Ha       -8668.48138310 eV
  | Hartree energy correction     :          -1.56135707 Ha         -42.48668768 eV
  | Entropy correction            :          -0.00000000 Ha          -0.00000000 eV
  | ---------------------------
  | Total energy                  :        -645.85350633 Ha      -17574.56809152 eV
  | Total energy, T -> 0          :        -645.85350633 Ha      -17574.56809152 eV  <-- do not rely on this value for anything but (periodic) metals
  | Electronic free energy        :        -645.85350633 Ha      -17574.56809152 eV

  Derived energy quantities:
  | Kinetic energy                :         643.80452750 Ha       17518.81254071 eV
  | Electrostatic energy          :       -1235.44542941 Ha      -33618.18060841 eV
  | Energy correction for multipole
  | error in Hartree potential    :          -0.00006530 Ha          -0.00177691 eV
  | Sum of eigenvalues per atom                           :       -2333.89610548 eV
  | Total energy (T->0) per atom                          :       -4393.64202288 eV  <-- do not rely on this value for anything but (periodic) metals
  | Electronic free energy per atom                       :       -4393.64202288 eV

  Self-consistency convergence accuracy:
  | Change of charge density      :  0.1527E-05
  | Change of sum of eigenvalues  :  0.9122E-03 eV
  | Change of total energy        : -0.3245E-08 eV

  End self-consistency iteration #    10       :  max(cpu_time)    wall_clock(cpu1)
  | Time for this iteration                    :        0.084 s           0.084 s
  | Charge density update                      :        0.017 s           0.017 s
  | Density mixing                             :        0.002 s           0.001 s
  | Hartree multipole update                   :        0.002 s           0.003 s
  | Hartree multipole summation                :        0.030 s           0.029 s
  | Integration                                :        0.032 s           0.033 s
  | Solution of K.-S. eqns.                    :        0.001 s           0.000 s
  | Total energy evaluation                    :        0.000 s           0.001 s
------------------------------------------------------------

------------------------------------------------------------
          Begin self-consistency iteration #   11

  Date     :  20170824, Time     :  124958.474
------------------------------------------------------------
  Evaluating new KS density.
  Integration grid: deviation in total charge (<rho> - N_e) =   4.266099E-11
  Pulay mixing of updated and previous charge densities.

  Evaluating partitioned Hartree potential by multipole expansion.
  | Analytical far-field extrapolation by fixed multipoles:
  | Hartree multipole sum: apparent total charge =  -0.563957E-04
  Summing up the Hartree potential with load balancing.
  Time summed over all CPUs for potential: real work        0.115 s, elapsed        0.116 s
  | RMS charge density error from multipole expansion :   0.954161E-03

  Integrating Hamiltonian matrix: batch-based integration with load balancing
  Time summed over all CPUs for integration: real work        0.123 s, elapsed        0.123 s
  Time get_set_full_local_matrix_scalapack:     0.000046 s

  Solving generalized eigenproblem
  Solving real symmetric generalised eigenvalue problem by standard ScaLAPACK.
  Using Cholesky factor for transformation
  Using 1-stage real ELPA solver
  Determining occupation numbers for Kohn-Sham eigenstates.
  | Chemical potential (Fermi level) in eV                 : -.23436246E+01
  | Error in electron count due to remaining E_F inaccuracy: 0.42589932E-10
  | Maximum occupation number of highest empty state:  0.00E+00

  Highest occupied state (VBM) at     -2.71699252 eV
  | Occupation number:      2.00000000

  Lowest unoccupied state (CBM) at    -2.11046370 eV
  | Occupation number:      0.00000000

[...]
  | Hartree multipole summation                :        0.030 s           0.030 s
  | Integration                                :        0.031 s           0.031 s
  | Solution of K.-S. eqns.                    :        0.001 s           0.001 s
  | Total energy evaluation                    :        0.000 s           0.000 s
------------------------------------------------------------

  Energy and forces in a compact form:
  | Total energy uncorrected      :         -0.175745680915223E+05 eV
  | Total energy corrected        :         -0.175745680915223E+05 eV  <-- do not rely on this value for anything but (periodic) metals
  | Electronic free energy        :         -0.175745680915223E+05 eV

  ------------------------------------ 
  Start decomposition of the XC Energy 
  ------------------------------------ 
  X and C from original XC functional choice 
  Hartree-Fock Energy :          0.000000000 Ha              0.000000000 eV
  X Energy            :        -50.959408124 Ha          -1386.676048364 eV
  C Energy            :         -3.253196237 Ha            -88.523973669 eV
  Total XC Energy     :        -54.212604362 Ha          -1475.200022033 eV
  ------------------------------------ 
  LDA X and C from self-consistent density 
  X Energy LDA        :        -50.959408124 Ha          -1386.676048364 eV
  C Energy LDA        :         -3.253196237 Ha            -88.523973669 eV
  ------------------------------------ 
  End decomposition of the XC Energy 
  ------------------------------------ 
 
 --------------------------------------------
  Constructing auxiliary basis (full product) ...
 
  Product basis:
  | charge radius: extent of product basis function
  | field radius: extent of its Coulomb potential
  | Species   l  charge radius    field radius  multipol momen
  |    Na     0     1.449931 A      1.449931 A       -1.116180E-16 a.u.
  |    Na     0     3.855553 A      3.855553 A       -1.046980E-18 a.u.
  |    Na     1     4.200021 A      4.200021 A        1.760831E-17 a.u.
  |    Na     0     5.842531 A      5.842531 A        2.388490E-16 a.u.
  |    Na     3     5.987141 A      5.987141 A        1.072479E-15 a.u.
  |    Na     1     6.060783 A      6.060783 A        3.136920E-17 a.u.
  |    Na     2     6.060783 A      6.060783 A        1.159728E-16 a.u.
  |    Na     3     6.060783 A      6.060783 A        2.764634E-16 a.u.
  |    Na     1     6.210795 A      6.210795 A       -1.122618E-16 a.u.
  |    Na     1     6.287188 A      6.287188 A        4.532547E-16 a.u.
  |    Na     0     6.364521 A      6.364521 A        7.640613E-18 a.u.
  |    Na     2     6.364521 A      6.364521 A       -4.974741E-16 a.u.
  |    Na     2     6.364521 A      6.364521 A       -1.602734E-15 a.u.
  |    Na     2     6.364521 A      6.364521 A        2.001666E-15 a.u.
  |    Na     0     6.364521 A      6.442804 A       -2.230945E-16 a.u.
  |    Na     1     6.364521 A      6.442804 A        5.985976E-16 a.u.
  |    Na     2     6.442804 A      6.442804 A        3.973192E-15 a.u.
  |    Na     0     6.442804 A      6.522051 A       -2.174407E-16 a.u.
  |    Na     0     6.442804 A      6.522051 A        3.385054E-16 a.u.
  |    Na     1     6.442804 A      6.522051 A        8.828432E-16 a.u.
  |    Na     1     6.442804 A      6.522051 A        4.492100E-16 a.u.
  |    Na     2     6.442804 A      6.522051 A        9.053667E-15 a.u.
  |    Na     4     5.771541 A  4.467983E+02 A           34.146169 a.u.
  |    Na     3     6.060783 A  2.494633E+03 A           39.301766 a.u.
  |    Na     2     6.442804 A  3.418818E+04 A           21.459257 a.u.
  |    Na     1     6.442804 A  3.483140E+06 A            3.447701 a.u.
  |    Na     0     6.442804 A  5.276567E+12 A            0.793488 a.u.

  | Shrink_full_auxil_basis : there are       27  radial auxiliary wave functions
                            accepted and      15 rejected.
  | Shrink_full_auxil_basis : there are totally                 388 partial auxiliary wave functions.
 
  | Maximal number of product basis functions per thread :   100   100
 
  | Minimal total memory requirement for three-center overlap :       0.008 Gbs
  | Number of local auxiliary basis functions on task:      0   100
  | Number of local auxiliary basis functions on task:      1    96
  | Number of local auxiliary basis functions on task:      2    96
  | Number of local auxiliary basis functions on task:      3    96
  | 2D aux task distribution:      2 X      2
  | 2D block size (nb_aux_2d):     64
  | Task at    0 x    0 gets    196 x    196 entries of 2D aux
  | Task at    0 x    1 gets    196 x    192 entries of 2D aux
  | Task at    1 x    0 gets    192 x    196 entries of 2D aux
  | Task at    1 x    1 gets    192 x    192 entries of 2D aux
 
  Basis pair condensation :      1830  -->       1822
 
 ----------------------------------------------------
  Integrating the 3-basis-function Coulomb matrix ...
  | i_atom:            1
  | i_atom:            2
  | i_atom:            3
  | i_atom:            4
 
  Integrating the coulomb interaction matrix for basis functions ...
 
  Diagonalizing the Coulomb matrix and checking for singularities with ScaLapack .
 
  Difference of Coulomb matrix to its transposed:  6.4527E-05
  Eigenvalues of the Coulomb matrix range from    3.9424E+00 to    1.0150E-05.
  Using      385   eigenvalues out of rank      388   Coulomb matrix (auxiliary basis).
  Still using eigenvalue     3.4042E-04 while cutting     3.3558E-05 in Coulomb matrix.
 
  Multiplying ovlp_3fn x V^-0.5 (2d-scalapack)

  End of correlation preparation               :  max(cpu_time)    wall_clock(cpu1)
  | Product basis setup: Total time            :        2.222 s           2.224 s
  | Product basis: | 3-center integrations     :        1.276 s           1.277 s
  | Product basis: | 2-center integrations     :        0.891 s           0.891 s
  | Product basis: | 2-center linear algebra   :        0.011 s           0.011 s
  | Product basis: | 3-center x 2-center       :        0.020 s           0.020 s

--------------------------------------------
          GW quasiparticle calculation starts ...

  The ovlp_3KS matrix takes another      1 MiB x      4 procs =       0.006 GiB.


  Initialising transformed Gauss-Legendre time and frequency grids
  Number of frequency points for self energy.....: 40
  Number of frequency points....................: 40
 
  Starts to calculate the exchange energy ...
 
  Integrating the xc potential matrix  for basis functions ...
 
 -------------------------------------------------
  Start to calculate the self energy ... 
  HOMO and first non-fully-occupied orbitals:   22   23
 
 | i_freq    1            0.000441
 | i_freq    2            0.002329
 | i_freq    3            0.005750
 | i_freq    4            0.010747
 | i_freq    5            0.017381
 | i_freq    6            0.025735
 | i_freq    7            0.035917
 | i_freq    8            0.048062
 | i_freq    9            0.062333
 | i_freq   10            0.078932
 | i_freq   11            0.098102
 | i_freq   12            0.120134
 | i_freq   13            0.145383
 | i_freq   14            0.174274
 | i_freq   15            0.207324
 | i_freq   16            0.245160
 | i_freq   17            0.288549
 | i_freq   18            0.338436
 | i_freq   19            0.395990
 | i_freq   20            0.462675
 | i_freq   21            0.540336
 | i_freq   22            0.631329
 | i_freq   23            0.738693
 | i_freq   24            0.866404
 | i_freq   25            1.019743
 | i_freq   26            1.205842
 | i_freq   27            1.434520
 | i_freq   28            1.719594
 | i_freq   29            2.081004
 | i_freq   30            2.548378
 | i_freq   31            3.167279
 | i_freq   32            4.010715
 | i_freq   33            5.201652
 | i_freq   34            6.960432
 | i_freq   35            9.714380
 | i_freq   36           14.383789
 | i_freq   37           23.262462
 | i_freq   38           43.475277
 | i_freq   39          107.331113
 | i_freq   40          566.943404
 --------------------------------------------
 
  Analytical continuation (Pade approximation) starts...
 
  Quasi particle energy calculation using analytic continuation starts...
  QUASI_PARTILCE_ENERGY: self-consistent quasiparticle solution can not  be found for state: i_state =   12  i_spin =    1
  QUASI_PARTILCE_ENERGY: self-consistent quasiparticle solution can not  be found for state: i_state =   20  i_spin =    1
  QUASI_PARTILCE_ENERGY: self-consistent quasiparticle solution can not  be found for state: i_state =   31  i_spin =    1
  QUASI_PARTILCE_ENERGY: self-consistent quasiparticle solution can not  be found for state: i_state =   32  i_spin =    1
 
------------------------------------------------------------------------------------------------------
               GW quasi-particle energy levels
 
               e_qp = e_gs + e_x^ex - e_xc^gs + e_c^nloc
 
  state     occ_num        e_gs        e_x^ex        e_xc^gs        e_c^nloc        e_qp
------------------------------------------------------------------------------------------------------
------------------------------------------------------------------------------------------------------
       1    2.0000    -1025.8932     -186.7948     -110.9081       19.6009    -1082.1791
       2    2.0000    -1025.8932     -186.7948     -110.9081       19.5586    -1082.2213
       3    2.0000    -1025.2480     -186.8010     -110.9080       17.4430    -1083.6979
       4    2.0000    -1025.2480     -186.8010     -110.9080       17.4390    -1083.7020
       5    2.0000      -55.7355      -53.5005      -33.1977        6.1174      -69.9208
       6    2.0000      -55.7298      -53.5141      -33.2095        6.1994      -69.8349
       7    2.0000      -55.0493      -53.5346      -33.2054        6.8380      -68.5405
       8    2.0000      -55.0493      -53.5346      -33.2054        6.7511      -68.6274
       9    2.0000      -28.5015      -44.9658      -32.0194        3.5536      -37.8943
      10    2.0000      -28.4598      -45.0505      -32.1000        2.2418      -39.1683
      11    2.0000      -28.4516      -45.0752      -32.1255        3.2733      -38.1279
      12    2.0000      -28.4296      -45.1540      -32.1957        9.9192      -31.4686
      13    2.0000      -28.4188      -45.0952      -32.1075        3.0982      -38.3084
      14    2.0000      -28.4100      -45.1236      -32.1371        3.1522      -38.2444
      15    2.0000      -27.7742      -45.0522      -32.1126        2.8613      -37.8525
      16    2.0000      -27.7740      -45.0555      -32.1153        3.3448      -37.3694
      17    2.0000      -27.7695      -45.0604      -32.1159        2.4674      -38.2466
      18    2.0000      -27.7695      -45.0601      -32.1159        3.6954      -37.0183
      19    2.0000      -27.7648      -45.0572      -32.1099        2.9947      -37.7174
      20    2.0000      -27.7644      -45.0648      -32.1165       14.9373      -25.7754
      21    2.0000       -3.9414       -7.7332       -6.2042        0.3498       -5.1205
      22    2.0000       -2.7170       -6.3994       -5.5665       -0.4263       -3.9762
      23    0.0000       -2.1105       -1.9727       -4.6909       -1.2122       -0.6045
      24    0.0000       -1.4866       -2.2959       -4.7670       -1.1128       -0.1282
      25    0.0000       -1.1331       -2.0424       -5.0766       -1.3794        0.5216
      26    0.0000       -0.4799       -2.3193       -5.5408       -1.2898        1.4518
      27    0.0000       -0.2449       -1.8757       -4.9009       -1.7573        1.0229
      28    0.0000       -0.2167       -2.3836       -5.4899       -0.8262        2.0632
      29    0.0000        0.2641       -2.0609       -5.3706       -1.1985        2.3753
      30    0.0000        1.2209       -1.7448       -5.3512       -0.6939        4.1333
      31    0.0000        1.2571       -2.0081       -5.6643       -2.7532        2.1602
      32    0.0000        1.6874       -2.0197       -5.7681       -2.0776        3.3582
------------------------------------------------------------------------------------------------------
 
   DFT/Hartree-Fock HOMO level (eV):    -2.7170   -2.7170
 
   Quasiparticle HOMO level (eV):       -3.9762   -3.9762
 
------------------------------------------------------------------------------------------------------
 
          | Total time for transforming the 3-center integrals :        0.008 s
          | Total time for calculating the exchange-correlation
                                  energy matrix elements   :        0.030 s
          | Total time for calculating polarisability      :        0.123 s
          | Total time for calculating self energy 
                        on imaginary frequency axis        :        0.677 s
          | Total time for calculating the quasiparticle 
                  energies with analytic continuation      :        0.000 s
          | Total time for calculating the quasiparticle 
                  energies with contour deformation        :        0.000 s
  Deallocating        0.008 MB for ovlp
  Deallocating        0.008 MB for ham
  Deallocating        0.008 MB for eigenvec
  Deallocating        0.000 MB for eigenvec_complex

------------------------------------------------------------------------------
  Final output of selected total energy values:

  The following output summarizes some interesting total energy values
  at the end of a run (AFTER all relaxation, molecular dynamics, etc.).

  | Total energy of the DFT / Hartree-Fock s.c.f. calculation      :         -17574.568091522 eV
  | Final zero-broadening corrected energy (caution - metals only) :         -17574.568091522 eV
  | For reference only, the value of 1 Hartree used in FHI-aims is :             27.211384500 eV

  Before relying on these values, please be sure to understand exactly which
  total energy value is referred to by a given number. Different objects may
  all carry the same name 'total energy'. Definitions:

  Total energy of the DFT / Hartree-Fock s.c.f. calculation:
  | Note that this energy does not include ANY quantities calculated after the
  | s.c.f. cycle, in particular not ANY RPA, MP2, etc. many-body perturbation terms.

  Final zero-broadening corrected energy:
  | For metallic systems only, a broadening of the occupation numbers at the Fermi
  | level can be extrapolated back to zero broadening by an electron-gas inspired
  | formula. For all systems that are not real metals, this value can be
  | meaningless and should be avoided.

------------------------------------------------------------------------------
  Methods described in the following list of references were used in this FHI-aims run.
  If you publish the results, please make sure to cite these reference if they apply.
  FHI-aims is an academic code, and for our developers (often, Ph.D. students
  and postdocs), scientific credit in the community is essential.
  Thank you for helping us!

  For any use of FHI-aims, please cite:

    Volker Blum, Ralf Gehrke, Felix Hanke, Paula Havu, Ville Havu,
    Xinguo Ren, Karsten Reuter, and Matthias Scheffler
    'Ab initio molecular simulations with numeric atom-centered orbitals'
    Computer Physics Communications 180, 2175-2196 (2009)
    http://dx.doi.org/10.1016/j.cpc.2009.06.022


  For Hartree-Fock, hybrid functionals, or many-body perturbation theory used in your run, please cite:

    Xinguo Ren, Patrick Rinke, Volker Blum, Juergen Wieferink, Alex Tkatchenko,
    Andrea Sanfilippo, Karsten Reuter, and Matthias Scheffler,
    'Resolution-of-identity approach to Hartree-Fock, hybrid density functionals,
    RPA, MP2, and GW with numeric atom-centered orbital basis functions'
    New Journal of Physics 14, 053020 (2012).
    http://dx.doi.org/10.1088/1367-2630/14/5/053020


  The scalable eigensolver library ELPA was used in your run.
  ELPA is essential especially for large systems on hundreds or thousands of CPUs.
  For ELPA, please cite:

    Andreas Marek, Volker Blum, Rainer Johanni, Ville Havu, Bruno Lang,
    Thomas Auckenthaler, Alexander Heinecke, Hans-Joachim Bungartz, and Hermann Lederer,
    'The ELPA Library - Scalable Parallel Eigenvalue Solutions
    for Electronic Structure Theory and Computational Science'
    The Journal of Physics: Condensed Matter 26, 213201 (2014).
    http://dx.doi.org/10.1088/0953-8984/26/21/213201


  For the real-space grid partitioning and parallelization used in this calculation, please cite:

    Ville Havu, Volker Blum, Paula Havu, and Matthias Scheffler,
    'Efficient O(N) integration for all-electron electronic structure calculation'
    'using numerically tabulated basis functions'
    Journal of Computational Physics 228, 8367-8379 (2009).
    http://dx.doi.org/10.1016/j.jcp.2009.08.008

  Of course, there are many other important community references, e.g., those cited in the
  above references. Our list is limited to references that describe implementations in the
  FHI-aims code. The reason is purely practical (length of this list) - please credit others as well.
  
  Summary of tracked memory consumption on task 0:
  | Residual value for overall tracked memory usage:        0.000 MB (should be 0.000 MB)
  | Maximum value for overall tracked memory usage :        0.025 MB after allocating occ_numbers_soc
  | Largest tracked array allocation               :        0.008 MB  when allocating +ovlp
  Note:  These values only include arrays which are explicitly tracked.  The "true" memory usage
         will be greater.

------------------------------------------------------------
          Leaving FHI-aims.
          Date     :  20170824, Time     :  125001.638

          Computational steps:
          | Number of self-consistency cycles          :           11

          Detailed time accounting                     :  max(cpu_time)    wall_clock(cpu1)
          | Total time                                 :        4.227 s           4.229 s
          | Preparation time                           :        0.060 s           0.060 s
          | Boundary condition initalization           :        0.000 s           0.001 s
          | Grid partitioning                          :        0.025 s           0.025 s
          | Preloading free-atom quantities on grid    :        0.003 s           0.004 s
          | Free-atom superposition energy             :        0.011 s           0.010 s
          | Total time for integrations                :        0.403 s           0.404 s
          | Product basis setup: Total time            :        0.000 s           0.000 s
          | Product basis: | 3-center integrations     :(       1.276 s)  (       1.277 s)
          | Product basis: | 2-center integrations     :(       0.891 s)  (       0.891 s)
          | Product basis: | 2-center linear algebra   :(       0.011 s)  (       0.011 s)
          | Product basis: | 3-center x 2-center       :(       0.020 s)  (       0.020 s)
          | Transforming ovlp_3fn to ovlp_3KS          :        0.008 s           0.009 s
          | Total time for evaluating scr. Coulomb matr:        0.000 s           0.000 s
          | Total time for GW self-energy              :        0.804 s           0.804 s
          | Total time for solution of K.-S. equations :        0.013 s           0.013 s
          | Total time for density update              :        0.184 s           0.184 s
          | Total time for mixing                      :        0.014 s           0.013 s
          | Total time for Hartree multipole update    :        0.025 s           0.026 s
          | Total time for Hartree multipole sum       :        0.331 s           0.331 s
          | Total time for total energy evaluation     :        0.001 s           0.002 s

          Have a nice day.
------------------------------------------------------------
