  MPI-parallelism will be employed.
------------------------------------------------------------
          Invoking FHI-aims ...

          When using FHI-aims, please cite the following reference:

          Volker Blum, Ralf Gehrke, Felix Hanke, Paula Havu,
          Ville Havu, Xinguo Ren, Karsten Reuter, and Matthias Scheffler,
          'Ab Initio Molecular Simulations with Numeric Atom-Centered Orbitals',
          Computer Physics Communications 180, 2175-2196 (2009)

          For any questions about FHI-aims, please visit the aimsclub website
          with its forums and wiki. Contributions to both the forums and the
          wiki are warmly encouraged - they are for you, and everyone is welcome there.

------------------------------------------------------------



  Date     :  20190817, Time     :  153449.541
  Time zero on CPU 1             :   0.236670000000000E-01  s.
  Internal wall clock time zero  :           335288089.541  s.

  FHI-aims created a unique identifier for this run for later identification
  aims_uuid : 090ACCB8-06FD-491D-A36E-3F62C65CED37

  Build configuration of the current instance of FHI-aims
  -------------------------------------------------------
  FHI-aims version      : 190813
  Commit number         : 3da7baeb3
  CMake host system     : Linux-4.4.180-94.97-default
  CMake version         : 3.5.2
  Fortran compiler      : /mpcdf/soft/SLE_12_SP3/packages/x86_64/intel_parallel_studio/2018.4/compilers_and_libraries_2018.5.274/linux/mpi/bin64/mpiifort (Intel) version 18.0.5.20180823
  Fortran compiler flags: -O3 -ip -fp-model precise
  C compiler            : /mpcdf/soft/SLE_12_SP3/packages/skylake/intel/18.0.5/bin/icc (Intel) version 18.0.5.20180823
  C compiler flags      : -O3 -ip -fp-model precise
  Architecture          :
  Using MPI
  Using Scalapack
  Using C files
  Using SPGlib
  Using i-PI
  Linking against: /mpcdf/soft/SLE_12_SP3/packages/x86_64/anaconda/3.5.1.0/lib/libmkl_intel_lp64.so
                   /mpcdf/soft/SLE_12_SP3/packages/x86_64/anaconda/3.5.1.0/lib/libmkl_sequential.so
                   /mpcdf/soft/SLE_12_SP3/packages/x86_64/anaconda/3.5.1.0/lib/libmkl_core.so
                   /mpcdf/soft/SLE_12_SP3/packages/x86_64/anaconda/3.5.1.0/lib/libmkl_blacs_intelmpi_lp64.so
                   /mpcdf/soft/SLE_12_SP3/packages/x86_64/anaconda/3.5.1.0/lib/libmkl_scalapack_lp64.so

  Using        8 parallel tasks.
  Task        0 on host co1631 reporting.
  Task        1 on host co1631 reporting.
  Task        2 on host co1631 reporting.
  Task        3 on host co1631 reporting.
  Task        4 on host co1631 reporting.
  Task        5 on host co1631 reporting.
  Task        6 on host co1631 reporting.
  Task        7 on host co1631 reporting.

  Performing system and environment tests:
  | Environment variable OMP_NUM_THREADS correctly set to 1.
  | Maximum stacksize for task 0: unlimited
  | Maximum stacksize for task 1: unlimited
  | Maximum stacksize for task 2: unlimited
  | Maximum stacksize for task 3: unlimited
  | Maximum stacksize for task 4: unlimited
  | Maximum stacksize for task 5: unlimited
  | Maximum stacksize for task 6: unlimited
  | Maximum stacksize for task 7: unlimited
  | Current stacksize for task 0: unlimited
  | Current stacksize for task 1: unlimited
  | Current stacksize for task 2: unlimited
  | Current stacksize for task 3: unlimited
  | Current stacksize for task 4: unlimited
  | Current stacksize for task 5: unlimited
  | Current stacksize for task 6: unlimited
  | Current stacksize for task 7: unlimited
  | Checking for scalapack...
  | Testing pdtran()...
  | All pdtran() tests passed.

  Obtaining array dimensions for all initial allocations:
  
  -----------------------------------------------------------------------
  Parsing control.in (first pass over file, find array dimensions only).
  The contents of control.in will be repeated verbatim below
  unless switched off by setting 'verbatim_writeout .false.' .
  in the first line of control.in .
  -----------------------------------------------------------------------
  
  #
   xc pbe
   k_grid 2 2 1
  #
  # Just to test the ill-conditioned code path
   basis_threshold 1.d-3
   override_illconditioning .true.
  #
  ################################################################################
  #
  #  Modified "light" defaults for Si atom (for this test only)
  #
  ################################################################################
    species        Si
  #     global species definitions
      nucleus             14
      mass                28.0855
      core_states         5
  #
      l_hartree           4
  #
      cut_pot             3.5          1.5  1.0
      basis_dep_cutoff    1e-4
  #
      radial_base         42 5.0
      radial_multiplier   1
      angular_grids       specified
        division   0.5866   50
        division   0.9616  110
        division   1.2249  194
        division   1.3795  302
  #      division   1.4810  434
  #      division   1.5529  590
  #      division   1.6284  770
  #      division   1.7077  974
  #      division   2.4068 1202
  #      outer_grid   974
        outer_grid 302
  ################################################################################
  #
  #  Definition of "minimal" basis
  #
  ################################################################################
  #     valence basis states
      valence      3  s   2.
      valence      3  p   2.
  #     ion occupancy
      ion_occ      3  s   1.
      ion_occ      3  p   1.
  ################################################################################
  #
  #  Suggested additional basis functions. For production calculations,
  #  uncomment them one after another (the most important basis functions are
  #  listed first).
  #
  #  Constructed for dimers: 1.75 A, 2.0 A, 2.25 A, 2.75 A, 3.75 A
  #
  ################################################################################
  #  "First tier" - improvements: -571.96 meV to -37.03 meV
       hydro 3 d 4.2
       hydro 2 p 1.4
       hydro 4 f 6.2
       ionic 3 s auto
  #  "Second tier" - improvements: -16.76 meV to -3.03 meV
       hydro 3 d 9
       hydro 5 g 9.4
       hydro 4 p 4
       hydro 1 s 0.65
  #  "Third tier" - improvements: -3.89 meV to -0.60 meV
  #     ionic 3 d auto
  #     hydro 3 s 2.6
  #     hydro 4 f 8.4
  #     hydro 3 d 3.4
  #     hydro 3 p 7.8
  #  "Fourth tier" - improvements: -0.33 meV to -0.11 meV
  #     hydro 2 p 1.6
  #     hydro 5 g 10.8
  #     hydro 5 f 11.2
  #     hydro 3 d 1
  #     hydro 4 s 4.5
  #  Further basis functions that fell out of the optimization - noise
  #  level... < -0.08 meV
  #     hydro 4 d 6.6
  #     hydro 5 g 16.4
  #     hydro 4 d 9
  
  -----------------------------------------------------------------------
  Completed first pass over input file control.in .
  -----------------------------------------------------------------------
  
  
  -----------------------------------------------------------------------
  Parsing geometry.in (first pass over file, find array dimensions only).
  The contents of geometry.in will be repeated verbatim below
  unless switched off by setting 'verbatim_writeout .false.' .
  in the first line of geometry.in .
  -----------------------------------------------------------------------
  
  #
  lattice_vector 0.0 2.708 2.708
  lattice_vector 2.708 0.0 2.708
  lattice_vector 2.708 2.708 0.0
  atom 0.0 0.0 0.0 Si
  atom 1.354 1.354 1.354 Si
  
  
  
  -----------------------------------------------------------------------
  Completed first pass over input file geometry.in .
  -----------------------------------------------------------------------
  

  Basic array size parameters:
  | Number of species                 :        1
  | Number of atoms                   :        2
  | Number of lattice vectors         :        3
  | Max. basis fn. angular momentum   :        4
  | Max. atomic/ionic basis occupied n:        3
  | Max. number of basis fn. types    :        3
  | Max. radial fns per species/type  :        7
  | Max. logarithmic grid size        :     1346
  | Max. radial integration grid size :       42
  | Max. angular integration grid size:      302
  | Max. angular grid division number :        8
  | Radial grid for Hartree potential :     1346
  | Number of spin channels           :        1

------------------------------------------------------------
          Reading file control.in.
------------------------------------------------------------
  XC: Using PBE gradient-corrected functionals.
  Found k-point grid:         2         2         1
  Threshold for basis singularities:  0.1000E-02
  override_illconditioning: Explicitly overriding any built-in checks for an ill-conditioned overlap matrix.
  *** WARNING: If you use this flag, you should really know what you are doing.
  *** DO NOT keep this flag set by default in all your control.in files.
 
  Reading configuration options for species Si                  .
  | Found nuclear charge :  14.0000
  | Found atomic mass :    28.0855000000000      amu
  | Number of core states :   5
  | Found l_max for Hartree potential  :   4
  | Found cutoff potl. onset [A], width [A], scale factor :    3.50000    1.50000    1.00000
  | Threshold for basis-dependent cutoff potential is   0.100000E-03
  | Found data for basic radial integration grid :    42 points, outermost radius =    5.000 A
  | Found multiplier for basic radial grid :   1
  | Found angular grid specification: user-specified.
  | Specified grid contains     5 separate shells.
  | Check grid settings after all constraints further below.
  | Found free-atom valence shell :  3 s   2.000
  | Found free-atom valence shell :  3 p   2.000
  | Found free-ion valence shell :  3 s   1.000
  | Found free-ion valence shell :  3 p   1.000
  | Found hydrogenic basis function :  3 d   4.200
  | Found hydrogenic basis function :  2 p   1.400
  | Found hydrogenic basis function :  4 f   6.200
  | Found ionic basis function :  3 s , default cutoff radius.
  | Found hydrogenic basis function :  3 d   9.000
  | Found hydrogenic basis function :  5 g   9.400
  | Found hydrogenic basis function :  4 p   4.000
  | Found hydrogenic basis function :  1 s   0.650
  Species Si                  : Missing cutoff potential type.
  Defaulting to exp(1/x)/(1-x)^2 type cutoff potential.
  Species Si: No 'logarithmic' tag. Using default grid for free atom:
  | Default logarithmic grid data [bohr] : 0.1000E-03 0.1000E+03 0.1012E+01
  | Will include ionic basis functions of  2.0-fold positive Si                   ion.
  Species Si: On-site basis accuracy parameter (for Gram-Schmidt orthonormalisation) not specified.
  Using default value basis_acc =  0.1000000E-03.
  Species Si                  : Using default innermost maximum threshold i_radial=  2 for radial functions.
  Species Si                  : Default cutoff onset for free atom density etc. : 0.35000000E+01 AA.
  Species Si                  : Basic radial grid will be enhanced according to radial_multiplier =   1, to contain    42 grid points.
 
  Finished reading input file 'control.in'. Consistency checks are next.
 
  MPI_IN_PLACE appears to work with this MPI implementation.
  | Keeping use_mpi_in_place .true. (see manual).
  Target number of points in a grid batch is not set. Defaulting to  100
  Method for grid partitioning is not set. Defaulting to parallel hash+maxmin partitioning.
  Batch size limit is not set. Defaulting to    200
  By default, will store active basis functions for each batch.
  If in need of memory, prune_basis_once .false. can be used to disable this option.
  communication_type for Hartree potential was not specified.
  Defaulting to calc_hartree .
  Defaulting to Pulay charge density mixer.
  Pulay mixer: Number of relevant iterations not set.
  Defaulting to    8 iterations.
  Pulay mixer: Number of initial linear mixing iterations not set.
  Defaulting to    0 iterations.
  Work space size for distributed Hartree potential not set.
  Defaulting to   0.200000E+03 MB.
  Mixing parameter for charge density mixing has not been set.
  Using default: charge_mix_param =     0.0500.
  The mixing parameter will be adjusted in iteration number     2 of the first full s.c.f. cycle only.
  Algorithm-dependent basis array size parameters:
  | n_max_pulay                         :        8
 * Notice: The s.c.f. convergence criterion sc_accuracy_rho was not provided.
 * We used to stop in this case, and ask the user to provide reasonable
 * scf convergence criteria. However, this led some users to employ criteria
 * that led to extremely long run times, e.g., for simple relaxation.
 * We now preset a default value for sc_accuracy_rho if it is not set.
 * You may still wish to check if this setting is too tight or too loose for your needs.
 * Based on n_atoms, FHI-aims chose sc_accuracy_rho =  0.100000E-05 .
  Maximum number of self-consistency iterations not provided.
  Presetting  1000 iterations.
  Presetting      1001 iterations before the initial mixing cycle
  is restarted anyway using the sc_init_iter criterion / keyword.
  Presetting a factor      1.000 between actual scf density residual
  and density convergence criterion sc_accuracy_rho below which sc_init_iter
  takes no effect.
 * No s.c.f. convergence criteria (sc_accuracy_*) were provided in control.in.
 * The run will proceed with a reasonable default guess, but please check whether.
 * the s.c.f. cycles seem to take too much or too little time.
  Calculation of forces was not defined in control.in. No forces will be calculated.
  Geometry relaxation not requested: no relaxation will be performed.
  No accuracy limit for integral partition fn. given. Defaulting to  0.1000E-14.
  No threshold value for u(r) in integrations given. Defaulting to  0.1000E-05.
  No occupation type (smearing scheme) given. Defaulting to Gaussian broadening, width =  0.1000E-01 eV.
  The width will be adjusted in iteration number     2 of the first full s.c.f. cycle only.
  S.C.F. convergence parameters will be adjusted in iteration number     2 of the first full s.c.f. cycle only.
  No accuracy for occupation numbers given. Defaulting to  0.1000E-12.
  No threshold value for occupation numbers given. Defaulting to  0.0000E+00.
  No accuracy for fermi level given. Defaulting to  0.1000E-19.
  Maximum # of iterations to find E_F not set. Defaulting to  200.
  Preferred method for the eigenvalue solver ('KS_method') not specified in 'control.in'.
  Calling BLACS routine to test compilation state
  Since ScaLAPACK support is enabled, defaulting to ELPA (via ELSI).
  Will not use alltoall communication since running on < 1024 CPUs.
  partition_type (choice of integration weights) for integrals was not specified.
  | Using a version of the partition function of Stratmann and coworkers ('stratmann_sparse').
  | At each grid point, the set of atoms used to build the partition table is smoothly restricted to
  | only those atoms whose free-atom density would be non-zero at that grid point.
  Partitioning for Hartree potential was not defined. Using partition_type for integrals.
  | Adjusted default value of keyword multip_moments_threshold to:       0.10000000E-11
  | This value may affect high angular momentum components of the Hartree potential in periodic systems.
  Spin handling was not defined in control.in. Defaulting to unpolarized case.
  Angular momentum expansion for Kerker preconditioner not set explicitly.
  | Using default value of   0
  No explicit requirement for turning off preconditioner.
  | By default, it will be turned off when the charge convergence reaches
  | sc_accuracy_rho  =   0.100000E-05
  No special mixing parameter while Kerker preconditioner is on.
  Using default: charge_mix_param =     0.0500.
  No q(lm)/r^(l+1) cutoff set for long-range Hartree potential.
  | Using default value of  0.100000E-09 .
  | Verify using the multipole_threshold keyword.
  Defaulting to new monopole extrapolation.
  Density update method: automatic selection selected.
  Using density matrix based charge density update.
  Using density matrix based charge density update.
  Using packed matrix style: index .
  Defaulting to use time-reversal symmetry for k-point grid.
  Charge integration errors on the 3D integration grid will be compensated
  by explicit normalization and distribution of residual charges.
  Use the "compensate_multipole_errors" flag to change this behaviour.
------------------------------------------------------------


------------------------------------------------------------
          Reading geometry description geometry.in.
------------------------------------------------------------
 * Warning! You did not set the 'relativistic' flag in input file 'control.in'.
 * Since you are not attempting to treat any elements beyond Ca(Z=20), FHI-aims
 * will default to 'relativistic none'.
 * You must ensure that this is really what you want!!
 * For example, DO NOT compute total-energy differences between results from
 * different settings of the 'relativistic' flag.
  Input structure read successfully.
  The structure contains        2 atoms,  and a total of         28.000 electrons.

  Input geometry:
  | Unit cell:
  |        0.00000000        2.70800000        2.70800000
  |        2.70800000        0.00000000        2.70800000
  |        2.70800000        2.70800000        0.00000000
  | Atomic structure:
  |       Atom                x [A]            y [A]            z [A]
  |    1: Species Si            0.00000000        0.00000000        0.00000000
  |    2: Species Si            1.35400000        1.35400000        1.35400000

  Lattice parameters for 3D lattice (in Angstroms) :     3.829690    3.829690    3.829690
  Angle(s) between unit vectors (in degrees)       :    60.000000   60.000000   60.000000

  | The smallest distance between any two atoms is         2.34519679 AA.
  | The first atom of this pair is atom number                      1 .
  | The second atom of this pair is atom number                     2 .
  | Wigner-Seitz cell of the first atom image           0     0     1 .
  | (The Wigner-Seitz cell of the second atom is 0 0 0  by definition.)

  Symmetry information by spglib:
  | Precision set to  0.1E-04
  | Number of Operations  : 48
  | Space group           : 227
  | International         : Fd-3m
  | Schoenflies           : Oh^7

  Quantities derived from the lattice vectors:
  | Reciprocal lattice vector 1: -1.160115  1.160115  1.160115
  | Reciprocal lattice vector 2:  1.160115 -1.160115  1.160115
  | Reciprocal lattice vector 3:  1.160115  1.160115 -1.160115
  | Unit cell volume                               :   0.397170E+02  A^3

  Range separation radius for Ewald summation (hartree_convergence_parameter):      3.87713314 bohr.

  Fractional coordinates:
                         L1                L2                L3
       atom_frac         0.00000000        0.00000000        0.00000000  Si
       atom_frac         0.25000000        0.25000000        0.25000000  Si

  Number of empty states per atom not set in control.in - providing a guess from actual geometry.
  | Total number of empty states used during s.c.f. cycle:        6
  If you use a very high smearing, use empty_states (per atom!) in control.in to increase this value.

  Structure-dependent array size parameters: 
  | Maximum number of distinct radial functions  :       13
  | Maximum number of basis functions            :       86
  | Number of Kohn-Sham states (occupied + empty):       20
------------------------------------------------------------

------------------------------------------------------------
          Preparing all fixed parts of the calculation.
------------------------------------------------------------
  Determining machine precision:
    2.225073858507201E-308
  Setting up grids for atomic and cluster calculations.

  Creating wave function, potential, and density for free atoms.

  Species: Si

  List of occupied orbitals and eigenvalues:
    n    l              occ      energy [Ha]    energy [eV]
    1    0           2.0000       -65.445149     -1780.8531
    2    0           2.0000        -5.090624      -138.5229
    3    0           2.0000        -0.387306       -10.5391
    2    1           6.0000        -3.501074       -95.2691
    3    1           2.0000        -0.141183        -3.8418

  Creating fixed part of basis set: Ionic, confined, hydrogenic.
 
  Si                   ion:

  List of free ionic orbitals and eigenvalues:
    n    l      energy [Ha]    energy [eV]
    1    0       -66.316121     -1804.5535
    2    0        -5.938141      -161.5850
    3    0        -1.071307       -29.1517
    2    1        -4.349847      -118.3654
    3    1        -0.776664       -21.1341


  List of ionic basis orbitals and eigenvalues:
    n    l      energy [Ha]    energy [eV]    outer radius [A]
    3    0        -1.071285       -29.1512       4.214062

 
  Si                   hydrogenic:
 
  List of hydrogenic basis orbitals: 
    n    l      effective z      eigenvalue [eV]  inner max. [A]     outer max. [A]     outer radius [A]   
    3    2         4.200000       -26.6624           1.139231           1.139231           4.534782
    2    1         1.400000        -6.4613           1.472672           1.472672           4.590560
    4    3         6.200000       -32.6778           1.368518           1.368518           4.534782
    3    2         9.000000      -122.4510           0.527387           0.527387           2.884791
    5    4         9.400000       -48.0840           1.402391           1.402391           4.534782
    4    1         4.000000       -11.6155           0.369966           2.815114           4.647024
    1    0         0.650000        -5.7067           0.809009           0.809009           4.590560
 

  Adding cutoff potential to free-atom effective potential.
  Creating atomic-like basis functions for current effective potential.

  Species Si                  :

  List of atomic basis orbitals and eigenvalues:
    n    l      energy [Ha]    energy [eV]    outer radius [A]
    1    0       -65.445149     -1780.8531       0.789468
    2    0        -5.090624      -138.5229       2.815114
    3    0        -0.387306       -10.5391       4.534782
    2    1        -3.501074       -95.2691       3.259919
    3    1        -0.141183        -3.8418       4.590560

  Assembling full basis from fixed parts.
  | Species Si :   atomic orbital   1 s accepted.
  | Species Si :   atomic orbital   2 s accepted.
  | Species Si :    ionic orbital   3 s accepted.
  | Species Si :   atomic orbital   3 s accepted.
  | Species Si :    hydro orbital   1 s accepted.
  | Species Si :   atomic orbital   2 p accepted.
  | Species Si :   atomic orbital   3 p accepted.
  | Species Si :    hydro orbital   2 p accepted.
  | Species Si :    hydro orbital   4 p accepted.
  | Species Si :    hydro orbital   3 d accepted.
  | Species Si :    hydro orbital   3 d accepted.
  | Species Si :    hydro orbital   4 f accepted.
  | Species Si :    hydro orbital   5 g accepted.
 
  Basis size parameters after reduction:
  | Total number of radial functions:       13
  | Total number of basis functions :       86
 
  Per-task memory consumption for arrays in subroutine allocate_ext:
  |           3.362228MB.
  Testing on-site integration grid accuracy.
  |  Species  Function  <phi|h_atom|phi> (log., in eV)  <phi|h_atom|phi> (rad., in eV)
           1        1              -1780.8531022213              -1780.8524015359
           1        2               -138.5229174676               -138.5229135715
           1        3                -10.1805774130                -10.1803744744
           1        4                  5.6277005097                  5.5466643676 ***
           1        5                 52.0732311052                 51.9740836503 ***
           1        6                -95.2690610510                -95.2690610363
           1        7                 -3.8516954565                 -3.8673652321
           1        8                  6.3945271431                  6.2184343262 ***
           1        9                 27.7075899070                 27.3308833799 ***
           1       10                 36.1543041599                 36.1543928526
           1       11                 21.2018857837                 21.1983769168
           1       12                 19.3586346181                 19.3540995878
           1       13                 35.8336010310                 35.8315238427
 * Note: Onsite integrals marked "***" above are less accurate than
 * onsite_accuracy_threshold =    0.03000 eV. Usually, this is harmless.
 * When in doubt, tighten the "radial" and/or "radial_multiplier" flags to check.

  Preparing densities etc. for the partition functions (integrals / Hartree potential).

  Preparations completed.
  max(cpu_time)          :      0.167 s.
  Wall clock time (cpu1) :      0.166 s.
------------------------------------------------------------

------------------------------------------------------------
          Begin self-consistency loop: Initialization.

          Date     :  20190817, Time     :  153449.767
------------------------------------------------------------

  Initializing index lists of integration centers etc. from given atomic structure:
  Mapping all atomic coordinates to central unit cell.

  Initializing the k-points
          Using symmetry for reducing the k-points
  | k-points reduced from:        4 to        4
  | Number of k-points                             :         4
  The eigenvectors in the calculations are REAL.
  | Number of basis functions in the Hamiltonian integrals :      3717
  | Number of basis functions in a single unit cell        :        86
  | Number of centers in hartree potential         :       732
  | Number of centers in hartree multipole         :       318
  | Number of centers in electron density summation:       198
  | Number of centers in basis integrals           :       228
  | Number of centers in integrals                 :       101
  | Number of centers in hamiltonian               :       198
  | Consuming          7 KiB for k_phase.
  | Number of super-cells (origin) [n_cells]                     :        2197
  | Number of super-cells (after PM_index) [n_cells]             :         112
  | Number of super-cells in hamiltonian [n_cells_in_hamiltonian]:         112
  | Size of matrix packed + index [n_hamiltonian_matrix_size] :      254409
  | Estimated reciprocal-space cutoff momentum G_max:         2.40812425 bohr^-1 .
  | Reciprocal lattice points for long-range Hartree potential:      58
  Using simple linear distribution as default method for k-point parallelism.
  * Using 8 tasks for Scalapack Eigenvalue solver.
  Detailed listing of tasks and assigned k-points:
   Task     0 k-point     1 on co1631
   Task     1 k-point     1 on co1631
   Task     2 k-point     2 on co1631
   Task     3 k-point     2 on co1631
   Task     4 k-point     3 on co1631
   Task     5 k-point     3 on co1631
   Task     6 k-point     4 on co1631
   Task     7 k-point     4 on co1631
  K-point:     1 Tasks:     2 split into      2 X      1 BLACS grid
  Calculating block size based on n_basis =           86  max_nprow =            2  max_npcol =            1
  ScaLAPACK block size set to:           16
  Allocating        0.031 MB for ovlp
  Allocating        0.031 MB for ham
  Allocating        0.031 MB for eigenvec
  Required Scalapack workspace - INTEGER:            1  REAL:             1
  Partitioning the integration grid into batches with parallel hashing+maxmin method.
  | Number of batches:      160
  | Maximal batch size:     118
  | Minimal batch size:      50
  | Average batch size:      70.050
  | Standard deviation of batch sizes:      18.795

  Integration load balanced across     8 MPI tasks.
  Work distribution over tasks is as follows:
  Task     0 has       1392 integration points.
  Task     1 has       1370 integration points.
  Task     2 has       1391 integration points.
  Task     3 has       1408 integration points.
  Task     4 has       1407 integration points.
  Task     5 has       1437 integration points.
  Task     6 has       1402 integration points.
  Task     7 has       1401 integration points.
  Initializing partition tables, free-atom densities, potentials, etc. across the integration grid (initialize_grid_storage).
  | initialize_grid_storage: Actual outermost partition radius vs. multipole_radius_free
  | (-- VB: in principle, multipole_radius_free should be larger, hence this output)
  | Species        1: Confinement radius =              4.999999999999999 AA, multipole_radius_free =              5.000694715736543 AA.
  | Species        1: outer_partition_radius set to              5.000694715736543 AA .
  | The sparse table of interatomic distances needs        255.65 kbyte instead of       415.87 kbyte of memory.
  | Net number of integration points:    11208
  | of which are non-zero points    :     9772
  | Numerical average free-atom electrostatic potential    :    -13.25646756 eV
  Renormalizing the initial density to the exact electron count on the 3D integration grid.
  | Initial density: Formal number of electrons (from input files) :      28.0000000000
  | Integrated number of electrons on 3D grid     :      28.0050696227
  | Charge integration error                      :       0.0050696227
  | Normalization factor for density and gradient :       0.9998189748
  Renormalizing the free-atom superposition density to the exact electron count on the 3D integration grid.
  | Formal number of electrons (from input files) :      28.0000000000
  | Integrated number of electrons on 3D grid     :      28.0050696227
  | Charge integration error                      :       0.0050696227
  | Normalization factor for density and gradient :       0.9998189748
  Obtaining max. number of non-zero basis functions in each batch (get_n_compute_maxes).
  | Maximal number of non-zero basis functions:     1143 in task     0
  | Maximal number of non-zero basis functions:     1140 in task     1
  | Maximal number of non-zero basis functions:     1121 in task     2
  | Maximal number of non-zero basis functions:     1188 in task     3
  | Maximal number of non-zero basis functions:     1080 in task     4
  | Maximal number of non-zero basis functions:     1127 in task     5
  | Maximal number of non-zero basis functions:     1149 in task     6
  | Maximal number of non-zero basis functions:     1145 in task     7
  Allocating        0.013 MB for KS_eigenvector
  Integrating Hamiltonian matrix: batch-based integration.
  Time summed over all CPUs for integration: real work        2.568 s, elapsed        2.637 s
  Integrating overlap matrix.
  Time summed over all CPUs for integration: real work        2.001 s, elapsed        2.056 s
  Decreasing sparse matrix size:
   Tolerance:  9.999999824516700E-014
   Hamiltonian matrix
  | Array has   219966 nonzero elements out of   254409 elements
  | Sparsity factor is 0.135
   Overlap matrix
  | Array has   213368 nonzero elements out of   254409 elements
  | Sparsity factor is 0.161
  New size of hamiltonian matrix:      221461
  Deallocating overlap matrix.

  Updating Kohn-Sham eigenvalues and eigenvectors using ELSI and the ELPA eigensolver.
  Singularity check in k-point 1 (analysis for other k-points may follow below):
  Overlap matrix is singular
  | Lowest and highest eigenvalues :  0.1230E-03,  0.9182E+01
  | Number of basis functions reduced to :        82
  Finished singularity check of overlap matrix
  | Time :     0.002 s
  Starting ELPA eigensolver
  Finished transformation to standard eigenproblem
  | Time :     0.000 s
  Finished solving standard eigenproblem
  | Time :     0.001 s
  Finished back-transformation of eigenvectors
  | Time :     0.000 s

  The overlap matrix is singular on 4 out of 4 k-points
  k-points on which the lowest eigenvalue of the overlap matrix is below the prescribed threshold  0.1000E-02 include:

  k-point    Lowest eigenvalue    Highest eigenvalue    Reduced number of basis functions
        1           0.1230E-03            0.9182E+01                                   82
        2           0.1158E-03            0.7334E+01                                   84
        3           0.1158E-03            0.7334E+01                                   84
        4           0.2113E-03            0.4445E+01                                   84

  Obtaining occupation numbers and chemical potential using ELSI.
  | Chemical potential (Fermi level):    -5.50984605 eV
  Writing Kohn-Sham eigenvalues.
  K-point:       1 at    0.000000    0.000000    0.000000 (in units of recip. lattice)

  State    Occupation    Eigenvalue [Ha]    Eigenvalue [eV]
      1       2.00000         -65.467119        -1781.45094
      2       2.00000         -65.467113        -1781.45078
      3       2.00000          -5.117375         -139.25086
      4       2.00000          -5.116986         -139.24028
      5       2.00000          -3.527778          -95.99572
      6       2.00000          -3.527778          -95.99572
      7       2.00000          -3.527778          -95.99572
      8       2.00000          -3.527164          -95.97903
      9       2.00000          -3.527164          -95.97903
     10       2.00000          -3.527164          -95.97903
     11       2.00000          -0.663772          -18.06216
     12       2.00000          -0.225867           -6.14614
     13       2.00000          -0.225867           -6.14614
     14       2.00000          -0.225867           -6.14614
     15       0.00000          -0.125483           -3.41457
     16       0.00000          -0.125483           -3.41457
     17       0.00000          -0.125483           -3.41457
     18       0.00000          -0.093652           -2.54840
     19       0.00000           0.069711            1.89693
     20       0.00000           0.069711            1.89693

  What follows are estimated values for band gap, HOMO, LUMO, etc.
  | They are estimated on a discrete k-point grid and not necessarily exact.
  | For converged numbers, create a DOS and/or band structure plot on a denser k-grid.

  Highest occupied state (VBM) at     -6.14614336 eV (relative to internal zero)
  | Occupation number:      2.00000000
  | K-point:       1 at    0.000000    0.000000    0.000000 (in units of recip. lattice)

  Lowest unoccupied state (CBM) at    -5.18239242 eV (relative to internal zero)
  | Occupation number:      0.00000000
  | K-point:       4 at    0.500000    0.500000    0.000000 (in units of recip. lattice)

  ESTIMATED overall HOMO-LUMO gap:      0.96375094 eV between HOMO at k-point 1 and LUMO at k-point 4
  | This appears to be an indirect band gap.
  | Smallest direct gap :      2.73157276 eV for k_point 1 at    0.500000    0.500000    0.000000 (in units of recip. lattice)
  The gap value is above 0.2 eV. Unless you are using a very sparse k-point grid,
  this system is most likely an insulator or a semiconductor.
  Calculating total energy contributions from superposition of free atom densities.

  Total energy components:
  | Sum of eigenvalues            :        -327.77870337 Ha       -8919.31232838 eV
  | XC energy correction          :         -41.59204513 Ha       -1131.77713217 eV
  | XC potential correction       :          53.71856971 Ha        1461.75665512 eV
  | Free-atom electrostatic energy:        -262.98289714 Ha       -7156.12873093 eV
  | Hartree energy correction     :           0.00000000 Ha           0.00000000 eV
  | Entropy correction            :           0.00000000 Ha           0.00000000 eV
  | ---------------------------
  | Total energy                  :        -578.63507593 Ha      -15745.46153636 eV
  | Total energy, T -> 0          :        -578.63507593 Ha      -15745.46153636 eV  <-- do not rely on this value for anything but (periodic) metals
  | Electronic free energy        :        -578.63507593 Ha      -15745.46153636 eV

  Derived energy quantities:
  | Kinetic energy                :         578.25874491 Ha       15735.22104826 eV
  | Electrostatic energy          :       -1115.30177571 Ha      -30348.90545245 eV
  | Energy correction for multipole
  | error in Hartree potential    :           0.00000000 Ha           0.00000000 eV
  | Sum of eigenvalues per atom                           :       -4459.65616419 eV
  | Total energy (T->0) per atom                          :       -7872.73076818 eV  <-- do not rely on this value for anything but (periodic) metals
  | Electronic free energy per atom                       :       -7872.73076818 eV
  Initialize hartree_potential_storage
  Max. number of atoms included in rho_multipole:            2

  End scf initialization - timings             :  max(cpu_time)    wall_clock(cpu1)
  | Time for scf. initialization               :        0.761 s           0.762 s
  | Boundary condition initialization          :        0.059 s           0.059 s
  | Integration                                :        0.607 s           0.607 s
  | Solution of K.-S. eqns.                    :        0.005 s           0.004 s
  | Grid partitioning                          :        0.029 s           0.029 s
  | Preloading free-atom quantities on grid    :        0.002 s           0.002 s
  | Free-atom superposition energy             :        0.007 s           0.006 s
  | Total energy evaluation                    :        0.000 s           0.001 s

  Partial memory accounting:
  | Current value for overall tracked memory usage:
  |   Minimum:        2.623 MB (on task 1)
  |   Maximum:        2.642 MB (on task 0)
  |   Average:        2.633 MB
  | Peak value for overall tracked memory usage:
  |   Minimum:       16.801 MB (on task 4 after allocating wave)
  |   Maximum:       18.944 MB (on task 3 after allocating wave)
  |   Average:       17.909 MB
  | Largest tracked array allocation so far:
  |   Minimum:        8.899 MB (hamiltonian_shell on task 4)
  |   Maximum:       10.768 MB (hamiltonian_shell on task 3)
  |   Average:        9.863 MB
  Note:  These values currently only include a subset of arrays which are explicitly tracked.
  The "true" memory usage will be greater.
------------------------------------------------------------

------------------------------------------------------------
          Begin self-consistency iteration #    1

  Date     :  20190817, Time     :  153450.529
------------------------------------------------------------
  Evaluating new KS density using the density matrix
  Evaluating density matrix
  Time summed over all CPUs for getting density from density matrix: real work        3.875 s, elapsed        3.993 s
  Integration grid: deviation in total charge (<rho> - N_e) =   1.421085E-14
  Pulay mixing of updated and previous charge densities.
  Renormalizing the density to the exact electron count on the 3D integration grid.
  | Formal number of electrons (from input files) :      28.0000000000
  | Integrated number of electrons on 3D grid     :      27.9997705989
  | Charge integration error                      :      -0.0002294011
  | Normalization factor for density and gradient :       1.0000081930

  Evaluating partitioned Hartree potential by multipole expansion.
  | Original multipole sum: apparent total charge =  -0.178918E-13
  | Sum of charges compensated after spline to logarithmic grids =  -0.566408E-05
  | Analytical far-field extrapolation by fixed multipoles:
  | Hartree multipole sum: apparent total charge =   0.000000E+00
  Summing up the Hartree potential.
  Time summed over all CPUs for potential: real work        0.564 s, elapsed        0.579 s
  | RMS charge density error from multipole expansion :   0.773155E-03
  | Average real-space part of the electrostatic potential :      0.02913693 eV

  Integrating Hamiltonian matrix: batch-based integration.
  Time summed over all CPUs for integration: real work        2.546 s, elapsed        2.622 s

  Updating Kohn-Sham eigenvalues and eigenvectors using ELSI and the ELPA eigensolver.
  Starting ELPA eigensolver
  Finished transformation to standard eigenproblem
  | Time :     0.000 s
  Finished solving standard eigenproblem
  | Time :     0.001 s
  Finished back-transformation of eigenvectors
  | Time :     0.000 s

  Obtaining occupation numbers and chemical potential using ELSI.
  | Chemical potential (Fermi level):    -5.47195291 eV
  Writing Kohn-Sham eigenvalues.
  K-point:       1 at    0.000000    0.000000    0.000000 (in units of recip. lattice)

  State    Occupation    Eigenvalue [Ha]    Eigenvalue [eV]
      1       2.00000         -65.462775        -1781.33273
      2       2.00000         -65.462769        -1781.33256
      3       2.00000          -5.114029         -139.15980
      4       2.00000          -5.113640         -139.14923
      5       2.00000          -3.524422          -95.90440
      6       2.00000          -3.524382          -95.90332
      7       2.00000          -3.524238          -95.89938
      8       2.00000          -3.523808          -95.88770
      9       2.00000          -3.523769          -95.88662
     10       2.00000          -3.523623          -95.88267
     11       2.00000          -0.662463          -18.02653
     12       2.00000          -0.224186           -6.10041
     13       2.00000          -0.224119           -6.09859
     14       2.00000          -0.223980           -6.09480
     15       0.00000          -0.124517           -3.38829
     16       0.00000          -0.124477           -3.38718
     17       0.00000          -0.124382           -3.38462
     18       0.00000          -0.091647           -2.49385
     19       0.00000           0.070678            1.92325
     20       0.00000           0.070715            1.92424

  What follows are estimated values for band gap, HOMO, LUMO, etc.
  | They are estimated on a discrete k-point grid and not necessarily exact.
  | For converged numbers, create a DOS and/or band structure plot on a denser k-grid.

  Highest occupied state (VBM) at     -6.09479611 eV (relative to internal zero)
  | Occupation number:      2.00000000
  | K-point:       1 at    0.000000    0.000000    0.000000 (in units of recip. lattice)

  Lowest unoccupied state (CBM) at    -5.17130237 eV (relative to internal zero)
  | Occupation number:      0.00000000
  | K-point:       4 at    0.500000    0.500000    0.000000 (in units of recip. lattice)

  ESTIMATED overall HOMO-LUMO gap:      0.92349374 eV between HOMO at k-point 1 and LUMO at k-point 4
  | This appears to be an indirect band gap.
  | Smallest direct gap :      2.70650302 eV for k_point 1 at    0.500000    0.500000    0.000000 (in units of recip. lattice)
  The gap value is above 0.2 eV. Unless you are using a very sparse k-point grid,
  this system is most likely an insulator or a semiconductor.

  Total energy components:
  | Sum of eigenvalues            :        -327.69467768 Ha       -8917.02587302 eV
  | XC energy correction          :         -41.59754207 Ha       -1131.92671142 eV
  | XC potential correction       :          53.72571452 Ha        1461.95107523 eV
  | Free-atom electrostatic energy:        -262.98289714 Ha       -7156.12873093 eV
  | Hartree energy correction     :          -0.08382397 Ha          -2.28096628 eV
  | Entropy correction            :           0.00000000 Ha           0.00000000 eV
  | ---------------------------
  | Total energy                  :        -578.63322634 Ha      -15745.41120643 eV
  | Total energy, T -> 0          :        -578.63322634 Ha      -15745.41120643 eV  <-- do not rely on this value for anything but (periodic) metals
  | Electronic free energy        :        -578.63322634 Ha      -15745.41120643 eV

  Derived energy quantities:
  | Kinetic energy                :         578.28643338 Ha       15735.97448979 eV
  | Electrostatic energy          :       -1115.32211765 Ha      -30349.45898479 eV
  | Energy correction for multipole
  | error in Hartree potential    :           0.00103053 Ha           0.02804215 eV
  | Sum of eigenvalues per atom                           :       -4458.51293651 eV
  | Total energy (T->0) per atom                          :       -7872.70560321 eV  <-- do not rely on this value for anything but (periodic) metals
  | Electronic free energy per atom                       :       -7872.70560321 eV

  Self-consistency convergence accuracy:
  | Change of charge density      :  0.1823E+00
  | Change of sum of eigenvalues  :  0.2286E+01 eV
  | Change of total energy        :  0.5033E-01 eV

  End self-consistency iteration #     1       :  max(cpu_time)    wall_clock(cpu1)
  | Time for this iteration                    :        0.956 s           0.957 s
  | Charge density update                      :        0.503 s           0.504 s
  | Density mixing & preconditioning           :        0.040 s           0.039 s
  | Hartree multipole update                   :        0.001 s           0.001 s
  | Hartree multipole summation                :        0.074 s           0.075 s
  | Integration                                :        0.335 s           0.335 s
  | Solution of K.-S. eqns.                    :        0.002 s           0.002 s
  | Total energy evaluation                    :        0.000 s           0.001 s

  Partial memory accounting:
  | Current value for overall tracked memory usage:
  |   Minimum:        2.623 MB (on task 1)
  |   Maximum:        2.642 MB (on task 0)
  |   Average:        2.633 MB
  | Peak value for overall tracked memory usage:
  |   Minimum:       17.375 MB (on task 4 after allocating gradient_basis_wave)
  |   Maximum:       19.808 MB (on task 3 after allocating gradient_basis_wave)
  |   Average:       18.635 MB
  | Largest tracked array allocation so far:
  |   Minimum:        8.899 MB (hamiltonian_shell on task 4)
  |   Maximum:       10.768 MB (hamiltonian_shell on task 3)
  |   Average:        9.863 MB
  Note:  These values currently only include a subset of arrays which are explicitly tracked.
  The "true" memory usage will be greater.
------------------------------------------------------------

------------------------------------------------------------
          Begin self-consistency iteration #    2

  Date     :  20190817, Time     :  153451.486
------------------------------------------------------------
  Evaluating new KS density using the density matrix
  Evaluating density matrix
  Time summed over all CPUs for getting density from density matrix: real work        4.043 s, elapsed        4.152 s
  Integration grid: deviation in total charge (<rho> - N_e) =  -3.552714E-15
  Pulay mixing of updated and previous charge densities.
  Renormalizing the density to the exact electron count on the 3D integration grid.
  | Formal number of electrons (from input files) :      28.0000000000
  | Integrated number of electrons on 3D grid     :      27.9958758970
  | Charge integration error                      :      -0.0041241030
  | Normalization factor for density and gradient :       1.0001473111

  Evaluating partitioned Hartree potential by multipole expansion.
  | Original multipole sum: apparent total charge =  -0.202296E-13
  | Sum of charges compensated after spline to logarithmic grids =  -0.104894E-03
  | Analytical far-field extrapolation by fixed multipoles:
  | Hartree multipole sum: apparent total charge =   0.000000E+00
  Summing up the Hartree potential.
  Time summed over all CPUs for potential: real work        0.670 s, elapsed        0.683 s
  | RMS charge density error from multipole expansion :   0.143191E-01
  | Average real-space part of the electrostatic potential :      0.53447445 eV

  Integrating Hamiltonian matrix: batch-based integration.
  Time summed over all CPUs for integration: real work        2.559 s, elapsed        2.630 s

  Updating Kohn-Sham eigenvalues and eigenvectors using ELSI and the ELPA eigensolver.
  Starting ELPA eigensolver
  Finished transformation to standard eigenproblem
  | Time :     0.001 s
  Finished solving standard eigenproblem
  | Time :     0.001 s
  Finished back-transformation of eigenvectors
  | Time :     0.000 s

  Obtaining occupation numbers and chemical potential using ELSI.
  | Chemical potential (Fermi level):    -4.89210960 eV
  What follows are estimated values for band gap, HOMO, LUMO, etc.
  | They are estimated on a discrete k-point grid and not necessarily exact.
  | For converged numbers, create a DOS and/or band structure plot on a denser k-grid.

  Highest occupied state (VBM) at     -5.13909196 eV (relative to internal zero)
  | Occupation number:      2.00000000
  | K-point:       1 at    0.000000    0.000000    0.000000 (in units of recip. lattice)

  Lowest unoccupied state (CBM) at    -4.79643317 eV (relative to internal zero)
  | Occupation number:      0.00000000
  | K-point:       4 at    0.500000    0.500000    0.000000 (in units of recip. lattice)

  ESTIMATED overall HOMO-LUMO gap:      0.34265880 eV between HOMO at k-point 1 and LUMO at k-point 4
  | This appears to be an indirect band gap.
  | Smallest direct gap :      2.28718933 eV for k_point 1 at    0.500000    0.500000    0.000000 (in units of recip. lattice)
  The gap value is above 0.2 eV. Unless you are using a very sparse k-point grid,
  this system is most likely an insulator or a semiconductor.

  Checking to see if s.c.f. parameters should be adjusted.
  The system likely has a gap. Increased the default Pulay mixing parameter (charge_mix_param). Value:   0.200000 .
  Kept the default occupation width. Value:   0.010000 eV.

  Total energy components:
  | Sum of eigenvalues            :        -326.22941160 Ha       -8877.15395412 eV
  | XC energy correction          :         -41.72570170 Ha       -1135.41411251 eV
  | XC potential correction       :          53.88922856 Ha        1466.40051885 eV
  | Free-atom electrostatic energy:        -262.98289714 Ha       -7156.12873093 eV
  | Hartree energy correction     :          -1.57013028 Ha         -42.72541878 eV
  | Entropy correction            :          -0.00000000 Ha          -0.00000000 eV
  | ---------------------------
  | Total energy                  :        -578.61891215 Ha      -15745.02169750 eV
  | Total energy, T -> 0          :        -578.61891215 Ha      -15745.02169750 eV  <-- do not rely on this value for anything but (periodic) metals
  | Electronic free energy        :        -578.61891215 Ha      -15745.02169750 eV

  Derived energy quantities:
  | Kinetic energy                :         578.70813035 Ha       15747.44944817 eV
  | Electrostatic energy          :       -1115.60134080 Ha      -30357.05703316 eV
  | Energy correction for multipole
  | error in Hartree potential    :           0.01891057 Ha           0.51458276 eV
  | Sum of eigenvalues per atom                           :       -4438.57697706 eV
  | Total energy (T->0) per atom                          :       -7872.51084875 eV  <-- do not rely on this value for anything but (periodic) metals
  | Electronic free energy per atom                       :       -7872.51084875 eV

  Self-consistency convergence accuracy:
  | Change of charge density      :  0.1726E+00
  | Change of sum of eigenvalues  :  0.3987E+02 eV
  | Change of total energy        :  0.3895E+00 eV

  End self-consistency iteration #     2       :  max(cpu_time)    wall_clock(cpu1)
  | Time for this iteration                    :        0.986 s           0.986 s
  | Charge density update                      :        0.523 s           0.523 s
  | Density mixing & preconditioning           :        0.037 s           0.037 s
  | Hartree multipole update                   :        0.001 s           0.001 s
  | Hartree multipole summation                :        0.087 s           0.087 s
  | Integration                                :        0.335 s           0.336 s
  | Solution of K.-S. eqns.                    :        0.002 s           0.002 s
  | Total energy evaluation                    :        0.000 s           0.000 s

  Partial memory accounting:
  | Current value for overall tracked memory usage:
  |   Minimum:        2.623 MB (on task 1)
  |   Maximum:        2.643 MB (on task 0)
  |   Average:        2.633 MB
  | Peak value for overall tracked memory usage:
  |   Minimum:       17.375 MB (on task 4 after allocating gradient_basis_wave)
  |   Maximum:       19.808 MB (on task 3 after allocating gradient_basis_wave)
  |   Average:       18.635 MB
  | Largest tracked array allocation so far:
  |   Minimum:        8.899 MB (hamiltonian_shell on task 4)
  |   Maximum:       10.768 MB (hamiltonian_shell on task 3)
  |   Average:        9.863 MB
  Note:  These values currently only include a subset of arrays which are explicitly tracked.
  The "true" memory usage will be greater.
------------------------------------------------------------

------------------------------------------------------------
          Begin self-consistency iteration #    3

  Date     :  20190817, Time     :  153452.473
------------------------------------------------------------
  Evaluating new KS density using the density matrix
  Evaluating density matrix
  Time summed over all CPUs for getting density from density matrix: real work        3.865 s, elapsed        3.969 s
  Integration grid: deviation in total charge (<rho> - N_e) =   1.421085E-14
  Pulay mixing of updated and previous charge densities.
  Renormalizing the density to the exact electron count on the 3D integration grid.
  | Formal number of electrons (from input files) :      28.0000000000
  | Integrated number of electrons on 3D grid     :      27.9989912693
  | Charge integration error                      :      -0.0010087307
  | Normalization factor for density and gradient :       1.0000360274

  Evaluating partitioned Hartree potential by multipole expansion.
  | Original multipole sum: apparent total charge =  -0.284288E-13
  | Sum of charges compensated after spline to logarithmic grids =  -0.111346E-03
  | Analytical far-field extrapolation by fixed multipoles:
  | Hartree multipole sum: apparent total charge =   0.000000E+00
  Summing up the Hartree potential.
  Time summed over all CPUs for potential: real work        0.668 s, elapsed        0.679 s
  | RMS charge density error from multipole expansion :   0.151440E-01
  | Average real-space part of the electrostatic potential :      0.51965368 eV

  Integrating Hamiltonian matrix: batch-based integration.
  Time summed over all CPUs for integration: real work        2.562 s, elapsed        2.636 s

  Updating Kohn-Sham eigenvalues and eigenvectors using ELSI and the ELPA eigensolver.
  Starting ELPA eigensolver
  Finished transformation to standard eigenproblem
  | Time :     0.000 s
  Finished solving standard eigenproblem
  | Time :     0.001 s
  Finished back-transformation of eigenvectors
  | Time :     0.000 s

  Obtaining occupation numbers and chemical potential using ELSI.
  | Chemical potential (Fermi level):    -4.91490360 eV
  What follows are estimated values for band gap, HOMO, LUMO, etc.
  | They are estimated on a discrete k-point grid and not necessarily exact.
  | For converged numbers, create a DOS and/or band structure plot on a denser k-grid.

  Highest occupied state (VBM) at     -5.17180604 eV (relative to internal zero)
  | Occupation number:      2.00000000
  | K-point:       1 at    0.000000    0.000000    0.000000 (in units of recip. lattice)

  Lowest unoccupied state (CBM) at    -4.79588651 eV (relative to internal zero)
  | Occupation number:      0.00000000
  | K-point:       4 at    0.500000    0.500000    0.000000 (in units of recip. lattice)

  ESTIMATED overall HOMO-LUMO gap:      0.37591953 eV between HOMO at k-point 1 and LUMO at k-point 4
  | This appears to be an indirect band gap.
  | Smallest direct gap :      2.29196239 eV for k_point 1 at    0.500000    0.500000    0.000000 (in units of recip. lattice)
  The gap value is above 0.2 eV. Unless you are using a very sparse k-point grid,
  this system is most likely an insulator or a semiconductor.

  Total energy components:
  | Sum of eigenvalues            :        -326.39550404 Ha       -8881.67355939 eV
  | XC energy correction          :         -41.70899195 Ha       -1134.95941697 eV
  | XC potential correction       :          53.86766057 Ha        1465.81362392 eV
  | Free-atom electrostatic energy:        -262.98289714 Ha       -7156.12873093 eV
  | Hartree energy correction     :          -1.39908556 Ha         -38.07105502 eV
  | Entropy correction            :          -0.00000000 Ha          -0.00000000 eV
  | ---------------------------
  | Total energy                  :        -578.61881810 Ha      -15745.01913838 eV
  | Total energy, T -> 0          :        -578.61881810 Ha      -15745.01913838 eV  <-- do not rely on this value for anything but (periodic) metals
  | Electronic free energy        :        -578.61881810 Ha      -15745.01913838 eV

  Derived energy quantities:
  | Kinetic energy                :         578.47439857 Ha       15741.08928295 eV
  | Electrostatic energy          :       -1115.38422473 Ha      -30351.14900436 eV
  | Energy correction for multipole
  | error in Hartree potential    :           0.02001802 Ha           0.54471793 eV
  | Sum of eigenvalues per atom                           :       -4440.83677970 eV
  | Total energy (T->0) per atom                          :       -7872.50956919 eV  <-- do not rely on this value for anything but (periodic) metals
  | Electronic free energy per atom                       :       -7872.50956919 eV

  Self-consistency convergence accuracy:
  | Change of charge density      :  0.2700E-01
  | Change of sum of eigenvalues  : -0.4520E+01 eV
  | Change of total energy        :  0.2559E-02 eV

  End self-consistency iteration #     3       :  max(cpu_time)    wall_clock(cpu1)
  | Time for this iteration                    :        0.963 s           0.963 s
  | Charge density update                      :        0.499 s           0.499 s
  | Density mixing & preconditioning           :        0.037 s           0.037 s
  | Hartree multipole update                   :        0.001 s           0.001 s
  | Hartree multipole summation                :        0.087 s           0.087 s
  | Integration                                :        0.336 s           0.336 s
  | Solution of K.-S. eqns.                    :        0.002 s           0.002 s
  | Total energy evaluation                    :        0.000 s           0.001 s

  Partial memory accounting:
  | Current value for overall tracked memory usage:
  |   Minimum:        2.623 MB (on task 1)
  |   Maximum:        2.643 MB (on task 0)
  |   Average:        2.633 MB
  | Peak value for overall tracked memory usage:
  |   Minimum:       17.376 MB (on task 4 after allocating gradient_basis_wave)
  |   Maximum:       19.808 MB (on task 3 after allocating gradient_basis_wave)
  |   Average:       18.635 MB
  | Largest tracked array allocation so far:
  |   Minimum:        8.899 MB (hamiltonian_shell on task 4)
  |   Maximum:       10.768 MB (hamiltonian_shell on task 3)
  |   Average:        9.863 MB
  Note:  These values currently only include a subset of arrays which are explicitly tracked.
  The "true" memory usage will be greater.
------------------------------------------------------------

------------------------------------------------------------
          Begin self-consistency iteration #    4

  Date     :  20190817, Time     :  153453.436
------------------------------------------------------------
  Evaluating new KS density using the density matrix
  Evaluating density matrix
  Time summed over all CPUs for getting density from density matrix: real work        3.845 s, elapsed        4.333 s
  Integration grid: deviation in total charge (<rho> - N_e) =   0.000000E+00
  Pulay mixing of updated and previous charge densities.
  Renormalizing the density to the exact electron count on the 3D integration grid.
  | Formal number of electrons (from input files) :      28.0000000000
  | Integrated number of electrons on 3D grid     :      27.9986944188
  | Charge integration error                      :      -0.0013055812
  | Normalization factor for density and gradient :       1.0000466301

  Evaluating partitioned Hartree potential by multipole expansion.
  | Original multipole sum: apparent total charge =  -0.120295E-13
  | Sum of charges compensated after spline to logarithmic grids =  -0.125119E-03
  | Analytical far-field extrapolation by fixed multipoles:
  | Hartree multipole sum: apparent total charge =   0.000000E+00
  Summing up the Hartree potential.
  Time summed over all CPUs for potential: real work        0.665 s, elapsed        0.678 s
  | RMS charge density error from multipole expansion :   0.169815E-01
  | Average real-space part of the electrostatic potential :      0.53821281 eV

  Integrating Hamiltonian matrix: batch-based integration.
  Time summed over all CPUs for integration: real work        2.491 s, elapsed        2.562 s

  Updating Kohn-Sham eigenvalues and eigenvectors using ELSI and the ELPA eigensolver.
  Starting ELPA eigensolver
  Finished transformation to standard eigenproblem
  | Time :     0.000 s
  Finished solving standard eigenproblem
  | Time :     0.001 s
  Finished back-transformation of eigenvectors
  | Time :     0.000 s

  Obtaining occupation numbers and chemical potential using ELSI.
  | Chemical potential (Fermi level):    -4.87416467 eV
  What follows are estimated values for band gap, HOMO, LUMO, etc.
  | They are estimated on a discrete k-point grid and not necessarily exact.
  | For converged numbers, create a DOS and/or band structure plot on a denser k-grid.

  Highest occupied state (VBM) at     -5.14042532 eV (relative to internal zero)
  | Occupation number:      2.00000000
  | K-point:       1 at    0.000000    0.000000    0.000000 (in units of recip. lattice)

  Lowest unoccupied state (CBM) at    -4.74488001 eV (relative to internal zero)
  | Occupation number:      0.00000000
  | K-point:       4 at    0.500000    0.500000    0.000000 (in units of recip. lattice)

  ESTIMATED overall HOMO-LUMO gap:      0.39554531 eV between HOMO at k-point 1 and LUMO at k-point 4
  | This appears to be an indirect band gap.
  | Smallest direct gap :      2.27753361 eV for k_point 1 at    0.500000    0.500000    0.000000 (in units of recip. lattice)
  The gap value is above 0.2 eV. Unless you are using a very sparse k-point grid,
  this system is most likely an insulator or a semiconductor.

  Total energy components:
  | Sum of eigenvalues            :        -326.46934611 Ha       -8883.68290455 eV
  | XC energy correction          :         -41.70336094 Ha       -1134.80618941 eV
  | XC potential correction       :          53.85997446 Ha        1465.60447412 eV
  | Free-atom electrostatic energy:        -262.98289714 Ha       -7156.12873093 eV
  | Hartree energy correction     :          -1.32307350 Ha         -36.00266165 eV
  | Entropy correction            :          -0.00000000 Ha          -0.00000000 eV
  | ---------------------------
  | Total energy                  :        -578.61870323 Ha      -15745.01601242 eV
  | Total energy, T -> 0          :        -578.61870323 Ha      -15745.01601242 eV  <-- do not rely on this value for anything but (periodic) metals
  | Electronic free energy        :        -578.61870323 Ha      -15745.01601242 eV

  Derived energy quantities:
  | Kinetic energy                :         578.25845641 Ha       15735.21319786 eV
  | Electrostatic energy          :       -1115.17379870 Ha      -30345.42302087 eV
  | Energy correction for multipole
  | error in Hartree potential    :           0.02246666 Ha           0.61134893 eV
  | Sum of eigenvalues per atom                           :       -4441.84145227 eV
  | Total energy (T->0) per atom                          :       -7872.50800621 eV  <-- do not rely on this value for anything but (periodic) metals
  | Electronic free energy per atom                       :       -7872.50800621 eV

  Self-consistency convergence accuracy:
  | Change of charge density      :  0.1707E-01
  | Change of sum of eigenvalues  : -0.2009E+01 eV
  | Change of total energy        :  0.3126E-02 eV

  End self-consistency iteration #     4       :  max(cpu_time)    wall_clock(cpu1)
  | Time for this iteration                    :        0.999 s           0.999 s
  | Charge density update                      :        0.545 s           0.545 s
  | Density mixing & preconditioning           :        0.038 s           0.038 s
  | Hartree multipole update                   :        0.001 s           0.001 s
  | Hartree multipole summation                :        0.087 s           0.086 s
  | Integration                                :        0.327 s           0.327 s
  | Solution of K.-S. eqns.                    :        0.002 s           0.002 s
  | Total energy evaluation                    :        0.000 s           0.000 s

  Partial memory accounting:
  | Current value for overall tracked memory usage:
  |   Minimum:        2.623 MB (on task 1)
  |   Maximum:        2.643 MB (on task 0)
  |   Average:        2.633 MB
  | Peak value for overall tracked memory usage:
  |   Minimum:       17.376 MB (on task 4 after allocating gradient_basis_wave)
  |   Maximum:       19.808 MB (on task 3 after allocating gradient_basis_wave)
  |   Average:       18.635 MB
  | Largest tracked array allocation so far:
  |   Minimum:        8.899 MB (hamiltonian_shell on task 4)
  |   Maximum:       10.768 MB (hamiltonian_shell on task 3)
  |   Average:        9.863 MB
  Note:  These values currently only include a subset of arrays which are explicitly tracked.
  The "true" memory usage will be greater.
------------------------------------------------------------

------------------------------------------------------------
          Begin self-consistency iteration #    5

  Date     :  20190817, Time     :  153454.436
------------------------------------------------------------
  Evaluating new KS density using the density matrix
  Evaluating density matrix
  Time summed over all CPUs for getting density from density matrix: real work        3.754 s, elapsed        3.861 s
  Integration grid: deviation in total charge (<rho> - N_e) =   7.105427E-15
  Pulay mixing of updated and previous charge densities.
  Renormalizing the density to the exact electron count on the 3D integration grid.
  | Formal number of electrons (from input files) :      28.0000000000
  | Integrated number of electrons on 3D grid     :      28.0000480900
  | Charge integration error                      :       0.0000480900
  | Normalization factor for density and gradient :       0.9999982825

  Evaluating partitioned Hartree potential by multipole expansion.
  | Original multipole sum: apparent total charge =  -0.264116E-13
  | Sum of charges compensated after spline to logarithmic grids =  -0.126942E-03
  | Analytical far-field extrapolation by fixed multipoles:
  | Hartree multipole sum: apparent total charge =   0.000000E+00
  Summing up the Hartree potential.
  Time summed over all CPUs for potential: real work        0.677 s, elapsed        0.689 s
  | RMS charge density error from multipole expansion :   0.172516E-01
  | Average real-space part of the electrostatic potential :      0.53189421 eV

  Integrating Hamiltonian matrix: batch-based integration.
  Time summed over all CPUs for integration: real work        2.519 s, elapsed        2.592 s

  Updating Kohn-Sham eigenvalues and eigenvectors using ELSI and the ELPA eigensolver.
  Starting ELPA eigensolver
  Finished transformation to standard eigenproblem
  | Time :     0.000 s
  Finished solving standard eigenproblem
  | Time :     0.001 s
  Finished back-transformation of eigenvectors
  | Time :     0.000 s

  Obtaining occupation numbers and chemical potential using ELSI.
  | Chemical potential (Fermi level):    -5.10202718 eV
  What follows are estimated values for band gap, HOMO, LUMO, etc.
  | They are estimated on a discrete k-point grid and not necessarily exact.
  | For converged numbers, create a DOS and/or band structure plot on a denser k-grid.

  Highest occupied state (VBM) at     -5.16339915 eV (relative to internal zero)
  | Occupation number:      2.00000000
  | K-point:       1 at    0.000000    0.000000    0.000000 (in units of recip. lattice)

  Lowest unoccupied state (CBM) at    -4.73122232 eV (relative to internal zero)
  | Occupation number:      0.00000000
  | K-point:       4 at    0.500000    0.500000    0.000000 (in units of recip. lattice)

  ESTIMATED overall HOMO-LUMO gap:      0.43217684 eV between HOMO at k-point 1 and LUMO at k-point 4
  | This appears to be an indirect band gap.
  | Smallest direct gap :      2.30224798 eV for k_point 1 at    0.500000    0.500000    0.000000 (in units of recip. lattice)
  The gap value is above 0.2 eV. Unless you are using a very sparse k-point grid,
  this system is most likely an insulator or a semiconductor.

  Total energy components:
  | Sum of eigenvalues            :        -326.51097760 Ha       -8884.81575491 eV
  | XC energy correction          :         -41.70281827 Ha       -1134.79142272 eV
  | XC potential correction       :          53.85903213 Ha        1465.57883211 eV
  | Free-atom electrostatic energy:        -262.98289714 Ha       -7156.12873093 eV
  | Hartree energy correction     :          -1.28095168 Ha         -34.85646869 eV
  | Entropy correction            :          -0.00000000 Ha          -0.00000000 eV
  | ---------------------------
  | Total energy                  :        -578.61861256 Ha      -15745.01354514 eV
  | Total energy, T -> 0          :        -578.61861256 Ha      -15745.01354514 eV  <-- do not rely on this value for anything but (periodic) metals
  | Electronic free energy        :        -578.61861256 Ha      -15745.01354514 eV

  Derived energy quantities:
  | Kinetic energy                :         578.22859516 Ha       15734.40063181 eV
  | Electrostatic energy          :       -1115.14438945 Ha      -30344.62275423 eV
  | Energy correction for multipole
  | error in Hartree potential    :           0.02288248 Ha           0.62266398 eV
  | Sum of eigenvalues per atom                           :       -4442.40787746 eV
  | Total energy (T->0) per atom                          :       -7872.50677257 eV  <-- do not rely on this value for anything but (periodic) metals
  | Electronic free energy per atom                       :       -7872.50677257 eV

  Self-consistency convergence accuracy:
  | Change of charge density      :  0.6309E-02
  | Change of sum of eigenvalues  : -0.1133E+01 eV
  | Change of total energy        :  0.2467E-02 eV

  End self-consistency iteration #     5       :  max(cpu_time)    wall_clock(cpu1)
  | Time for this iteration                    :        0.946 s           0.946 s
  | Charge density update                      :        0.486 s           0.486 s
  | Density mixing & preconditioning           :        0.037 s           0.037 s
  | Hartree multipole update                   :        0.001 s           0.001 s
  | Hartree multipole summation                :        0.088 s           0.088 s
  | Integration                                :        0.330 s           0.331 s
  | Solution of K.-S. eqns.                    :        0.002 s           0.002 s
  | Total energy evaluation                    :        0.000 s           0.001 s

  Partial memory accounting:
  | Current value for overall tracked memory usage:
  |   Minimum:        2.623 MB (on task 1)
  |   Maximum:        2.643 MB (on task 0)
  |   Average:        2.633 MB
  | Peak value for overall tracked memory usage:
  |   Minimum:       17.376 MB (on task 4 after allocating gradient_basis_wave)
  |   Maximum:       19.808 MB (on task 3 after allocating gradient_basis_wave)
  |   Average:       18.635 MB
  | Largest tracked array allocation so far:
  |   Minimum:        8.899 MB (hamiltonian_shell on task 4)
  |   Maximum:       10.768 MB (hamiltonian_shell on task 3)
  |   Average:        9.863 MB
  Note:  These values currently only include a subset of arrays which are explicitly tracked.
  The "true" memory usage will be greater.
------------------------------------------------------------

------------------------------------------------------------
          Begin self-consistency iteration #    6

  Date     :  20190817, Time     :  153455.382
------------------------------------------------------------
  Evaluating new KS density using the density matrix
  Evaluating density matrix
  Time summed over all CPUs for getting density from density matrix: real work        3.794 s, elapsed        3.899 s
  Integration grid: deviation in total charge (<rho> - N_e) =   3.552714E-15
  Pulay mixing of updated and previous charge densities.
  Renormalizing the density to the exact electron count on the 3D integration grid.
  | Formal number of electrons (from input files) :      28.0000000000
  | Integrated number of electrons on 3D grid     :      28.0002327464
  | Charge integration error                      :       0.0002327464
  | Normalization factor for density and gradient :       0.9999916877

  Evaluating partitioned Hartree potential by multipole expansion.
  | Original multipole sum: apparent total charge =  -0.293166E-13
  | Sum of charges compensated after spline to logarithmic grids =  -0.125735E-03
  | Analytical far-field extrapolation by fixed multipoles:
  | Hartree multipole sum: apparent total charge =   0.000000E+00
  Summing up the Hartree potential.
  Time summed over all CPUs for potential: real work        0.671 s, elapsed        0.683 s
  | RMS charge density error from multipole expansion :   0.171213E-01
  | Average real-space part of the electrostatic potential :      0.52240380 eV

  Integrating Hamiltonian matrix: batch-based integration.
  Time summed over all CPUs for integration: real work        2.544 s, elapsed        2.598 s

  Updating Kohn-Sham eigenvalues and eigenvectors using ELSI and the ELPA eigensolver.
  Starting ELPA eigensolver
  Finished transformation to standard eigenproblem
  | Time :     0.000 s
  Finished solving standard eigenproblem
  | Time :     0.001 s
  Finished back-transformation of eigenvectors
  | Time :     0.000 s

  Obtaining occupation numbers and chemical potential using ELSI.
  | Chemical potential (Fermi level):    -5.11655393 eV
  What follows are estimated values for band gap, HOMO, LUMO, etc.
  | They are estimated on a discrete k-point grid and not necessarily exact.
  | For converged numbers, create a DOS and/or band structure plot on a denser k-grid.

  Highest occupied state (VBM) at     -5.17854114 eV (relative to internal zero)
  | Occupation number:      2.00000000
  | K-point:       1 at    0.000000    0.000000    0.000000 (in units of recip. lattice)

  Lowest unoccupied state (CBM) at    -4.74114255 eV (relative to internal zero)
  | Occupation number:      0.00000000
  | K-point:       4 at    0.500000    0.500000    0.000000 (in units of recip. lattice)

  ESTIMATED overall HOMO-LUMO gap:      0.43739859 eV between HOMO at k-point 1 and LUMO at k-point 4
  | This appears to be an indirect band gap.
  | Smallest direct gap :      2.30672965 eV for k_point 1 at    0.500000    0.500000    0.000000 (in units of recip. lattice)
  The gap value is above 0.2 eV. Unless you are using a very sparse k-point grid,
  this system is most likely an insulator or a semiconductor.

  Total energy components:
  | Sum of eigenvalues            :        -326.54532895 Ha       -8885.75050286 eV
  | XC energy correction          :         -41.70021325 Ha       -1134.72053648 eV
  | XC potential correction       :          53.85566537 Ha        1465.48721781 eV
  | Free-atom electrostatic energy:        -262.98289714 Ha       -7156.12873093 eV
  | Hartree energy correction     :          -1.24580735 Ha         -33.90014289 eV
  | Entropy correction            :          -0.00000000 Ha          -0.00000000 eV
  | ---------------------------
  | Total energy                  :        -578.61858133 Ha      -15745.01269536 eV
  | Total energy, T -> 0          :        -578.61858133 Ha      -15745.01269536 eV  <-- do not rely on this value for anything but (periodic) metals
  | Electronic free energy        :        -578.61858133 Ha      -15745.01269536 eV

  Derived energy quantities:
  | Kinetic energy                :         578.21460829 Ha       15734.02002968 eV
  | Electrostatic energy          :       -1115.13297637 Ha      -30344.31218856 eV
  | Energy correction for multipole
  | error in Hartree potential    :           0.02271898 Ha           0.61821482 eV
  | Sum of eigenvalues per atom                           :       -4442.87525143 eV
  | Total energy (T->0) per atom                          :       -7872.50634768 eV  <-- do not rely on this value for anything but (periodic) metals
  | Electronic free energy per atom                       :       -7872.50634768 eV

  Self-consistency convergence accuracy:
  | Change of charge density      :  0.1544E-02
  | Change of sum of eigenvalues  : -0.9347E+00 eV
  | Change of total energy        :  0.8498E-03 eV

  End self-consistency iteration #     6       :  max(cpu_time)    wall_clock(cpu1)
  | Time for this iteration                    :        0.952 s           0.953 s
  | Charge density update                      :        0.491 s           0.491 s
  | Density mixing & preconditioning           :        0.039 s           0.039 s
  | Hartree multipole update                   :        0.001 s           0.002 s
  | Hartree multipole summation                :        0.087 s           0.087 s
  | Integration                                :        0.331 s           0.331 s
  | Solution of K.-S. eqns.                    :        0.002 s           0.002 s
  | Total energy evaluation                    :        0.000 s           0.000 s

  Partial memory accounting:
  | Current value for overall tracked memory usage:
  |   Minimum:        2.623 MB (on task 1)
  |   Maximum:        2.643 MB (on task 0)
  |   Average:        2.633 MB
  | Peak value for overall tracked memory usage:
  |   Minimum:       17.376 MB (on task 4 after allocating gradient_basis_wave)
  |   Maximum:       19.808 MB (on task 3 after allocating gradient_basis_wave)
  |   Average:       18.636 MB
  | Largest tracked array allocation so far:
  |   Minimum:        8.899 MB (hamiltonian_shell on task 4)
  |   Maximum:       10.768 MB (hamiltonian_shell on task 3)
  |   Average:        9.863 MB
  Note:  These values currently only include a subset of arrays which are explicitly tracked.
  The "true" memory usage will be greater.
------------------------------------------------------------

------------------------------------------------------------
          Begin self-consistency iteration #    7

  Date     :  20190817, Time     :  153456.335
------------------------------------------------------------
  Evaluating new KS density using the density matrix
  Evaluating density matrix
  Time summed over all CPUs for getting density from density matrix: real work        3.810 s, elapsed        3.911 s
  Integration grid: deviation in total charge (<rho> - N_e) =   1.065814E-14
  Pulay mixing of updated and previous charge densities.
  Renormalizing the density to the exact electron count on the 3D integration grid.
  | Formal number of electrons (from input files) :      28.0000000000
  | Integrated number of electrons on 3D grid     :      28.0001586063
  | Charge integration error                      :       0.0001586063
  | Normalization factor for density and gradient :       0.9999943355

[...]

  Derived energy quantities:
  | Kinetic energy                :         578.22817757 Ha       15734.38926859 eV
  | Electrostatic energy          :       -1115.14528008 Ha      -30344.64698963 eV
  | Energy correction for multipole
  | error in Hartree potential    :           0.02279945 Ha           0.62040464 eV
  | Sum of eigenvalues per atom                           :       -4442.74431393 eV
  | Total energy (T->0) per atom                          :       -7872.50639976 eV  <-- do not rely on this value for anything but (periodic) metals
  | Electronic free energy per atom                       :       -7872.50639976 eV

  Self-consistency convergence accuracy:
  | Change of charge density      :  0.5937E-05
  | Change of sum of eigenvalues  :  0.3257E-02 eV
  | Change of total energy        : -0.1382E-05 eV

  End self-consistency iteration #    11       :  max(cpu_time)    wall_clock(cpu1)
  | Time for this iteration                    :        0.950 s           0.951 s
  | Charge density update                      :        0.490 s           0.490 s
  | Density mixing & preconditioning           :        0.038 s           0.038 s
  | Hartree multipole update                   :        0.001 s           0.001 s
  | Hartree multipole summation                :        0.087 s           0.087 s
  | Integration                                :        0.332 s           0.332 s
  | Solution of K.-S. eqns.                    :        0.002 s           0.002 s
  | Total energy evaluation                    :        0.000 s           0.000 s

  Partial memory accounting:
  | Current value for overall tracked memory usage:
  |   Minimum:        2.623 MB (on task 1)
  |   Maximum:        2.643 MB (on task 0)
  |   Average:        2.633 MB
  | Peak value for overall tracked memory usage:
  |   Minimum:       17.376 MB (on task 4 after allocating gradient_basis_wave)
  |   Maximum:       19.808 MB (on task 3 after allocating gradient_basis_wave)
  |   Average:       18.636 MB
  | Largest tracked array allocation so far:
  |   Minimum:        8.899 MB (hamiltonian_shell on task 4)
  |   Maximum:       10.768 MB (hamiltonian_shell on task 3)
  |   Average:        9.863 MB
  Note:  These values currently only include a subset of arrays which are explicitly tracked.
  The "true" memory usage will be greater.
------------------------------------------------------------

------------------------------------------------------------
          Begin self-consistency iteration #   12

  Date     :  20190817, Time     :  153501.122
------------------------------------------------------------
  Evaluating new KS density using the density matrix
  Evaluating density matrix
  Time summed over all CPUs for getting density from density matrix: real work        3.782 s, elapsed        3.892 s
  Integration grid: deviation in total charge (<rho> - N_e) =   2.131628E-14
  Pulay mixing of updated and previous charge densities.
  Renormalizing the density to the exact electron count on the 3D integration grid.
  | Formal number of electrons (from input files) :      28.0000000000
  | Integrated number of electrons on 3D grid     :      28.0000000949
  | Charge integration error                      :       0.0000000949
  | Normalization factor for density and gradient :       0.9999999966

  Evaluating partitioned Hartree potential by multipole expansion.
  | Original multipole sum: apparent total charge =  -0.216695E-13
  | Sum of charges compensated after spline to logarithmic grids =  -0.126108E-03
  | Analytical far-field extrapolation by fixed multipoles:
  | Hartree multipole sum: apparent total charge =   0.000000E+00
  Summing up the Hartree potential.
  Time summed over all CPUs for potential: real work        0.671 s, elapsed        0.684 s
  | RMS charge density error from multipole expansion :   0.171875E-01
  | Average real-space part of the electrostatic potential :      0.52466692 eV

  Integrating Hamiltonian matrix: batch-based integration.
  Time summed over all CPUs for integration: real work        2.529 s, elapsed        2.597 s

  Updating Kohn-Sham eigenvalues and eigenvectors using ELSI and the ELPA eigensolver.
  Starting ELPA eigensolver
  Finished transformation to standard eigenproblem
  | Time :     0.000 s
  Finished solving standard eigenproblem
  | Time :     0.001 s
  Finished back-transformation of eigenvectors
  | Time :     0.000 s

  Obtaining occupation numbers and chemical potential using ELSI.
  | Chemical potential (Fermi level):    -5.10975496 eV
  What follows are estimated values for band gap, HOMO, LUMO, etc.
  | They are estimated on a discrete k-point grid and not necessarily exact.
  | For converged numbers, create a DOS and/or band structure plot on a denser k-grid.

  Highest occupied state (VBM) at     -5.16860234 eV (relative to internal zero)
  | Occupation number:      2.00000000
  | K-point:       1 at    0.000000    0.000000    0.000000 (in units of recip. lattice)

  Lowest unoccupied state (CBM) at    -4.74029389 eV (relative to internal zero)
  | Occupation number:      0.00000000
  | K-point:       4 at    0.500000    0.500000    0.000000 (in units of recip. lattice)

  ESTIMATED overall HOMO-LUMO gap:      0.42830846 eV between HOMO at k-point 1 and LUMO at k-point 4
  | This appears to be an indirect band gap.
  | Smallest direct gap :      2.29909302 eV for k_point 1 at    0.500000    0.500000    0.000000 (in units of recip. lattice)
  The gap value is above 0.2 eV. Unless you are using a very sparse k-point grid,
  this system is most likely an insulator or a semiconductor.

  Total energy components:
  | Sum of eigenvalues            :        -326.53571560 Ha       -8885.48891020 eV
  | XC energy correction          :         -41.70148170 Ha       -1134.75505265 eV
  | XC potential correction       :          53.85727645 Ha        1465.53105761 eV
  | Free-atom electrostatic energy:        -262.98289714 Ha       -7156.12873093 eV
  | Hartree energy correction     :          -1.25576717 Ha         -34.17116342 eV
  | Entropy correction            :          -0.00000000 Ha          -0.00000000 eV
  | ---------------------------
  | Total energy                  :        -578.61858516 Ha      -15745.01279958 eV
  | Total energy, T -> 0          :        -578.61858516 Ha      -15745.01279958 eV  <-- do not rely on this value for anything but (periodic) metals
  | Electronic free energy        :        -578.61858516 Ha      -15745.01279958 eV

  Derived energy quantities:
  | Kinetic energy                :         578.22817013 Ha       15734.38906623 eV
  | Electrostatic energy          :       -1115.14527360 Ha      -30344.64681316 eV
  | Energy correction for multipole
  | error in Hartree potential    :           0.02279930 Ha           0.62040055 eV
  | Sum of eigenvalues per atom                           :       -4442.74445510 eV
  | Total energy (T->0) per atom                          :       -7872.50639979 eV  <-- do not rely on this value for anything but (periodic) metals
  | Electronic free energy per atom                       :       -7872.50639979 eV

  Self-consistency convergence accuracy:
  | Change of charge density      :  0.9306E-06
  | Change of sum of eigenvalues  : -0.2823E-03 eV
  | Change of total energy        : -0.6213E-07 eV

  Preliminary charge convergence reached. Turning off preconditioner.

  Writing Kohn-Sham eigenvalues.
  K-point:       1 at    0.000000    0.000000    0.000000 (in units of recip. lattice)

  State    Occupation    Eigenvalue [Ha]    Eigenvalue [eV]
      1       2.00000         -65.410588        -1779.91266
      2       2.00000         -65.410582        -1779.91250
      3       2.00000          -5.069575         -137.95015
      4       2.00000          -5.069193         -137.93976
      5       2.00000          -3.480357          -94.70534
      6       2.00000          -3.479751          -94.68884
      7       2.00000          -3.479677          -94.68682
      8       2.00000          -3.479071          -94.67035
      9       2.00000          -3.476891          -94.61101
     10       2.00000          -3.476280          -94.59438
     11       2.00000          -0.636938          -17.33196
     12       2.00000          -0.191642           -5.21484
     13       2.00000          -0.190964           -5.19639
     14       2.00000          -0.189943           -5.16860
     15       0.00000          -0.105453           -2.86951
     16       0.00000          -0.105112           -2.86024
     17       0.00000          -0.104679           -2.84847
     18       0.00000          -0.056346           -1.53325
     19       0.00000           0.088678            2.41306
     20       0.00000           0.089288            2.42966

  What follows are estimated values for band gap, HOMO, LUMO, etc.
  | They are estimated on a discrete k-point grid and not necessarily exact.
  | For converged numbers, create a DOS and/or band structure plot on a denser k-grid.

  Highest occupied state (VBM) at     -5.16860234 eV (relative to internal zero)
  | Occupation number:      2.00000000
  | K-point:       1 at    0.000000    0.000000    0.000000 (in units of recip. lattice)

  Lowest unoccupied state (CBM) at    -4.74029389 eV (relative to internal zero)
  | Occupation number:      0.00000000
  | K-point:       4 at    0.500000    0.500000    0.000000 (in units of recip. lattice)

  ESTIMATED overall HOMO-LUMO gap:      0.42830846 eV between HOMO at k-point 1 and LUMO at k-point 4
  | This appears to be an indirect band gap.
  | Smallest direct gap :      2.29909302 eV for k_point 1 at    0.500000    0.500000    0.000000 (in units of recip. lattice)
  The gap value is above 0.2 eV. Unless you are using a very sparse k-point grid,
  this system is most likely an insulator or a semiconductor.

  Self-consistency cycle converged.

  End self-consistency iteration #    12       :  max(cpu_time)    wall_clock(cpu1)
  | Time for this iteration                    :        0.950 s           0.951 s
  | Charge density update                      :        0.490 s           0.490 s
  | Density mixing                             :        0.038 s           0.038 s
  | Hartree multipole update                   :        0.001 s           0.001 s
  | Hartree multipole summation                :        0.087 s           0.087 s
  | Integration                                :        0.331 s           0.331 s
  | Solution of K.-S. eqns.                    :        0.002 s           0.002 s
  | Total energy evaluation                    :        0.000 s           0.000 s

  Partial memory accounting:
  | Current value for overall tracked memory usage:
  |   Minimum:        2.623 MB (on task 1)
  |   Maximum:        2.643 MB (on task 0)
  |   Average:        2.633 MB
  | Peak value for overall tracked memory usage:
  |   Minimum:       17.376 MB (on task 4 after allocating gradient_basis_wave)
  |   Maximum:       19.808 MB (on task 3 after allocating gradient_basis_wave)
  |   Average:       18.636 MB
  | Largest tracked array allocation so far:
  |   Minimum:        8.899 MB (hamiltonian_shell on task 4)
  |   Maximum:       10.768 MB (hamiltonian_shell on task 3)
  |   Average:        9.863 MB
  Note:  These values currently only include a subset of arrays which are explicitly tracked.
  The "true" memory usage will be greater.
------------------------------------------------------------

  Energy and forces in a compact form:
  | Total energy uncorrected      :         -0.157450127995836E+05 eV
  | Total energy corrected        :         -0.157450127995836E+05 eV  <-- do not rely on this value for anything but (periodic) metals
  | Electronic free energy        :         -0.157450127995836E+05 eV

  ------------------------------------ 
  Start decomposition of the XC Energy 
  ------------------------------------ 
  X and C from original XC functional choice 
  Hartree-Fock Energy :          0.000000000 Ha              0.000000000 eV
  X Energy            :        -40.612452997 Ha          -1105.121073987 eV
  C Energy            :         -1.089028699 Ha            -29.633978661 eV
  Total XC Energy     :        -41.701481696 Ha          -1134.755052648 eV
  ------------------------------------ 
  LDA X and C from self-consistent density 
  X Energy LDA        :        -37.564707159 Ha          -1022.187690136 eV
  C Energy LDA        :         -2.149019044 Ha            -58.477783510 eV
  ------------------------------------ 
  End decomposition of the XC Energy 
  ------------------------------------ 

------------------------------------------------------------
  |------------------------------------------------------
  | Final ELSI Output
  |------------------------------------------------------
  |
  | Physical Properties
  |   Number of electrons       :        0.28000000E+02
  |   Number of spins           :                     1
  |   Number of k-points        :                     4
  |   Number of states          :                    20
  |
  | Matrix Properties
  |   Matrix format             :           BLACS_DENSE
  |   Number of basis functions :                    86
  |   Matrix sparsity           :        0.80935641E+00
  |
  | Computational Details
  |   Parallel mode             :            MULTI_PROC
  |   Number of MPI tasks       :                     8
  |   Solver requested          :                  ELPA
  |   Number of ELSI calls      :                    13
  |
  |------------------------------------------------------
  | ELSI Project (c)  elsi-interchange.org
  |------------------------------------------------------

------------------------------------------------------------------------------
  Final output of selected total energy values:

  The following output summarizes some interesting total energy values
  at the end of a run (AFTER all relaxation, molecular dynamics, etc.).

  | Total energy of the DFT / Hartree-Fock s.c.f. calculation      :         -15745.012799584 eV
  | Final zero-broadening corrected energy (caution - metals only) :         -15745.012799584 eV
  | For reference only, the value of 1 Hartree used in FHI-aims is :             27.211384500 eV
  | For reference only, the overall average (free atom contribution
  | + realspace contribution) of the electrostatic potential after
  | s.c.f. convergence is                                          :            -12.731800646 eV

  Before relying on these values, please be sure to understand exactly which
  total energy value is referred to by a given number. Different objects may
  all carry the same name 'total energy'. Definitions:

  Total energy of the DFT / Hartree-Fock s.c.f. calculation:
  | Note that this energy does not include ANY quantities calculated after the
  | s.c.f. cycle, in particular not ANY RPA, MP2, etc. many-body perturbation terms.

  Final zero-broadening corrected energy:
  | For metallic systems only, a broadening of the occupation numbers at the Fermi
  | level can be extrapolated back to zero broadening by an electron-gas inspired
  | formula. For all systems that are not real metals, this value can be
  | meaningless and should be avoided.

------------------------------------------------------------------------------
  Methods described in the following list of references were used in this FHI-aims run.
  If you publish the results, please make sure to cite these reference if they apply.
  FHI-aims is an academic code, and for our developers (often, Ph.D. students
  and postdocs), scientific credit in the community is essential.
  Thank you for helping us!

  For any use of FHI-aims, please cite:

    Volker Blum, Ralf Gehrke, Felix Hanke, Paula Havu, Ville Havu,
    Xinguo Ren, Karsten Reuter, and Matthias Scheffler
    'Ab initio molecular simulations with numeric atom-centered orbitals'
    Computer Physics Communications 180, 2175-2196 (2009)
    http://dx.doi.org/10.1016/j.cpc.2009.06.022


  The provided symmetry information was generated with SPGlib:

    Atsushi Togo, Yusuke Seto, Dimitar Pashov
    SPGlib 1.7.3 obtained from http://spglib.sourceforge.net
    Copyright (C) 2008 Atsushi Togo


  The ELSI infrastructure was used in your run to solve the Kohn-Sham electronic structure.
  Please check out http://elsi-interchange.org to learn more.
  If scalability is important for your project, please acknowledge ELSI by citing:

    V. W-z. Yu, F. Corsetti, A. Garcia, W. P. Huhn, M. Jacquelin, W. Jia,
    B. Lange, L. Lin, J. Lu, W. Mi, A. Seifitokaldani, A. Vazquez-Mayagoitia,
    C. Yang, H. Yang, and V. Blum
    'ELSI: A unified software interface for Kohn-Sham electronic structure solvers'
    Computer Physics Communications 222, 267-285 (2018).
    http://dx.doi.org/10.1016/j.cpc.2017.09.007


  For the real-space grid partitioning and parallelization used in this calculation, please cite:

    Ville Havu, Volker Blum, Paula Havu, and Matthias Scheffler,
    'Efficient O(N) integration for all-electron electronic structure calculation'
    'using numerically tabulated basis functions'
    Journal of Computational Physics 228, 8367-8379 (2009).
    http://dx.doi.org/10.1016/j.jcp.2009.08.008

  Of course, there are many other important community references, e.g., those cited in the
  above references. Our list is limited to references that describe implementations in the
  FHI-aims code. The reason is purely practical (length of this list) - please credit others as well.

------------------------------------------------------------
          Leaving FHI-aims.
          Date     :  20190817, Time     :  153502.076

          Computational steps:
          | Number of self-consistency cycles          :           12
          | Number of SCF (re)initializations          :            1

          Detailed time accounting                     :  max(cpu_time)    wall_clock(cpu1)
          | Total time                                 :       12.528 s          12.535 s
          | Preparation time                           :        0.167 s           0.166 s
          | Boundary condition initalization           :        0.059 s           0.059 s
          | Grid partitioning                          :        0.029 s           0.029 s
          | Preloading free-atom quantities on grid    :        0.002 s           0.002 s
          | Free-atom superposition energy             :        0.007 s           0.006 s
          | Total time for integrations                :        4.592 s           4.594 s
          | Total time for solution of K.-S. equations :        0.033 s           0.029 s
          | Total time for density update              :        6.003 s           6.006 s
          | Total time for mixing & preconditioning    :        0.462 s           0.462 s
          | Total time for Hartree multipole update    :        0.013 s           0.014 s
          | Total time for Hartree multipole sum       :        1.039 s           1.038 s
          | Total time for total energy evaluation     :        0.002 s           0.006 s

          Partial memory accounting:
          | Residual value for overall tracked memory usage across tasks:     0.000000 MB (should be 0.000000 MB)
          | Peak values for overall tracked memory usage:
          |   Minimum:       17.376 MB (on task 4 after allocating gradient_basis_wave)
          |   Maximum:       19.808 MB (on task 3 after allocating gradient_basis_wave)
          |   Average:       18.636 MB
          | Largest tracked array allocation:
          |   Minimum:        8.899 MB (hamiltonian_shell on task 4)
          |   Maximum:       10.768 MB (hamiltonian_shell on task 3)
          |   Average:        9.863 MB
          Note:  These values currently only include a subset of arrays which are explicitly tracked.
          The "true" memory usage will be greater.

          Have a nice day.
------------------------------------------------------------
