  MPI-parallelism will be employed.
------------------------------------------------------------
          Invoking FHI-aims ...

          When using FHI-aims, please cite the following reference:

          Volker Blum, Ralf Gehrke, Felix Hanke, Paula Havu,
          Ville Havu, Xinguo Ren, Karsten Reuter, and Matthias Scheffler,
          'Ab Initio Molecular Simulations with Numeric Atom-Centered Orbitals',
          Computer Physics Communications 180, 2175-2196 (2009)

          For any questions about FHI-aims, please visit the aimsclub website
          with its forums and wiki. Contributions to both the forums and the
          wiki are warmly encouraged - they are for you, and everyone is welcome there.

------------------------------------------------------------



  Date     :  20190817, Time     :  154501.549
  Time zero on CPU 1             :   0.315900000000000E-01  s.
  Internal wall clock time zero  :           335288701.549  s.

  FHI-aims created a unique identifier for this run for later identification
  aims_uuid : 90A32FEA-54F1-4489-A7E8-65D08D5B2031

  Build configuration of the current instance of FHI-aims
  -------------------------------------------------------
  FHI-aims version      : 190813
  Commit number         : 3da7baeb3
  CMake host system     : Linux-4.4.180-94.97-default
  CMake version         : 3.5.2
  Fortran compiler      : /mpcdf/soft/SLE_12_SP3/packages/x86_64/intel_parallel_studio/2018.4/compilers_and_libraries_2018.5.274/linux/mpi/bin64/mpiifort (Intel) version 18.0.5.20180823
  Fortran compiler flags: -O3 -ip -fp-model precise
  C compiler            : /mpcdf/soft/SLE_12_SP3/packages/skylake/intel/18.0.5/bin/icc (Intel) version 18.0.5.20180823
  C compiler flags      : -O3 -ip -fp-model precise
  Architecture          :
  Using MPI
  Using Scalapack
  Using C files
  Using SPGlib
  Using i-PI
  Linking against: /mpcdf/soft/SLE_12_SP3/packages/x86_64/anaconda/3.5.1.0/lib/libmkl_intel_lp64.so
                   /mpcdf/soft/SLE_12_SP3/packages/x86_64/anaconda/3.5.1.0/lib/libmkl_sequential.so
                   /mpcdf/soft/SLE_12_SP3/packages/x86_64/anaconda/3.5.1.0/lib/libmkl_core.so
                   /mpcdf/soft/SLE_12_SP3/packages/x86_64/anaconda/3.5.1.0/lib/libmkl_blacs_intelmpi_lp64.so
                   /mpcdf/soft/SLE_12_SP3/packages/x86_64/anaconda/3.5.1.0/lib/libmkl_scalapack_lp64.so

  Using        8 parallel tasks.
  Task        0 on host co1631 reporting.
  Task        1 on host co1631 reporting.
  Task        2 on host co1631 reporting.
  Task        3 on host co1631 reporting.
  Task        4 on host co1631 reporting.
  Task        5 on host co1631 reporting.
  Task        6 on host co1631 reporting.
  Task        7 on host co1631 reporting.

  Performing system and environment tests:
  | Environment variable OMP_NUM_THREADS correctly set to 1.
  | Maximum stacksize for task 0: unlimited
  | Maximum stacksize for task 1: unlimited
  | Maximum stacksize for task 2: unlimited
  | Maximum stacksize for task 3: unlimited
  | Maximum stacksize for task 4: unlimited
  | Maximum stacksize for task 5: unlimited
  | Maximum stacksize for task 6: unlimited
  | Maximum stacksize for task 7: unlimited
  | Current stacksize for task 0: unlimited
  | Current stacksize for task 1: unlimited
  | Current stacksize for task 2: unlimited
  | Current stacksize for task 3: unlimited
  | Current stacksize for task 4: unlimited
  | Current stacksize for task 5: unlimited
  | Current stacksize for task 6: unlimited
  | Current stacksize for task 7: unlimited
  | Checking for scalapack...
  | Testing pdtran()...
  | All pdtran() tests passed.

  Obtaining array dimensions for all initial allocations:
  
  -----------------------------------------------------------------------
  Parsing control.in (first pass over file, find array dimensions only).
  The contents of control.in will be repeated verbatim below
  unless switched off by setting 'verbatim_writeout .false.' .
  in the first line of control.in .
  -----------------------------------------------------------------------
  
  #########################################################################################
  #
  #  Volker Blum, FHI 2008 : Test run input file control.in for simple H2O
  #
  #########################################################################################
  #
  #  Physical model
  #
    xc                 pbe
    spin               none
    relativistic       none
    charge             0.
  #
  #  SCF convergence
  #
    occupation_type    gaussian 0.01
    mixer              pulay
      n_max_pulay        10
      charge_mix_param   0.5
    sc_accuracy_rho    1E-5
    sc_accuracy_eev    1E-3
    sc_accuracy_etot   1E-6
    sc_accuracy_forces 1E-4
    sc_iter_limit      100
  #
  #  Eigenvalue solution
  #
    KS_method	     serial
      empty_states       3
      basis_threshold    0.e-5
  #
  #  Relaxation
  #
    relax_geometry   bfgs_textbook 1.e-2
  #
  
  ################################################################################
  #
  #  FHI-aims code project
  #  VB, Fritz-Haber Institut, 2007
  #
  #  Settings for O atom (to be pasted into control.in file).
  #
  #  Tier 1, l_hartree=4, sparse grids (302 max.) For tightly converged calculations,
  #  check the convergence of these parameters.
  #
  ################################################################################
    species        O
      nucleus             8
      l_hartree         4
      cut_pot             3.5  2.0  1.0
      cut_free_atom       finite 8.0
      logarithmic         0.00010000 100.00  1.0123
      radial_base         36 7.0
      radial_multiplier   2
      angular_grids specified
        division   0.4087  110
        division   0.5181  194
        division   0.6184  302
  #      division   0.7315  434
  #      division   0.7934  590
  #      division   0.9656  770
  #      division   1.4041  974
  #      outer_grid 974
        outer_grid 302
  ################################################################################
  #
  #  Definition of "minimal" basis
  #
  ################################################################################
  #     valence basis states
      valence      2  s   2.
      valence      2  p   4.
  #     ion occupancy
      ion_occ      2  s   1.
      ion_occ      2  p   3.
  ################################################################################
  #
  #  Suggested additional basis functions. For production calculations,
  #  uncomment them one after another (the most important basis functions are
  #  listed first).
  #
  #  Many basis functions are listed, but it is likely that the functions
  #  after the "third tier" reflect small numerical adjustments only for a very
  #  specific structure.
  #
  ################################################################################
  #  "First tier" - improvements: -699.05 meV to -49.91 meV
       hydro 2 p 1.8
       hydro 3 d 7.6
       hydro 3 s 6.4
  #  "Second tier" - improvements: -30.97 meV to -5.39 meV
  #     hydro 4 f 11.6
  #     hydro 3 p 6.2
  #     hydro 3 d 5.6
  #     hydro 5 g 17.6
  #     hydro 1 s 0.75
  #  "Third tier" - improvements: -2.83 meV to -0.50 meV
  #     ionic 2 p 9.4486
  #     hydro 4 f 10.8
  #     hydro 4 d 4.7
  #     hydro 2 s 6.8
  #  "Fourth tier" - improvements: -0.40 meV to -0.12 meV
  #     hydro 3 p 5
  #     hydro 3 s 3.3
  #     hydro 5 g 15.6
  #     hydro 4 f 17.6
  #     hydro 4 d 14
  # Further basis functions - -0.08 meV and below
  #     hydro 3 s 2.1
  #     hydro 4 d 11.6
  #     hydro 3 p 16
  #     hydro 2 s 17.2
  
  ################################################################################
  #
  #  VB, Fritz-Haber Institut, 2007
  #
  #  Settings for H atom (to be pasted into control.in file)
  #
  #  Tier 1, l_hartree=4, sparse grids (302 max.) For tightly converged calculations,
  #  check the convergence of these parameters.
  #
  ################################################################################
    species        H
      nucleus             1
      l_hartree         4
      cut_pot             3.5  2.0  1.0
      cut_free_atom       finite 8.0
      logarithmic         0.00010000 100.00  1.0123
      radial_base         24 7.0
      radial_multiplier   2
      angular_grids       specified
        division   0.2783  110
        division   0.3822  194
        division   0.5626  302
  #      division   0.5922  434
  #      division   0.6227  590
  #      division   0.7206  770
  #      outer_grid  770
        outer_grid  302
  ################################################################################
  #
  #  Definition of "minimal" basis
  #
  ################################################################################
  #     valence basis states
      valence      1  s   1.
  #     ion occupancy
      ion_occ      1  s   0.5
  ################################################################################
  #
  #  Suggested additional basis functions. For production calculations,
  #  uncomment them one after another (the most important basis functions are
  #  listed first).
  #
  ################################################################################
  #  "First tier" - improvements: -1014.90 meV to -62.69 meV
       hydro 2 s 2.1
       hydro 2 p 3.5
  #  "Second tier" - improvements: -12.89 meV to -1.83 meV
  #     hydro 1 s 0.85
  #     hydro 2 p 3.7
  #     hydro 2 s 1.2
  #     hydro 3 d 7
  #  "Third tier" - improvements: -0.25 meV to -0.12 meV
  #     hydro 4 f 11.2
  #     hydro 3 p 4.8
  #     hydro 4 d 9
  #     hydro 3 s 3.2
  
  
  -----------------------------------------------------------------------
  Completed first pass over input file control.in .
  -----------------------------------------------------------------------
  
  
  -----------------------------------------------------------------------
  Parsing geometry.in (first pass over file, find array dimensions only).
  The contents of geometry.in will be repeated verbatim below
  unless switched off by setting 'verbatim_writeout .false.' .
  in the first line of geometry.in .
  -----------------------------------------------------------------------
  
  # Geometry for water -- needs to be relaxed as the water molecule
  # described here has a 90degree bond angle and a
  # 1 Angstrom bond distance ...
  atom    0.00000000    0.00000000    0.00000000    O
  atom    0.70700000   -0.70700000    0.00000000    H
  atom   -0.70700000   -0.70700000    0.00000000    H
  
  -----------------------------------------------------------------------
  Completed first pass over input file geometry.in .
  -----------------------------------------------------------------------
  

  Basic array size parameters:
  | Number of species                 :        2
  | Number of atoms                   :        3
  | Max. basis fn. angular momentum   :        2
  | Max. atomic/ionic basis occupied n:        2
  | Max. number of basis fn. types    :        2
  | Max. radial fns per species/type  :        3
  | Max. logarithmic grid size        :     1301
  | Max. radial integration grid size :       73
  | Max. angular integration grid size:      302
  | Max. angular grid division number :        8
  | Radial grid for Hartree potential :     1301
  | Number of spin channels           :        1

------------------------------------------------------------
          Reading file control.in.
------------------------------------------------------------
  XC: Using PBE gradient-corrected functionals.
  Spin treatment: No spin polarisation.
  Non-relativistic treatment of kinetic energy.
  Charge =   0.000000E+00: Neutral system requested explicitly.
  Occupation type: Gaussian broadening, width =   0.100000E-01 eV.
  Using pulay charge density mixing.
  Pulay mixing - number of memorized iterations:   10
  Charge density mixing - mixing parameter:     0.5000
  Convergence accuracy of self-consistent charge density:  0.1000E-04
  Convergence accuracy of sum of eigenvalues:  0.1000E-02
  Convergence accuracy of total energy:  0.1000E-05
  Convergence accuracy of forces:  0.1000E-03
  Maximum number of s.-c. iterations  :   100
  Kohn-Sham eigenvalues and eigenfunctions calculated by LAPACK via ELSI.
  Number of empty states per atom:        3
  Threshold for basis singularities:  0.0000E+00
  Geometry relaxation: Textbook BFGS (simple quadratic extrapolation).
  Convergence accuracy for geometry relaxation: Maximum force <   0.100000E-01 eV/A.
 
  Reading configuration options for species O                   .
  | Found nuclear charge :   8.0000
  | Found l_max for Hartree potential  :   4
  | Found cutoff potl. onset [A], width [A], scale factor :    3.50000    2.00000    1.00000
  | Found cutoff specification for free atom: Cutoff potential begins at    8.00000 A.
  | Found logarithmic grid data [bohr] : 0.1000E-03 0.1000E+03 0.1012E+01
  | Found data for basic radial integration grid :    36 points, outermost radius =    7.000 A
  | Found multiplier for basic radial grid :   2
  | Found angular grid specification: user-specified.
  | Specified grid contains     4 separate shells.
  | Check grid settings after all constraints further below.
  | Found free-atom valence shell :  2 s   2.000
  | Found free-atom valence shell :  2 p   4.000
  | No ionic wave fns used. Skipping ion_occ.
  | No ionic wave fns used. Skipping ion_occ.
  | Found hydrogenic basis function :  2 p   1.800
  | Found hydrogenic basis function :  3 d   7.600
  | Found hydrogenic basis function :  3 s   6.400
  Species O                   : Missing cutoff potential type.
  Defaulting to exp(1/x)/(1-x)^2 type cutoff potential.
  Species O : On-site basis accuracy parameter (for Gram-Schmidt orthonormalisation) not specified.
  Using default value basis_acc =  0.1000000E-03.
  Species O                   : Using default innermost maximum threshold i_radial=  2 for radial functions.
  Species O                   : Basic radial grid will be enhanced according to radial_multiplier =   2, to contain    73 grid points.
 
  Reading configuration options for species H                   .
  | Found nuclear charge :   1.0000
  | Found l_max for Hartree potential  :   4
  | Found cutoff potl. onset [A], width [A], scale factor :    3.50000    2.00000    1.00000
  | Found cutoff specification for free atom: Cutoff potential begins at    8.00000 A.
  | Found logarithmic grid data [bohr] : 0.1000E-03 0.1000E+03 0.1012E+01
  | Found data for basic radial integration grid :    24 points, outermost radius =    7.000 A
  | Found multiplier for basic radial grid :   2
  | Found angular grid specification: user-specified.
  | Specified grid contains     4 separate shells.
  | Check grid settings after all constraints further below.
  | Found free-atom valence shell :  1 s   1.000
  | No ionic wave fns used. Skipping ion_occ.
  | Found hydrogenic basis function :  2 s   2.100
  | Found hydrogenic basis function :  2 p   3.500
  Species H                   : Missing cutoff potential type.
  Defaulting to exp(1/x)/(1-x)^2 type cutoff potential.
  Species H : On-site basis accuracy parameter (for Gram-Schmidt orthonormalisation) not specified.
  Using default value basis_acc =  0.1000000E-03.
  Species H                   : Using default innermost maximum threshold i_radial=  2 for radial functions.
  Species H                   : Basic radial grid will be enhanced according to radial_multiplier =   2, to contain    49 grid points.
 
  Finished reading input file 'control.in'. Consistency checks are next.
 
  MPI_IN_PLACE appears to work with this MPI implementation.
  | Keeping use_mpi_in_place .true. (see manual).
  Target number of points in a grid batch is not set. Defaulting to  100
  Method for grid partitioning is not set. Defaulting to parallel hash+maxmin partitioning.
  Batch size limit is not set. Defaulting to    200
  By default, will store active basis functions for each batch.
  If in need of memory, prune_basis_once .false. can be used to disable this option.
  communication_type for Hartree potential was not specified.
  Defaulting to calc_hartree .
  Pulay mixer: Number of initial linear mixing iterations not set.
  Defaulting to    0 iterations.
  Work space size for distributed Hartree potential not set.
  Defaulting to   0.200000E+03 MB.
  Algorithm-dependent basis array size parameters:
  | n_max_pulay                         :       10
  Presetting      1001 iterations before the initial mixing cycle
  is restarted anyway using the sc_init_iter criterion / keyword.
  Presetting a factor      1.000 between actual scf density residual
  and density convergence criterion sc_accuracy_rho below which sc_init_iter
  takes no effect.
  No maximum number of relaxation steps, defaulting to     1000
  Default initial Hessian is Lindh matrix (thres = 15.00) plus  0.200000E+01 eV/A^2 times unity.
  No maximum energy tolerance for TRM/BFGS moves, defaulting to   0.100000E-02
  Maximum energy tolerance by which TRM/BFGS trajectory may increase over multiple steps:   0.300000E-02
  No maximum atomic movement during BFGS, defaulting to   0.200000E+00
  No explicit minimum BFGS line step, defaulting to   0.100000E+00
  Defaulting to automatic line searching during relaxation.
  Handling of forces: Unphysical translation and rotation will be removed from forces.
  No accuracy limit for integral partition fn. given. Defaulting to  0.1000E-14.
  No threshold value for u(r) in integrations given. Defaulting to  0.1000E-05.
  No accuracy for occupation numbers given. Defaulting to  0.1000E-12.
  No threshold value for occupation numbers given. Defaulting to  0.0000E+00.
  No accuracy for fermi level given. Defaulting to  0.1000E-19.
  Maximum # of iterations to find E_F not set. Defaulting to  200.
  Will not use alltoall communication since running on < 1024 CPUs.
  partition_type (choice of integration weights) for integrals was not specified.
  | Using a version of the partition function of Stratmann and coworkers ('stratmann_sparse').
  | At each grid point, the set of atoms used to build the partition table is smoothly restricted to
  | only those atoms whose free-atom density would be non-zero at that grid point.
  Partitioning for Hartree potential was not defined. Using partition_type for integrals.
  | Adjusted default value of keyword multip_moments_threshold to:       0.10000000E-11
  | This value may affect high angular momentum components of the Hartree potential in periodic systems.
  No q(lm)/r^(l+1) cutoff set for long-range Hartree potential.
  | Using default value of  0.100000E-09 .
  | Verify using the multipole_threshold keyword.
  Defaulting to new monopole extrapolation.
  Density update method: automatic selection selected.
  Charge integration errors on the 3D integration grid will be compensated
  by explicit normalization and distribution of residual charges.
  Use the "compensate_multipole_errors" flag to change this behaviour.
------------------------------------------------------------


------------------------------------------------------------
          Reading geometry description geometry.in.
------------------------------------------------------------
  Input structure read successfully.
  The structure contains        3 atoms,  and a total of         10.000 electrons.

  Input geometry:
  | No unit cell requested.
  | Atomic structure:
  |       Atom                x [A]            y [A]            z [A]
  |    1: Species O             0.00000000        0.00000000        0.00000000
  |    2: Species H             0.70700000       -0.70700000        0.00000000
  |    3: Species H            -0.70700000       -0.70700000        0.00000000
  | The smallest distance between any two atoms is         0.99984899 AA.
  | The first atom of this pair is atom number                      1 .
  | The second atom of this pair is atom number                     2 .

  Structure-dependent array size parameters: 
  | Maximum number of distinct radial functions  :        9
  | Maximum number of basis functions            :       24
  | Number of Kohn-Sham states (occupied + empty):       10
------------------------------------------------------------

------------------------------------------------------------
          Preparing all fixed parts of the calculation.
------------------------------------------------------------
  Determining machine precision:
    2.225073858507201E-308
  Setting up grids for atomic and cluster calculations.

  Creating wave function, potential, and density for free atoms.

  Species: O

  List of occupied orbitals and eigenvalues:
    n    l              occ      energy [Ha]    energy [eV]
    1    0           2.0000       -18.898644      -514.2583
    2    0           2.0000        -0.878848       -23.9147
    2    1           4.0000        -0.332128        -9.0377


  Species: H

  List of occupied orbitals and eigenvalues:
    n    l              occ      energy [Ha]    energy [eV]
    1    0           1.0000        -0.238600        -6.4926

  Creating fixed part of basis set: Ionic, confined, hydrogenic.
 
  O                    hydrogenic:
 
  List of hydrogenic basis orbitals: 
    n    l      effective z      eigenvalue [eV]  inner max. [A]     outer max. [A]     outer radius [A]   
    2    1         1.800000       -10.9911           1.178546           1.178546           4.926371
    3    2         7.600000       -87.3182           0.624117           0.624117           3.541422
    3    0         6.400000       -61.9209           0.061166           1.081887           4.306510
 
 
  H                    hydrogenic:
 
  List of hydrogenic basis orbitals: 
    n    l      effective z      eigenvalue [eV]  inner max. [A]     outer max. [A]     outer radius [A]   
    2    0         2.100000       -14.9840           0.193241           1.317192           4.932270
    2    1         3.500000       -41.6672           0.602363           0.602363           4.056010
 

  Adding cutoff potential to free-atom effective potential.
  Creating atomic-like basis functions for current effective potential.

  Species O                   :

  List of atomic basis orbitals and eigenvalues:
    n    l      energy [Ha]    energy [eV]    outer radius [A]
    1    0       -18.898644      -514.2583       1.415745
    2    0        -0.878848       -23.9147       4.691267
    2    1        -0.332116        -9.0373       4.866513


  Species H                   :

  List of atomic basis orbitals and eigenvalues:
    n    l      energy [Ha]    energy [eV]    outer radius [A]
    1    0        -0.238474        -6.4892       4.932270

  Assembling full basis from fixed parts.
  | Species O :   atomic orbital   1 s accepted.
  | Species O :    hydro orbital   3 s accepted.
  | Species O :   atomic orbital   2 s accepted.
  | Species O :   atomic orbital   2 p accepted.
  | Species O :    hydro orbital   2 p accepted.
  | Species O :    hydro orbital   3 d accepted.
  | Species H :   atomic orbital   1 s accepted.
  | Species H :    hydro orbital   2 s accepted.
  | Species H :    hydro orbital   2 p accepted.
 
  Basis size parameters after reduction:
  | Total number of radial functions:        9
  | Total number of basis functions :       24
 
  Per-task memory consumption for arrays in subroutine allocate_ext:
  |           2.249332MB.
  Testing on-site integration grid accuracy.
  |  Species  Function  <phi|h_atom|phi> (log., in eV)  <phi|h_atom|phi> (rad., in eV)
           1        1               -514.2582716705               -514.2582672011
           1        2                 15.1717785310                 15.1717637644
           1        3                -21.5463566545                -21.5463656091
           1        4                 -9.0374505311                 -9.0374493565
           1        5                  8.1347219283                  8.1348400542
           1        6                 45.8230583372                 45.8230583430
           2        7                 -6.4901874404                 -6.4902795842
           2        8                 13.6002249705                 13.5998530365
           2        9                 25.2412491005                 25.2412494073

  Preparing densities etc. for the partition functions (integrals / Hartree potential).

  Preparations completed.
  max(cpu_time)          :      0.101 s.
  Wall clock time (cpu1) :      0.100 s.
------------------------------------------------------------

------------------------------------------------------------
          Begin self-consistency loop: Initialization.

          Date     :  20190817, Time     :  154501.699
------------------------------------------------------------

  Initializing index lists of integration centers etc. from given atomic structure:
  | Number of centers in hartree potential         :         3
  | Number of centers in hartree multipole         :         3
  | Number of centers in electron density summation:         3
  | Number of centers in basis integrals           :         3
  | Number of centers in integrals                 :         3
  | Number of centers in hamiltonian               :         3

  Initializing relaxation algorithms.
  Partitioning the integration grid into batches with parallel hashing+maxmin method.
  | Number of batches:      497
  | Maximal batch size:     171
  | Minimal batch size:      66
  | Average batch size:      79.159
  | Standard deviation of batch sizes:      14.357

  Integration load balanced across     8 MPI tasks.
  Work distribution over tasks is as follows:
  Task     0 has       4947 integration points.
  Task     1 has       4970 integration points.
  Task     2 has       4941 integration points.
  Task     3 has       4916 integration points.
  Task     4 has       4910 integration points.
  Task     5 has       4882 integration points.
  Task     6 has       4876 integration points.
  Task     7 has       4900 integration points.
  Initializing partition tables, free-atom densities, potentials, etc. across the integration grid (initialize_grid_storage).
  | initialize_grid_storage: Actual outermost partition radius vs. multipole_radius_free
  | (-- VB: in principle, multipole_radius_free should be larger, hence this output)
  | Species        1: Confinement radius =              9.999999999999998 AA, multipole_radius_free =             10.010662894305348 AA.
  | Species        1: outer_partition_radius set to             10.010662894305348 AA .
  | Species        2: Confinement radius =              9.999999999999998 AA, multipole_radius_free =             10.022649884104233 AA.
  | Species        2: outer_partition_radius set to             10.022649884104233 AA .
  | The sparse table of interatomic distances needs          0.09 kbyte instead of         0.07 kbyte of memory.
  | Using the partition_type stratmann_smoother will reduce your memory usage.
  | Net number of integration points:    39342
  | of which are non-zero points    :    35098
  Renormalizing the initial density to the exact electron count on the 3D integration grid.
  | Initial density: Formal number of electrons (from input files) :      10.0000000000
  | Integrated number of electrons on 3D grid     :       9.9999982259
  | Charge integration error                      :      -0.0000017741
  | Normalization factor for density and gradient :       1.0000001774
  Renormalizing the free-atom superposition density to the exact electron count on the 3D integration grid.
  | Formal number of electrons (from input files) :      10.0000000000
  | Integrated number of electrons on 3D grid     :       9.9999982259
  | Charge integration error                      :      -0.0000017741
  | Normalization factor for density and gradient :       1.0000001774
  Obtaining max. number of non-zero basis functions in each batch (get_n_compute_maxes).
  | Maximal number of non-zero basis functions:       24 in task     0
  | Maximal number of non-zero basis functions:       24 in task     1
  | Maximal number of non-zero basis functions:       24 in task     2
  | Maximal number of non-zero basis functions:       24 in task     3
  | Maximal number of non-zero basis functions:       24 in task     4
  | Maximal number of non-zero basis functions:       24 in task     5
  | Maximal number of non-zero basis functions:       24 in task     6
  | Maximal number of non-zero basis functions:       24 in task     7
  Selecting the method for density update.
  Loop over occupied states selected for charge density update.
  Allocating        0.002 MB for KS_eigenvector
  Integrating Hamiltonian matrix: batch-based integration.
  Time summed over all CPUs for integration: real work        0.078 s, elapsed        0.083 s
  Integrating overlap matrix.
  Time summed over all CPUs for integration: real work        0.025 s, elapsed        0.026 s

  Updating Kohn-Sham eigenvalues and eigenvectors using ELSI and the (modified) LAPACK eigensolver.
  Overlap matrix is not singular
  | Lowest and highest eigenvalues :  0.1950E-01,  0.2747E+01
  Finished singularity check of overlap matrix
  | Time :     0.001 s
  Starting LAPACK eigensolver
  Finished Cholesky decomposition
  | Time :     0.000 s
  Finished transformation to standard eigenproblem
  | Time :     0.000 s
  Finished solving standard eigenproblem
  | Time :     0.012 s
  Finished back-transformation of eigenvectors
  | Time :     0.001 s

  Obtaining occupation numbers and chemical potential using ELSI.
  | Chemical potential (Fermi level):    -8.55295937 eV
  Writing Kohn-Sham eigenvalues.

  State    Occupation    Eigenvalue [Ha]    Eigenvalue [eV]
      1       2.00000         -18.994367         -516.86304
      2       2.00000          -1.083854          -29.49318
      3       2.00000          -0.582007          -15.83723
      4       2.00000          -0.522193          -14.20960
      5       2.00000          -0.429048          -11.67498
      6       0.00000          -0.059003           -1.60557
      7       0.00000           0.021094            0.57399
      8       0.00000           0.205660            5.59630
      9       0.00000           0.246013            6.69437
     10       0.00000           0.288267            7.84414

  Highest occupied state (VBM) at    -11.67498012 eV
  | Occupation number:      2.00000000

  Lowest unoccupied state (CBM) at    -1.60556502 eV
  | Occupation number:      0.00000000

  Overall HOMO-LUMO gap:     10.06941510 eV.
  Calculating total energy contributions from superposition of free atom densities.

  Total energy components:
  | Sum of eigenvalues            :         -43.22294027 Ha       -1176.15604687 eV
  | XC energy correction          :          -9.00165953 Ha        -244.94761872 eV
  | XC potential correction       :          11.57374036 Ha         314.93749900 eV
  | Free-atom electrostatic energy:         -35.79549830 Ha        -974.04506768 eV
  | Hartree energy correction     :           0.00000000 Ha           0.00000000 eV
  | Entropy correction            :           0.00000000 Ha           0.00000000 eV
  | ---------------------------
  | Total energy                  :         -76.44635775 Ha       -2080.21123427 eV
  | Total energy, T -> 0          :         -76.44635775 Ha       -2080.21123427 eV  <-- do not rely on this value for anything but (periodic) metals
  | Electronic free energy        :         -76.44635775 Ha       -2080.21123427 eV

  Derived energy quantities:
  | Kinetic energy                :          75.52024634 Ha        2055.01046081 eV
  | Electrostatic energy          :        -142.96494456 Ha       -3890.27407636 eV
  | Energy correction for multipole
  | error in Hartree potential    :           0.00000000 Ha           0.00000000 eV
  | Sum of eigenvalues per atom                           :        -392.05201562 eV
  | Total energy (T->0) per atom                          :        -693.40374476 eV  <-- do not rely on this value for anything but (periodic) metals
  | Electronic free energy per atom                       :        -693.40374476 eV
  Initialize hartree_potential_storage
  Max. number of atoms included in rho_multipole:            3

  End scf initialization - timings             :  max(cpu_time)    wall_clock(cpu1)
  | Time for scf. initialization               :        0.046 s           0.058 s
  | Boundary condition initialization          :        0.000 s           0.000 s
  | Relaxation initialization                  :        0.000 s           0.000 s
  | Integration                                :        0.014 s           0.014 s
  | Solution of K.-S. eqns.                    :        0.002 s           0.014 s
  | Grid partitioning                          :        0.010 s           0.010 s
  | Preloading free-atom quantities on grid    :        0.005 s           0.006 s
  | Free-atom superposition energy             :        0.007 s           0.007 s
  | Total energy evaluation                    :        0.000 s           0.000 s

  Partial memory accounting:
  | Current value for overall tracked memory usage:
  |   Minimum:        0.009 MB (on task 0)
  |   Maximum:        0.009 MB (on task 0)
  |   Average:        0.009 MB
  | Peak value for overall tracked memory usage:
  |   Minimum:        0.153 MB (on task 7 after allocating grid_partition)
  |   Maximum:        0.194 MB (on task 2 after allocating grid_partition)
  |   Average:        0.172 MB
  | Largest tracked array allocation so far:
  |   Minimum:        0.100 MB (all_coords on task 7)
  |   Maximum:        0.127 MB (all_coords on task 2)
  |   Average:        0.113 MB
  Note:  These values currently only include a subset of arrays which are explicitly tracked.
  The "true" memory usage will be greater.
------------------------------------------------------------

------------------------------------------------------------
          Begin self-consistency iteration #    1

  Date     :  20190817, Time     :  154501.759
------------------------------------------------------------
  Evaluating new KS density.
  Integration grid: deviation in total charge (<rho> - N_e) =  -1.776357E-15
  Pulay mixing of updated and previous charge densities.
  Renormalizing the density to the exact electron count on the 3D integration grid.
  | Formal number of electrons (from input files) :      10.0000000000
  | Integrated number of electrons on 3D grid     :      10.0000000000
  | Charge integration error                      :       0.0000000000
  | Normalization factor for density and gradient :       1.0000000000

  Evaluating partitioned Hartree potential by multipole expansion.
  | Original multipole sum: apparent total charge =   0.964231E-14
  | Sum of charges compensated after spline to logarithmic grids =   0.159389E-05
  | Analytical far-field extrapolation by fixed multipoles:
  | Hartree multipole sum: apparent total charge =   0.848622E-14
  Summing up the Hartree potential.
  Time summed over all CPUs for potential: real work        0.049 s, elapsed        0.050 s
  | RMS charge density error from multipole expansion :   0.334792E-02

  Integrating Hamiltonian matrix: batch-based integration.
  Time summed over all CPUs for integration: real work        0.080 s, elapsed        0.084 s

  Updating Kohn-Sham eigenvalues and eigenvectors using ELSI and the (modified) LAPACK eigensolver.
  Starting LAPACK eigensolver
  Finished Cholesky decomposition
  | Time :     0.000 s
  Finished transformation to standard eigenproblem
  | Time :     0.000 s
  Finished solving standard eigenproblem
  | Time :     0.001 s
  Finished back-transformation of eigenvectors
  | Time :     0.000 s

  Obtaining occupation numbers and chemical potential using ELSI.
  | Chemical potential (Fermi level):    -2.62572074 eV
  Writing Kohn-Sham eigenvalues.

  State    Occupation    Eigenvalue [Ha]    Eigenvalue [eV]
      1       2.00000         -18.618515         -506.63556
      2       2.00000          -0.906237          -24.65997
      3       2.00000          -0.433101          -11.78527
      4       2.00000          -0.344903           -9.38530
      5       2.00000          -0.240150           -6.53481
      6       0.00000          -0.011249           -0.30609
      7       0.00000           0.088796            2.41626
      8       0.00000           0.293479            7.98596
      9       0.00000           0.341919            9.30409
     10       0.00000           0.348035            9.47052

  Highest occupied state (VBM) at     -6.53481187 eV
  | Occupation number:      2.00000000

  Lowest unoccupied state (CBM) at    -0.30609414 eV
  | Occupation number:      0.00000000

  Overall HOMO-LUMO gap:      6.22871773 eV.

  Total energy components:
  | Sum of eigenvalues            :         -41.08581196 Ha       -1118.00182667 eV
  | XC energy correction          :          -9.25582919 Ha        -251.86392686 eV
  | XC potential correction       :          11.90698257 Ha         324.00548082 eV
  | Free-atom electrostatic energy:         -35.79549830 Ha        -974.04506768 eV
  | Hartree energy correction     :          -2.16280384 Ha         -58.85288683 eV
  | Entropy correction            :           0.00000000 Ha           0.00000000 eV
  | ---------------------------
  | Total energy                  :         -76.39296072 Ha       -2078.75822723 eV
  | Total energy, T -> 0          :         -76.39296072 Ha       -2078.75822723 eV  <-- do not rely on this value for anything but (periodic) metals
  | Electronic free energy        :         -76.39296072 Ha       -2078.75822723 eV

  Derived energy quantities:
  | Kinetic energy                :          76.84596820 Ha        2091.08518798 eV
  | Electrostatic energy          :        -143.98309973 Ha       -3917.97948834 eV
  | Energy correction for multipole
  | error in Hartree potential    :           0.00066922 Ha           0.01821044 eV
  | Sum of eigenvalues per atom                           :        -372.66727556 eV
  | Total energy (T->0) per atom                          :        -692.91940908 eV  <-- do not rely on this value for anything but (periodic) metals
  | Electronic free energy per atom                       :        -692.91940908 eV

  Self-consistency convergence accuracy:
  | Change of charge density      :  0.2941E+00
  | Change of sum of eigenvalues  :  0.5815E+02 eV
  | Change of total energy        :  0.1453E+01 eV

  End self-consistency iteration #     1       :  max(cpu_time)    wall_clock(cpu1)
  | Time for this iteration                    :        0.030 s           0.030 s
  | Charge density update                      :        0.008 s           0.008 s
  | Density mixing                             :        0.001 s           0.001 s
  | Hartree multipole update                   :        0.001 s           0.001 s
  | Hartree multipole summation                :        0.008 s           0.008 s
  | Integration                                :        0.011 s           0.011 s
  | Solution of K.-S. eqns.                    :        0.000 s           0.001 s
  | Total energy evaluation                    :        0.000 s           0.000 s

  Partial memory accounting:
  | Current value for overall tracked memory usage:
  |   Minimum:        0.009 MB (on task 0)
  |   Maximum:        0.009 MB (on task 0)
  |   Average:        0.009 MB
  | Peak value for overall tracked memory usage:
  |   Minimum:        0.153 MB (on task 7 after allocating grid_partition)
  |   Maximum:        0.194 MB (on task 2 after allocating grid_partition)
  |   Average:        0.172 MB
  | Largest tracked array allocation so far:
  |   Minimum:        0.100 MB (all_coords on task 7)
  |   Maximum:        0.127 MB (all_coords on task 2)
  |   Average:        0.113 MB
  Note:  These values currently only include a subset of arrays which are explicitly tracked.
  The "true" memory usage will be greater.
------------------------------------------------------------

------------------------------------------------------------
          Begin self-consistency iteration #    2

  Date     :  20190817, Time     :  154501.789
------------------------------------------------------------
  Evaluating new KS density.
  Integration grid: deviation in total charge (<rho> - N_e) =   7.105427E-15
  Pulay mixing of updated and previous charge densities.
  Renormalizing the density to the exact electron count on the 3D integration grid.
  | Formal number of electrons (from input files) :      10.0000000000
  | Integrated number of electrons on 3D grid     :      10.0000000000
  | Charge integration error                      :       0.0000000000
  | Normalization factor for density and gradient :       1.0000000000

  Evaluating partitioned Hartree potential by multipole expansion.
  | Original multipole sum: apparent total charge =   0.934714E-14
  | Sum of charges compensated after spline to logarithmic grids =   0.118259E-05
  | Analytical far-field extrapolation by fixed multipoles:
  | Hartree multipole sum: apparent total charge =   0.919955E-14
  Summing up the Hartree potential.
  Time summed over all CPUs for potential: real work        0.045 s, elapsed        0.046 s
  | RMS charge density error from multipole expansion :   0.397250E-02

  Integrating Hamiltonian matrix: batch-based integration.
  Time summed over all CPUs for integration: real work        0.077 s, elapsed        0.079 s

  Updating Kohn-Sham eigenvalues and eigenvectors using ELSI and the (modified) LAPACK eigensolver.
  Starting LAPACK eigensolver
  Finished Cholesky decomposition
  | Time :     0.000 s
  Finished transformation to standard eigenproblem
  | Time :     0.000 s
  Finished solving standard eigenproblem
  | Time :     0.001 s
  Finished back-transformation of eigenvectors
  | Time :     0.000 s

  Obtaining occupation numbers and chemical potential using ELSI.
  | Chemical potential (Fermi level):    -6.96138783 eV
  Highest occupied state (VBM) at     -7.54242608 eV
  | Occupation number:      2.00000000

  Lowest unoccupied state (CBM) at    -0.47912613 eV
  | Occupation number:      0.00000000

  Overall HOMO-LUMO gap:      7.06329994 eV.

  Checking to see if s.c.f. parameters should be adjusted.

  Total energy components:
  | Sum of eigenvalues            :         -41.59945260 Ha       -1131.97869967 eV
  | XC energy correction          :          -9.19235059 Ha        -250.13658625 eV
  | XC potential correction       :          11.82339628 Ha         321.73098226 eV
  | Free-atom electrostatic energy:         -35.79549830 Ha        -974.04506768 eV
  | Hartree energy correction     :          -1.61520087 Ha         -43.95185180 eV
  | Entropy correction            :           0.00000000 Ha           0.00000000 eV
  | ---------------------------
  | Total energy                  :         -76.37910607 Ha       -2078.38122315 eV
  | Total energy, T -> 0          :         -76.37910607 Ha       -2078.38122315 eV  <-- do not rely on this value for anything but (periodic) metals
  | Electronic free energy        :         -76.37910607 Ha       -2078.38122315 eV

  Derived energy quantities:
  | Kinetic energy                :          76.29812304 Ha        2076.17756257 eV
  | Electrostatic energy          :        -143.48487852 Ha       -3904.42219947 eV
  | Energy correction for multipole
  | error in Hartree potential    :          -0.00117144 Ha          -0.03187663 eV
  | Sum of eigenvalues per atom                           :        -377.32623322 eV
  | Total energy (T->0) per atom                          :        -692.79374105 eV  <-- do not rely on this value for anything but (periodic) metals
  | Electronic free energy per atom                       :        -692.79374105 eV

  Self-consistency convergence accuracy:
  | Change of charge density      :  0.2172E+00
  | Change of sum of eigenvalues  : -0.1398E+02 eV
  | Change of total energy        :  0.3770E+00 eV

  End self-consistency iteration #     2       :  max(cpu_time)    wall_clock(cpu1)
  | Time for this iteration                    :        0.025 s           0.026 s
  | Charge density update                      :        0.007 s           0.007 s
  | Density mixing                             :        0.001 s           0.001 s
  | Hartree multipole update                   :        0.001 s           0.001 s
  | Hartree multipole summation                :        0.006 s           0.006 s
  | Integration                                :        0.010 s           0.010 s
  | Solution of K.-S. eqns.                    :        0.000 s           0.001 s
  | Total energy evaluation                    :        0.000 s           0.000 s

  Partial memory accounting:
  | Current value for overall tracked memory usage:
  |   Minimum:        0.010 MB (on task 0)
  |   Maximum:        0.010 MB (on task 0)
  |   Average:        0.010 MB
  | Peak value for overall tracked memory usage:
  |   Minimum:        0.153 MB (on task 7 after allocating grid_partition)
  |   Maximum:        0.194 MB (on task 2 after allocating grid_partition)
  |   Average:        0.172 MB
  | Largest tracked array allocation so far:
  |   Minimum:        0.100 MB (all_coords on task 7)
  |   Maximum:        0.127 MB (all_coords on task 2)
  |   Average:        0.113 MB
  Note:  These values currently only include a subset of arrays which are explicitly tracked.
  The "true" memory usage will be greater.
------------------------------------------------------------

------------------------------------------------------------
          Begin self-consistency iteration #    3

  Date     :  20190817, Time     :  154501.815
------------------------------------------------------------
  Evaluating new KS density.
  Integration grid: deviation in total charge (<rho> - N_e) =   1.243450E-14
  Pulay mixing of updated and previous charge densities.
  Renormalizing the density to the exact electron count on the 3D integration grid.
  | Formal number of electrons (from input files) :      10.0000000000
  | Integrated number of electrons on 3D grid     :      10.0000000000
  | Charge integration error                      :       0.0000000000
  | Normalization factor for density and gradient :       1.0000000000

  Evaluating partitioned Hartree potential by multipole expansion.
  | Original multipole sum: apparent total charge =   0.100359E-13
  | Sum of charges compensated after spline to logarithmic grids =   0.123890E-05
  | Analytical far-field extrapolation by fixed multipoles:
  | Hartree multipole sum: apparent total charge =   0.978990E-14
  Summing up the Hartree potential.
  Time summed over all CPUs for potential: real work        0.049 s, elapsed        0.049 s
  | RMS charge density error from multipole expansion :   0.647669E-02

  Integrating Hamiltonian matrix: batch-based integration.
  Time summed over all CPUs for integration: real work        0.073 s, elapsed        0.077 s

  Updating Kohn-Sham eigenvalues and eigenvectors using ELSI and the (modified) LAPACK eigensolver.
  Starting LAPACK eigensolver
  Finished Cholesky decomposition
  | Time :     0.000 s
  Finished transformation to standard eigenproblem
  | Time :     0.000 s
  Finished solving standard eigenproblem
  | Time :     0.000 s
  Finished back-transformation of eigenvectors
  | Time :     0.000 s

  Obtaining occupation numbers and chemical potential using ELSI.
  | Chemical potential (Fermi level):    -6.60860281 eV
  Highest occupied state (VBM) at     -6.96822502 eV
  | Occupation number:      2.00000000

  Lowest unoccupied state (CBM) at    -0.16410722 eV
  | Occupation number:      0.00000000

  Overall HOMO-LUMO gap:      6.80411780 eV.

  Total energy components:
  | Sum of eigenvalues            :         -41.46726502 Ha       -1128.38169258 eV
  | XC energy correction          :          -9.21452275 Ha        -250.73992167 eV
  | XC potential correction       :          11.85219430 Ha         322.51461613 eV
  | Free-atom electrostatic energy:         -35.79549830 Ha        -974.04506768 eV
  | Hartree energy correction     :          -1.75268871 Ha         -47.69308627 eV
  | Entropy correction            :           0.00000000 Ha           0.00000000 eV
  | ---------------------------
  | Total energy                  :         -76.37778049 Ha       -2078.34515207 eV
  | Total energy, T -> 0          :         -76.37778049 Ha       -2078.34515207 eV  <-- do not rely on this value for anything but (periodic) metals
  | Electronic free energy        :         -76.37778049 Ha       -2078.34515207 eV

  Derived energy quantities:
  | Kinetic energy                :          76.04935224 Ha        2069.40816489 eV
  | Electrostatic energy          :        -143.21260998 Ha       -3897.01339529 eV
  | Energy correction for multipole
  | error in Hartree potential    :          -0.00339912 Ha          -0.09249476 eV
  | Sum of eigenvalues per atom                           :        -376.12723086 eV
  | Total energy (T->0) per atom                          :        -692.78171736 eV  <-- do not rely on this value for anything but (periodic) metals
  | Electronic free energy per atom                       :        -692.78171736 eV

  Self-consistency convergence accuracy:
  | Change of charge density      :  0.7275E-01
  | Change of sum of eigenvalues  :  0.3597E+01 eV
  | Change of total energy        :  0.3607E-01 eV

  End self-consistency iteration #     3       :  max(cpu_time)    wall_clock(cpu1)
  | Time for this iteration                    :        0.026 s           0.026 s
  | Charge density update                      :        0.007 s           0.007 s
  | Density mixing                             :        0.001 s           0.001 s
  | Hartree multipole update                   :        0.001 s           0.001 s
  | Hartree multipole summation                :        0.006 s           0.007 s
  | Integration                                :        0.010 s           0.010 s
  | Solution of K.-S. eqns.                    :        0.000 s           0.000 s
  | Total energy evaluation                    :        0.000 s           0.000 s

  Partial memory accounting:
  | Current value for overall tracked memory usage:
  |   Minimum:        0.010 MB (on task 0)
  |   Maximum:        0.010 MB (on task 0)
  |   Average:        0.010 MB
  | Peak value for overall tracked memory usage:
  |   Minimum:        0.153 MB (on task 7 after allocating grid_partition)
  |   Maximum:        0.194 MB (on task 2 after allocating grid_partition)
  |   Average:        0.172 MB
  | Largest tracked array allocation so far:
  |   Minimum:        0.100 MB (all_coords on task 7)
  |   Maximum:        0.127 MB (all_coords on task 2)
  |   Average:        0.113 MB
  Note:  These values currently only include a subset of arrays which are explicitly tracked.
  The "true" memory usage will be greater.
------------------------------------------------------------

------------------------------------------------------------
          Begin self-consistency iteration #    4

  Date     :  20190817, Time     :  154501.841
------------------------------------------------------------
  Evaluating new KS density.
  Integration grid: deviation in total charge (<rho> - N_e) =   0.000000E+00
  Pulay mixing of updated and previous charge densities.
  Renormalizing the density to the exact electron count on the 3D integration grid.
  | Formal number of electrons (from input files) :      10.0000000000
  | Integrated number of electrons on 3D grid     :      10.0000000000
  | Charge integration error                      :       0.0000000000
  | Normalization factor for density and gradient :       1.0000000000

  Evaluating partitioned Hartree potential by multipole expansion.
  | Original multipole sum: apparent total charge =   0.203423E-13
  | Sum of charges compensated after spline to logarithmic grids =   0.121885E-05
  | Analytical far-field extrapolation by fixed multipoles:
  | Hartree multipole sum: apparent total charge =   0.201947E-13
  Summing up the Hartree potential.
  Time summed over all CPUs for potential: real work        0.049 s, elapsed        0.051 s
  | RMS charge density error from multipole expansion :   0.629809E-02

  Integrating Hamiltonian matrix: batch-based integration.
  Time summed over all CPUs for integration: real work        0.080 s, elapsed        0.083 s

  Updating Kohn-Sham eigenvalues and eigenvectors using ELSI and the (modified) LAPACK eigensolver.
  Starting LAPACK eigensolver
  Finished Cholesky decomposition
  | Time :     0.000 s
  Finished transformation to standard eigenproblem
  | Time :     0.000 s
  Finished solving standard eigenproblem
  | Time :     0.000 s
  Finished back-transformation of eigenvectors
  | Time :     0.000 s

  Obtaining occupation numbers and chemical potential using ELSI.
  | Chemical potential (Fermi level):    -6.67511661 eV
  Highest occupied state (VBM) at     -7.11970476 eV
  | Occupation number:      2.00000000

  Lowest unoccupied state (CBM) at    -0.22231582 eV
  | Occupation number:      0.00000000

  Overall HOMO-LUMO gap:      6.89738894 eV.

  Total energy components:
  | Sum of eigenvalues            :         -41.52696842 Ha       -1130.00630479 eV
  | XC energy correction          :          -9.20627235 Ha        -250.51541677 eV
  | XC potential correction       :          11.84140199 Ha         322.22094270 eV
  | Free-atom electrostatic energy:         -35.79549830 Ha        -974.04506768 eV
  | Hartree energy correction     :          -1.69038015 Ha         -45.99758424 eV
  | Entropy correction            :           0.00000000 Ha           0.00000000 eV
  | ---------------------------
  | Total energy                  :         -76.37771723 Ha       -2078.34343078 eV
  | Total energy, T -> 0          :         -76.37771723 Ha       -2078.34343078 eV  <-- do not rely on this value for anything but (periodic) metals
  | Electronic free energy        :         -76.37771723 Ha       -2078.34343078 eV

  Derived energy quantities:
  | Kinetic energy                :          76.02873690 Ha        2068.84719289 eV
  | Electrostatic energy          :        -143.20018178 Ha       -3896.67520690 eV
  | Energy correction for multipole
  | error in Hartree potential    :          -0.00334354 Ha          -0.09098236 eV
  | Sum of eigenvalues per atom                           :        -376.66876826 eV
  | Total energy (T->0) per atom                          :        -692.78114359 eV  <-- do not rely on this value for anything but (periodic) metals
  | Electronic free energy per atom                       :        -692.78114359 eV

  Self-consistency convergence accuracy:
  | Change of charge density      :  0.9911E-02
  | Change of sum of eigenvalues  : -0.1625E+01 eV
  | Change of total energy        :  0.1721E-02 eV

  End self-consistency iteration #     4       :  max(cpu_time)    wall_clock(cpu1)
  | Time for this iteration                    :        0.027 s           0.027 s
  | Charge density update                      :        0.007 s           0.007 s
  | Density mixing                             :        0.001 s           0.001 s
  | Hartree multipole update                   :        0.001 s           0.001 s
  | Hartree multipole summation                :        0.007 s           0.007 s
  | Integration                                :        0.010 s           0.010 s
  | Solution of K.-S. eqns.                    :        0.000 s           0.001 s
  | Total energy evaluation                    :        0.000 s           0.000 s

  Partial memory accounting:
  | Current value for overall tracked memory usage:
  |   Minimum:        0.010 MB (on task 0)
  |   Maximum:        0.010 MB (on task 0)
  |   Average:        0.010 MB
  | Peak value for overall tracked memory usage:
  |   Minimum:        0.153 MB (on task 7 after allocating grid_partition)
  |   Maximum:        0.194 MB (on task 2 after allocating grid_partition)
  |   Average:        0.172 MB
  | Largest tracked array allocation so far:
  |   Minimum:        0.100 MB (all_coords on task 7)
  |   Maximum:        0.127 MB (all_coords on task 2)
  |   Average:        0.113 MB
  Note:  These values currently only include a subset of arrays which are explicitly tracked.
  The "true" memory usage will be greater.
------------------------------------------------------------

------------------------------------------------------------
          Begin self-consistency iteration #    5

  Date     :  20190817, Time     :  154501.868
------------------------------------------------------------
  Evaluating new KS density.
  Integration grid: deviation in total charge (<rho> - N_e) =  -1.776357E-15
  Pulay mixing of updated and previous charge densities.
  Renormalizing the density to the exact electron count on the 3D integration grid.
  | Formal number of electrons (from input files) :      10.0000000000
  | Integrated number of electrons on 3D grid     :      10.0000000000
  | Charge integration error                      :      -0.0000000000
  | Normalization factor for density and gradient :       1.0000000000

  Evaluating partitioned Hartree potential by multipole expansion.
  | Original multipole sum: apparent total charge =   0.373886E-14
  | Sum of charges compensated after spline to logarithmic grids =   0.123414E-05
  | Analytical far-field extrapolation by fixed multipoles:
  | Hartree multipole sum: apparent total charge =   0.472277E-14
  Summing up the Hartree potential.
  Time summed over all CPUs for potential: real work        0.047 s, elapsed        0.048 s
  | RMS charge density error from multipole expansion :   0.635218E-02

  Integrating Hamiltonian matrix: batch-based integration.
  Time summed over all CPUs for integration: real work        0.079 s, elapsed        0.082 s

  Updating Kohn-Sham eigenvalues and eigenvectors using ELSI and the (modified) LAPACK eigensolver.
  Starting LAPACK eigensolver
  Finished Cholesky decomposition
  | Time :     0.000 s
  Finished transformation to standard eigenproblem
  | Time :     0.000 s
  Finished solving standard eigenproblem
  | Time :     0.000 s
  Finished back-transformation of eigenvectors
  | Time :     0.000 s

  Obtaining occupation numbers and chemical potential using ELSI.
  | Chemical potential (Fermi level):    -6.66255436 eV
  Highest occupied state (VBM) at     -7.09419550 eV
  | Occupation number:      2.00000000

  Lowest unoccupied state (CBM) at    -0.21250256 eV
  | Occupation number:      0.00000000

  Overall HOMO-LUMO gap:      6.88169294 eV.

  Total energy components:
  | Sum of eigenvalues            :         -41.51846540 Ha       -1129.77492596 eV
  | XC energy correction          :          -9.20741063 Ha        -250.54639100 eV
  | XC potential correction       :          11.84290169 Ha         322.26175141 eV
  | Free-atom electrostatic energy:         -35.79549830 Ha        -974.04506768 eV
  | Hartree energy correction     :          -1.69924399 Ha         -46.23878159 eV
  | Entropy correction            :           0.00000000 Ha           0.00000000 eV
  | ---------------------------
  | Total energy                  :         -76.37771664 Ha       -2078.34341482 eV
  | Total energy, T -> 0          :         -76.37771664 Ha       -2078.34341482 eV  <-- do not rely on this value for anything but (periodic) metals
  | Electronic free energy        :         -76.37771664 Ha       -2078.34341482 eV

  Derived energy quantities:
  | Kinetic energy                :          76.02848255 Ha        2068.84027169 eV
  | Electrostatic energy          :        -143.19878856 Ha       -3896.63729551 eV
  | Energy correction for multipole
  | error in Hartree potential    :          -0.00339321 Ha          -0.09233404 eV
  | Sum of eigenvalues per atom                           :        -376.59164199 eV
  | Total energy (T->0) per atom                          :        -692.78113827 eV  <-- do not rely on this value for anything but (periodic) metals
  | Electronic free energy per atom                       :        -692.78113827 eV

  Self-consistency convergence accuracy:
  | Change of charge density      :  0.1463E-02
  | Change of sum of eigenvalues  :  0.2314E+00 eV
  | Change of total energy        :  0.1596E-04 eV

  End self-consistency iteration #     5       :  max(cpu_time)    wall_clock(cpu1)
  | Time for this iteration                    :        0.026 s           0.026 s
  | Charge density update                      :        0.006 s           0.007 s
  | Density mixing                             :        0.001 s           0.001 s
  | Hartree multipole update                   :        0.001 s           0.001 s
  | Hartree multipole summation                :        0.006 s           0.007 s
  | Integration                                :        0.010 s           0.010 s
  | Solution of K.-S. eqns.                    :        0.000 s           0.000 s
  | Total energy evaluation                    :        0.000 s           0.000 s

  Partial memory accounting:
  | Current value for overall tracked memory usage:
  |   Minimum:        0.010 MB (on task 0)
  |   Maximum:        0.010 MB (on task 0)
  |   Average:        0.010 MB
  | Peak value for overall tracked memory usage:
  |   Minimum:        0.153 MB (on task 7 after allocating grid_partition)
  |   Maximum:        0.194 MB (on task 2 after allocating grid_partition)
  |   Average:        0.172 MB
  | Largest tracked array allocation so far:
  |   Minimum:        0.100 MB (all_coords on task 7)
  |   Maximum:        0.127 MB (all_coords on task 2)
  |   Average:        0.113 MB
  Note:  These values currently only include a subset of arrays which are explicitly tracked.
  The "true" memory usage will be greater.
------------------------------------------------------------

------------------------------------------------------------
          Begin self-consistency iteration #    6

  Date     :  20190817, Time     :  154501.895
------------------------------------------------------------
  Evaluating new KS density.
  Integration grid: deviation in total charge (<rho> - N_e) =   8.881784E-15
  Pulay mixing of updated and previous charge densities.
  Renormalizing the density to the exact electron count on the 3D integration grid.
  | Formal number of electrons (from input files) :      10.0000000000
  | Integrated number of electrons on 3D grid     :      10.0000000000
  | Charge integration error                      :       0.0000000000
  | Normalization factor for density and gradient :       1.0000000000

  Evaluating partitioned Hartree potential by multipole expansion.
  | Original multipole sum: apparent total charge =   0.124219E-13
  | Sum of charges compensated after spline to logarithmic grids =   0.123568E-05
  | Analytical far-field extrapolation by fixed multipoles:
  | Hartree multipole sum: apparent total charge =   0.117085E-13
  Summing up the Hartree potential.
  Time summed over all CPUs for potential: real work        0.049 s, elapsed        0.053 s
  | RMS charge density error from multipole expansion :   0.635301E-02

  Integrating Hamiltonian matrix: batch-based integration.
  Time summed over all CPUs for integration: real work        0.079 s, elapsed        0.081 s

  Updating Kohn-Sham eigenvalues and eigenvectors using ELSI and the (modified) LAPACK eigensolver.
  Starting LAPACK eigensolver
  Finished Cholesky decomposition
  | Time :     0.000 s
  Finished transformation to standard eigenproblem
  | Time :     0.000 s
  Finished solving standard eigenproblem
  | Time :     0.000 s
  Finished back-transformation of eigenvectors
  | Time :     0.000 s

  Obtaining occupation numbers and chemical potential using ELSI.
  | Chemical potential (Fermi level):    -6.66321908 eV
  Highest occupied state (VBM) at     -7.09605663 eV
  | Occupation number:      2.00000000

  Lowest unoccupied state (CBM) at    -0.21282829 eV
  | Occupation number:      0.00000000

  Overall HOMO-LUMO gap:      6.88322835 eV.

  Total energy components:
  | Sum of eigenvalues            :         -41.51931878 Ha       -1129.79814754 eV
  | XC energy correction          :          -9.20730127 Ha        -250.54341514 eV
  | XC potential correction       :          11.84276004 Ha         322.25789692 eV
  | Free-atom electrostatic energy:         -35.79549830 Ha        -974.04506768 eV
  | Hartree energy correction     :          -1.69835828 Ha         -46.21468025 eV
  | Entropy correction            :           0.00000000 Ha           0.00000000 eV
  | ---------------------------
  | Total energy                  :         -76.37771660 Ha       -2078.34341369 eV
  | Total energy, T -> 0          :         -76.37771660 Ha       -2078.34341369 eV  <-- do not rely on this value for anything but (periodic) metals
  | Electronic free energy        :         -76.37771660 Ha       -2078.34341369 eV

  Derived energy quantities:
  | Kinetic energy                :          76.02828283 Ha        2068.83483685 eV
  | Electrostatic energy          :        -143.19869816 Ha       -3896.63483540 eV
  | Energy correction for multipole
  | error in Hartree potential    :          -0.00339688 Ha          -0.09243384 eV
  | Sum of eigenvalues per atom                           :        -376.59938251 eV
  | Total energy (T->0) per atom                          :        -692.78113790 eV  <-- do not rely on this value for anything but (periodic) metals
  | Electronic free energy per atom                       :        -692.78113790 eV

  Self-consistency convergence accuracy:
  | Change of charge density      :  0.2384E-03
  | Change of sum of eigenvalues  : -0.2322E-01 eV
  | Change of total energy        :  0.1129E-05 eV

  End self-consistency iteration #     6       :  max(cpu_time)    wall_clock(cpu1)
  | Time for this iteration                    :        0.027 s           0.027 s
  | Charge density update                      :        0.007 s           0.006 s
  | Density mixing                             :        0.002 s           0.002 s
  | Hartree multipole update                   :        0.001 s           0.001 s
  | Hartree multipole summation                :        0.007 s           0.007 s
  | Integration                                :        0.010 s           0.010 s
  | Solution of K.-S. eqns.                    :        0.000 s           0.000 s
  | Total energy evaluation                    :        0.000 s           0.001 s

  Partial memory accounting:
  | Current value for overall tracked memory usage:
  |   Minimum:        0.010 MB (on task 0)
  |   Maximum:        0.010 MB (on task 0)
  |   Average:        0.010 MB
  | Peak value for overall tracked memory usage:
  |   Minimum:        0.153 MB (on task 7 after allocating grid_partition)
  |   Maximum:        0.194 MB (on task 2 after allocating grid_partition)
  |   Average:        0.172 MB
  | Largest tracked array allocation so far:
  |   Minimum:        0.100 MB (all_coords on task 7)
  |   Maximum:        0.127 MB (all_coords on task 2)
  |   Average:        0.113 MB
  Note:  These values currently only include a subset of arrays which are explicitly tracked.
  The "true" memory usage will be greater.
------------------------------------------------------------

------------------------------------------------------------
          Begin self-consistency iteration #    7

  Date     :  20190817, Time     :  154501.922
------------------------------------------------------------
  Evaluating new KS density.
  Integration grid: deviation in total charge (<rho> - N_e) =   1.243450E-14
  Pulay mixing of updated and previous charge densities.
  Renormalizing the density to the exact electron count on the 3D integration grid.
  | Formal number of electrons (from input files) :      10.0000000000
  | Integrated number of electrons on 3D grid     :      10.0000000000
  | Charge integration error                      :       0.0000000000
  | Normalization factor for density and gradient :       1.0000000000

  Evaluating partitioned Hartree potential by multipole expansion.
  | Original multipole sum: apparent total charge =  -0.934714E-15
  | Sum of charges compensated after spline to logarithmic grids =   0.123560E-05
  | Analytical far-field extrapolation by fixed multipoles:
  | Hartree multipole sum: apparent total charge =  -0.108230E-14
  Summing up the Hartree potential.
  Time summed over all CPUs for potential: real work        0.048 s, elapsed        0.049 s
  | RMS charge density error from multipole expansion :   0.635368E-02

  Integrating Hamiltonian matrix: batch-based integration.
  Time summed over all CPUs for integration: real work        0.079 s, elapsed        0.081 s

  Updating Kohn-Sham eigenvalues and eigenvectors using ELSI and the (modified) LAPACK eigensolver.
  Starting LAPACK eigensolver
  Finished Cholesky decomposition
  | Time :     0.000 s
  Finished transformation to standard eigenproblem
  | Time :     0.000 s
  Finished solving standard eigenproblem
  | Time :     0.000 s
  Finished back-transformation of eigenvectors
  | Time :     0.000 s

  Obtaining occupation numbers and chemical potential using ELSI.
  | Chemical potential (Fermi level):    -6.66283166 eV
  Highest occupied state (VBM) at     -7.09519597 eV
  | Occupation number:      2.00000000

  Lowest unoccupied state (CBM) at    -0.21243938 eV
  | Occupation number:      0.00000000

  Overall HOMO-LUMO gap:      6.88275660 eV.

  Total energy components:
  | Sum of eigenvalues            :         -41.51892588 Ha       -1129.78745628 eV
  | XC energy correction          :          -9.20736091 Ha        -250.54503802 eV
  | XC potential correction       :          11.84283771 Ha         322.26001063 eV
  | Free-atom electrostatic energy:         -35.79549830 Ha        -974.04506768 eV
  | Hartree energy correction     :          -1.69876923 Ha         -46.22586262 eV
  | Entropy correction            :           0.00000000 Ha           0.00000000 eV
  | ---------------------------
  | Total energy                  :         -76.37771661 Ha       -2078.34341398 eV
  | Total energy, T -> 0          :         -76.37771661 Ha       -2078.34341398 eV  <-- do not rely on this value for anything but (periodic) metals
  | Electronic free energy        :         -76.37771661 Ha       -2078.34341398 eV

  Derived energy quantities:
  | Kinetic energy                :          76.02859077 Ha        2068.84321651 eV
  | Electrostatic energy          :        -143.19894647 Ha       -3896.64159247 eV
  | Energy correction for multipole
  | error in Hartree potential    :          -0.00339621 Ha          -0.09241566 eV
  | Sum of eigenvalues per atom                           :        -376.59581876 eV
  | Total energy (T->0) per atom                          :        -692.78113799 eV  <-- do not rely on this value for anything but (periodic) metals
  | Electronic free energy per atom                       :        -692.78113799 eV

  Self-consistency convergence accuracy:
  | Change of charge density      :  0.4666E-04
  | Change of sum of eigenvalues  :  0.1069E-01 eV
  | Change of total energy        : -0.2816E-06 eV

  End self-consistency iteration #     7       :  max(cpu_time)    wall_clock(cpu1)
  | Time for this iteration                    :        0.026 s           0.026 s
  | Charge density update                      :        0.006 s           0.006 s
  | Density mixing                             :        0.002 s           0.002 s
  | Hartree multipole update                   :        0.001 s           0.001 s
  | Hartree multipole summation                :        0.006 s           0.006 s
  | Integration                                :        0.010 s           0.010 s
  | Solution of K.-S. eqns.                    :        0.000 s           0.001 s
  | Total energy evaluation                    :        0.000 s           0.000 s

  Partial memory accounting:
  | Current value for overall tracked memory usage:
  |   Minimum:        0.010 MB (on task 0)
  |   Maximum:        0.010 MB (on task 0)
  |   Average:        0.010 MB
  | Peak value for overall tracked memory usage:
  |   Minimum:        0.153 MB (on task 7 after allocating grid_partition)
  |   Maximum:        0.194 MB (on task 2 after allocating grid_partition)
  |   Average:        0.172 MB
  | Largest tracked array allocation so far:
  |   Minimum:        0.100 MB (all_coords on task 7)
  |   Maximum:        0.127 MB (all_coords on task 2)
  |   Average:        0.113 MB
  Note:  These values currently only include a subset of arrays which are explicitly tracked.
  The "true" memory usage will be greater.
------------------------------------------------------------

------------------------------------------------------------
          Begin self-consistency iteration #    8

  Date     :  20190817, Time     :  154501.948
------------------------------------------------------------
  Evaluating new KS density.
  Integration grid: deviation in total charge (<rho> - N_e) =   1.776357E-15
  Pulay mixing of updated and previous charge densities.
  Renormalizing the density to the exact electron count on the 3D integration grid.
  | Formal number of electrons (from input files) :      10.0000000000
  | Integrated number of electrons on 3D grid     :      10.0000000000
  | Charge integration error                      :       0.0000000000
  | Normalization factor for density and gradient :       1.0000000000

  Evaluating partitioned Hartree potential by multipole expansion.
  | Original multipole sum: apparent total charge =   0.324690E-14
  | Sum of charges compensated after spline to logarithmic grids =   0.123562E-05
  | Analytical far-field extrapolation by fixed multipoles:
  | Hartree multipole sum: apparent total charge =   0.341909E-14
  Summing up the Hartree potential.
  Time summed over all CPUs for potential: real work        0.048 s, elapsed        0.050 s
  | RMS charge density error from multipole expansion :   0.635344E-02

  Integrating Hamiltonian matrix: batch-based integration.
  Time summed over all CPUs for integration: real work        0.079 s, elapsed        0.082 s

  Updating Kohn-Sham eigenvalues and eigenvectors using ELSI and the (modified) LAPACK eigensolver.
  Starting LAPACK eigensolver
  Finished Cholesky decomposition
  | Time :     0.000 s
  Finished transformation to standard eigenproblem
  | Time :     0.000 s
  Finished solving standard eigenproblem
  | Time :     0.000 s
  Finished back-transformation of eigenvectors
  | Time :     0.000 s

  Obtaining occupation numbers and chemical potential using ELSI.
  | Chemical potential (Fermi level):    -6.66296515 eV
  Highest occupied state (VBM) at     -7.09552605 eV
  | Occupation number:      2.00000000

  Lowest unoccupied state (CBM) at    -0.21256860 eV
  | Occupation number:      0.00000000

  Overall HOMO-LUMO gap:      6.88295745 eV.

  Total energy components:
  | Sum of eigenvalues            :         -41.51906667 Ha       -1129.79128730 eV
  | XC energy correction          :          -9.20734114 Ha        -250.54449992 eV
  | XC potential correction       :          11.84281191 Ha         322.25930845 eV
  | Free-atom electrostatic energy:         -35.79549830 Ha        -974.04506768 eV
  | Hartree energy correction     :          -1.69862240 Ha         -46.22186736 eV
  | Entropy correction            :           0.00000000 Ha           0.00000000 eV
  | ---------------------------
  | Total energy                  :         -76.37771661 Ha       -2078.34341381 eV
  | Total energy, T -> 0          :         -76.37771661 Ha       -2078.34341381 eV  <-- do not rely on this value for anything but (periodic) metals
  | Electronic free energy        :         -76.37771661 Ha       -2078.34341381 eV

  Derived energy quantities:
  | Kinetic energy                :          76.02851202 Ha        2068.84107348 eV
  | Electrostatic energy          :        -143.19888749 Ha       -3896.63998737 eV
  | Energy correction for multipole
  | error in Hartree potential    :          -0.00339636 Ha          -0.09241965 eV
  | Sum of eigenvalues per atom                           :        -376.59709577 eV
  | Total energy (T->0) per atom                          :        -692.78113794 eV  <-- do not rely on this value for anything but (periodic) metals
  | Electronic free energy per atom                       :        -692.78113794 eV

  Self-consistency convergence accuracy:
  | Change of charge density      :  0.2974E-04
  | Change of sum of eigenvalues  : -0.3831E-02 eV
  | Change of total energy        :  0.1619E-06 eV

  End self-consistency iteration #     8       :  max(cpu_time)    wall_clock(cpu1)
  | Time for this iteration                    :        0.027 s           0.027 s
  | Charge density update                      :        0.007 s           0.007 s
  | Density mixing                             :        0.001 s           0.001 s
  | Hartree multipole update                   :        0.001 s           0.002 s
  | Hartree multipole summation                :        0.006 s           0.006 s
  | Integration                                :        0.010 s           0.010 s
  | Solution of K.-S. eqns.                    :        0.001 s           0.001 s
  | Total energy evaluation                    :        0.000 s           0.000 s

  Partial memory accounting:
  | Current value for overall tracked memory usage:
  |   Minimum:        0.010 MB (on task 0)
  |   Maximum:        0.010 MB (on task 0)
  |   Average:        0.010 MB
  | Peak value for overall tracked memory usage:
  |   Minimum:        0.153 MB (on task 7 after allocating grid_partition)
  |   Maximum:        0.194 MB (on task 2 after allocating grid_partition)
  |   Average:        0.172 MB
  | Largest tracked array allocation so far:
  |   Minimum:        0.100 MB (all_coords on task 7)
  |   Maximum:        0.127 MB (all_coords on task 2)
  |   Average:        0.113 MB
  Note:  These values currently only include a subset of arrays which are explicitly tracked.
  The "true" memory usage will be greater.
------------------------------------------------------------

------------------------------------------------------------
          Begin self-consistency iteration #    9

  Date     :  20190817, Time     :  154501.976
------------------------------------------------------------
  Evaluating new KS density.
  Integration grid: deviation in total charge (<rho> - N_e) =   5.329071E-15
  Pulay mixing of updated and previous charge densities.
  Renormalizing the density to the exact electron count on the 3D integration grid.
  | Formal number of electrons (from input files) :      10.0000000000
  | Integrated number of electrons on 3D grid     :      10.0000000000
  | Charge integration error                      :       0.0000000000
  | Normalization factor for density and gradient :       1.0000000000

  Evaluating partitioned Hartree potential by multipole expansion.
  | Original multipole sum: apparent total charge =   0.120529E-14
  | Sum of charges compensated after spline to logarithmic grids =   0.123563E-05
  | Analytical far-field extrapolation by fixed multipoles:
  | Hartree multipole sum: apparent total charge =   0.639541E-15
  Summing up the Hartree potential.
  Time summed over all CPUs for potential: real work        0.048 s, elapsed        0.049 s
  | RMS charge density error from multipole expansion :   0.635345E-02

  Integrating Hamiltonian matrix: batch-based integration.
  Time summed over all CPUs for integration: real work        0.078 s, elapsed        0.080 s

  Updating Kohn-Sham eigenvalues and eigenvectors using ELSI and the (modified) LAPACK eigensolver.
  Starting LAPACK eigensolver
  Finished Cholesky decomposition
  | Time :     0.000 s
[...]
  | Change of sum of eigenvalues  : -0.4989E-06 eV
  | Change of total energy        : -0.2552E-08 eV
  | Change of forces              :  0.1009E+02 eV/A

  End self-consistency iteration #     6       :  max(cpu_time)    wall_clock(cpu1)
  | Time for this iteration                    :        0.038 s           0.038 s
  | Charge density & force component update    :        0.007 s           0.007 s
  | Density mixing                             :        0.001 s           0.001 s
  | Hartree multipole update                   :        0.001 s           0.001 s
  | Hartree multipole summation                :        0.018 s           0.018 s
  | Integration                                :        0.010 s           0.010 s
  | Solution of K.-S. eqns.                    :        0.000 s           0.000 s
  | Total energy evaluation                    :        0.000 s           0.001 s

  Partial memory accounting:
  | Current value for overall tracked memory usage:
  |   Minimum:        0.012 MB (on task 0)
  |   Maximum:        0.012 MB (on task 0)
  |   Average:        0.012 MB
  | Peak value for overall tracked memory usage:
  |   Minimum:        0.355 MB (on task 0 after allocating hessian_basis_wave)
  |   Maximum:        0.355 MB (on task 0 after allocating hessian_basis_wave)
  |   Average:        0.355 MB
  | Largest tracked array allocation so far:
  |   Minimum:        0.188 MB (hessian_basis_wave on task 0)
  |   Maximum:        0.188 MB (hessian_basis_wave on task 0)
  |   Average:        0.188 MB
  Note:  These values currently only include a subset of arrays which are explicitly tracked.
  The "true" memory usage will be greater.
------------------------------------------------------------

------------------------------------------------------------
          Begin self-consistency iteration #    7

  Date     :  20190817, Time     :  154503.286
------------------------------------------------------------
  Evaluating new KS density and force components.
  Integration grid: deviation in total charge (<rho> - N_e) =   8.881784E-15
  Pulay mixing of updated and previous charge densities.
  Renormalizing the density to the exact electron count on the 3D integration grid.
  | Formal number of electrons (from input files) :      10.0000000000
  | Integrated number of electrons on 3D grid     :      10.0000000000
  | Charge integration error                      :      -0.0000000000
  | Normalization factor for density and gradient :       1.0000000000

  Evaluating partitioned Hartree potential by multipole expansion.
  | Original multipole sum: apparent total charge =   0.737932E-14
  | Sum of charges compensated after spline to logarithmic grids =   0.127550E-05
  | Analytical far-field extrapolation by fixed multipoles:
  | Hartree multipole sum: apparent total charge =   0.740392E-14
  Summing up the Hartree potential.
  Time summed over all CPUs for potential: real work        0.134 s, elapsed        0.142 s
  | RMS charge density error from multipole expansion :   0.648198E-02

  Integrating Hamiltonian matrix: batch-based integration.
  Time summed over all CPUs for integration: real work        0.078 s, elapsed        0.081 s

  Updating Kohn-Sham eigenvalues and eigenvectors using ELSI and the (modified) LAPACK eigensolver.
  Starting LAPACK eigensolver
  Finished Cholesky decomposition
  | Time :     0.000 s
  Finished transformation to standard eigenproblem
  | Time :     0.000 s
  Finished solving standard eigenproblem
  | Time :     0.000 s
  Finished back-transformation of eigenvectors
  | Time :     0.000 s

  Obtaining occupation numbers and chemical potential using ELSI.
  | Chemical potential (Fermi level):    -6.43524063 eV
  Highest occupied state (VBM) at     -7.07914710 eV
  | Occupation number:      2.00000000

  Lowest unoccupied state (CBM) at     0.03878745 eV
  | Occupation number:      0.00000000

  Overall HOMO-LUMO gap:      7.11793454 eV.

  Total energy components:
  | Sum of eigenvalues            :         -41.52174927 Ha       -1129.86428441 eV
  | XC energy correction          :          -9.22985328 Ha        -251.15708661 eV
  | XC potential correction       :          11.87251859 Ha         323.06766836 eV
  | Free-atom electrostatic energy:         -35.69232859 Ha        -971.23767690 eV
  | Hartree energy correction     :          -1.81194141 Ha         -49.30543452 eV
  | Entropy correction            :           0.00000000 Ha           0.00000000 eV
  | ---------------------------
  | Total energy                  :         -76.38335396 Ha       -2078.49681407 eV
  | Total energy, T -> 0          :         -76.38335396 Ha       -2078.49681407 eV  <-- do not rely on this value for anything but (periodic) metals
  | Electronic free energy        :         -76.38335396 Ha       -2078.49681407 eV

  Derived energy quantities:
  | Kinetic energy                :          76.08259412 Ha        2070.31272232 eV
  | Electrostatic energy          :        -143.23609480 Ha       -3897.65244978 eV
  | Energy correction for multipole
  | error in Hartree potential    :          -0.00342223 Ha          -0.09312353 eV
  | Sum of eigenvalues per atom                           :        -376.62142814 eV
  | Total energy (T->0) per atom                          :        -692.83227136 eV  <-- do not rely on this value for anything but (periodic) metals
  | Electronic free energy per atom                       :        -692.83227136 eV

  atomic forces [eV/Ang]:
  -----------------------
  atom #    1
   Hellmann-Feynman              :  0.753587E-12  0.175506E+02 -0.745472E-13
   Ionic forces                  :  0.000000E+00  0.000000E+00  0.000000E+00
   Multipole                     :  0.335404E-13 -0.935492E-01  0.199146E-13
   Pulay + GGA                   :  0.667953E-12 -0.174572E+02  0.131307E-12
   ----------------------------------------------------------------
   Total forces(   1)            :  0.145508E-11 -0.171700E-03  0.766743E-13
  atom #    2
   Hellmann-Feynman              :  0.294627E+00 -0.305827E+00  0.126711E-13
   Ionic forces                  :  0.000000E+00  0.000000E+00  0.000000E+00
   Multipole                     : -0.441203E-02 -0.314294E-01 -0.373538E-15
   Pulay + GGA                   : -0.290376E+00  0.337218E+00 -0.116298E-13
   ----------------------------------------------------------------
   Total forces(   2)            : -0.161159E-03 -0.392535E-04  0.667733E-15
  atom #    3
   Hellmann-Feynman              : -0.294627E+00 -0.305827E+00 -0.430917E-15
   Ionic forces                  :  0.000000E+00  0.000000E+00  0.000000E+00
   Multipole                     :  0.441203E-02 -0.314294E-01  0.111504E-15
   Pulay + GGA                   :  0.290376E+00  0.337218E+00  0.108716E-14
   ----------------------------------------------------------------
   Total forces(   3)            :  0.161159E-03 -0.392535E-04  0.767749E-15


  Self-consistency convergence accuracy:
  | Change of charge density      :  0.2641E-08
  | Change of sum of eigenvalues  :  0.4862E-07 eV
  | Change of total energy        :  0.9281E-11 eV
  | Change of forces              :  0.2145E-06 eV/A

  Writing Kohn-Sham eigenvalues.

  State    Occupation    Eigenvalue [Ha]    Eigenvalue [eV]
      1       2.00000         -18.759847         -510.48142
      2       2.00000          -0.923857          -25.13943
      3       2.00000          -0.478678          -13.02549
      4       2.00000          -0.338338           -9.20665
      5       2.00000          -0.260154           -7.07915
      6       0.00000           0.001425            0.03879
      7       0.00000           0.101629            2.76547
      8       0.00000           0.291368            7.92853
      9       0.00000           0.327893            8.92242
     10       0.00000           0.361037            9.82431

  Highest occupied state (VBM) at     -7.07914710 eV
  | Occupation number:      2.00000000

  Lowest unoccupied state (CBM) at     0.03878745 eV
  | Occupation number:      0.00000000

  Overall HOMO-LUMO gap:      7.11793454 eV.

  Self-consistency cycle converged.

  End self-consistency iteration #     7       :  max(cpu_time)    wall_clock(cpu1)
  | Time for this iteration                    :        0.053 s           0.053 s
  | Charge density & force component update    :        0.021 s           0.021 s
  | Density mixing                             :        0.001 s           0.002 s
  | Hartree multipole update                   :        0.001 s           0.001 s
  | Hartree multipole summation                :        0.018 s           0.018 s
  | Integration                                :        0.010 s           0.010 s
  | Solution of K.-S. eqns.                    :        0.000 s           0.000 s
  | Total energy evaluation                    :        0.000 s           0.001 s

  Partial memory accounting:
  | Current value for overall tracked memory usage:
  |   Minimum:        0.012 MB (on task 0)
  |   Maximum:        0.012 MB (on task 0)
  |   Average:        0.012 MB
  | Peak value for overall tracked memory usage:
  |   Minimum:        0.355 MB (on task 0 after allocating hessian_basis_wave)
  |   Maximum:        0.355 MB (on task 0 after allocating hessian_basis_wave)
  |   Average:        0.355 MB
  | Largest tracked array allocation so far:
  |   Minimum:        0.188 MB (hessian_basis_wave on task 0)
  |   Maximum:        0.188 MB (hessian_basis_wave on task 0)
  |   Average:        0.188 MB
  Note:  These values currently only include a subset of arrays which are explicitly tracked.
  The "true" memory usage will be greater.
------------------------------------------------------------
  Removing unitary transformations (pure translations, rotations) from forces on atoms.
  Atomic forces before filtering:
  | Net force on center of mass :   0.112380E-11 -0.250207E-03  0.781098E-13 eV/A
  | Net torque on center of mass:   0.302457E-13  0.767603E-16 -0.432542E-12 eV
  Atomic forces after filtering:
  | Net force on center of mass :   0.000000E+00  0.544452E-19 -0.202824E-28 eV/A
  | Net torque on center of mass:  -0.201910E-29  0.778319E-29  0.115245E-19 eV

  Energy and forces in a compact form:
  | Total energy uncorrected      :         -0.207849681406870E+04 eV
  | Total energy corrected        :         -0.207849681406870E+04 eV  <-- do not rely on this value for anything but (periodic) metals
  | Electronic free energy        :         -0.207849681406870E+04 eV
  Total atomic forces (unitary forces cleaned) [eV/Ang]:
  |    1          0.958834174547507E-12         -0.882974861174268E-04         -0.101412140410332E-28
  |    2         -0.161158713787944E-03          0.441487434318204E-04         -0.101412140410332E-28
  |    3          0.161158712829109E-03          0.441487426856064E-04          0.000000000000000E+00

  ------------------------------------ 
  Start decomposition of the XC Energy 
  ------------------------------------ 
  X and C from original XC functional choice 
  Hartree-Fock Energy :          0.000000000 Ha              0.000000000 eV
  X Energy            :         -8.904823607 Ha           -242.312579072 eV
  C Energy            :         -0.325029678 Ha             -8.844507533 eV
  Total XC Energy     :         -9.229853285 Ha           -251.157086605 eV
  ------------------------------------ 
  LDA X and C from self-consistent density 
  X Energy LDA        :         -8.090203361 Ha           -220.145634352 eV
  C Energy LDA        :         -0.659213075 Ha            -17.938100444 eV
  ------------------------------------ 
  End decomposition of the XC Energy 
  ------------------------------------ 

------------------------------------------------------------
  Relaxation / MD: End force evaluation.       :  max(cpu_time)    wall_clock(cpu1)
  | Time for this force evaluation             :        0.245 s           0.245 s

------------------------------------------------------------
  Geometry optimization: Attempting to predict improved coordinates.

  Removing unitary transformations (pure translations, rotations) from forces on atoms.
  Atomic forces before filtering:
  | Net force on center of mass :   0.000000E+00  0.544452E-19 -0.202824E-28 eV/A
  | Net torque on center of mass:  -0.201910E-29  0.778319E-29  0.115245E-19 eV
  Atomic forces after filtering:
  | Net force on center of mass :   0.000000E+00  0.000000E+00  0.450360E-44 eV/A
  | Net torque on center of mass:   0.179286E-44 -0.172782E-44  0.172867E-19 eV
  Net remaining forces (excluding translations, rotations) in present geometry:
  || Forces on atoms   || =   0.161159E-03 eV/A.
  Maximum force component is  0.161159E-03 eV/A.
  Present geometry is converged.

------------------------------------------------------------
  Final atomic structure:
                         x [A]             y [A]             z [A]
            atom        -0.00000000       -0.07313563       -0.00000000  O
            atom         0.76748085       -0.67043218       -0.00000000  H
            atom        -0.76748085       -0.67043218        0.00000000  H
------------------------------------------------------------
  |------------------------------------------------------
  | Final ELSI Output
  |------------------------------------------------------
  |
  | Physical Properties
  |   Number of electrons       :        0.10000000E+02
  |   Number of states          :                    10
  |
  | Matrix Properties
  |   Matrix format             :           BLACS_DENSE
  |   Number of basis functions :                    24
  |
  | Computational Details
  |   Parallel mode             :           SINGLE_PROC
  |   Solver requested          :                LAPACK
  |   Number of ELSI calls      :                    45
  |
  |------------------------------------------------------
  | ELSI Project (c)  elsi-interchange.org
  |------------------------------------------------------

------------------------------------------------------------------------------
  Final output of selected total energy values:

  The following output summarizes some interesting total energy values
  at the end of a run (AFTER all relaxation, molecular dynamics, etc.).

  | Total energy of the DFT / Hartree-Fock s.c.f. calculation      :          -2078.496814069 eV
  | Final zero-broadening corrected energy (caution - metals only) :          -2078.496814069 eV
  | For reference only, the value of 1 Hartree used in FHI-aims is :             27.211384500 eV

  Before relying on these values, please be sure to understand exactly which
  total energy value is referred to by a given number. Different objects may
  all carry the same name 'total energy'. Definitions:

  Total energy of the DFT / Hartree-Fock s.c.f. calculation:
  | Note that this energy does not include ANY quantities calculated after the
  | s.c.f. cycle, in particular not ANY RPA, MP2, etc. many-body perturbation terms.

  Final zero-broadening corrected energy:
  | For metallic systems only, a broadening of the occupation numbers at the Fermi
  | level can be extrapolated back to zero broadening by an electron-gas inspired
  | formula. For all systems that are not real metals, this value can be
  | meaningless and should be avoided.

------------------------------------------------------------------------------
  Methods described in the following list of references were used in this FHI-aims run.
  If you publish the results, please make sure to cite these reference if they apply.
  FHI-aims is an academic code, and for our developers (often, Ph.D. students
  and postdocs), scientific credit in the community is essential.
  Thank you for helping us!

  For any use of FHI-aims, please cite:

    Volker Blum, Ralf Gehrke, Felix Hanke, Paula Havu, Ville Havu,
    Xinguo Ren, Karsten Reuter, and Matthias Scheffler
    'Ab initio molecular simulations with numeric atom-centered orbitals'
    Computer Physics Communications 180, 2175-2196 (2009)
    http://dx.doi.org/10.1016/j.cpc.2009.06.022


  The ELSI infrastructure was used in your run to solve the Kohn-Sham electronic structure.
  Please check out http://elsi-interchange.org to learn more.
  If scalability is important for your project, please acknowledge ELSI by citing:

    V. W-z. Yu, F. Corsetti, A. Garcia, W. P. Huhn, M. Jacquelin, W. Jia,
    B. Lange, L. Lin, J. Lu, W. Mi, A. Seifitokaldani, A. Vazquez-Mayagoitia,
    C. Yang, H. Yang, and V. Blum
    'ELSI: A unified software interface for Kohn-Sham electronic structure solvers'
    Computer Physics Communications 222, 267-285 (2018).
    http://dx.doi.org/10.1016/j.cpc.2017.09.007


  For the real-space grid partitioning and parallelization used in this calculation, please cite:

    Ville Havu, Volker Blum, Paula Havu, and Matthias Scheffler,
    'Efficient O(N) integration for all-electron electronic structure calculation'
    'using numerically tabulated basis functions'
    Journal of Computational Physics 228, 8367-8379 (2009).
    http://dx.doi.org/10.1016/j.jcp.2009.08.008

  Of course, there are many other important community references, e.g., those cited in the
  above references. Our list is limited to references that describe implementations in the
  FHI-aims code. The reason is purely practical (length of this list) - please credit others as well.

------------------------------------------------------------
          Leaving FHI-aims.
          Date     :  20190817, Time     :  154503.346

          Computational steps:
          | Number of self-consistency cycles          :           44
          | Number of SCF (re)initializations          :            5
          | Number of relaxation steps                 :            4

          Detailed time accounting                     :  max(cpu_time)    wall_clock(cpu1)
          | Total time                                 :        1.680 s           1.797 s
          | Preparation time                           :        0.101 s           0.100 s
          | Boundary condition initalization           :        0.000 s           0.000 s
          | Grid partitioning                          :        0.049 s           0.048 s
          | Preloading free-atom quantities on grid    :        0.024 s           0.025 s
          | Free-atom superposition energy             :        0.024 s           0.022 s
          | Total time for integrations                :        0.480 s           0.477 s
          | Total time for solution of K.-S. equations :        0.021 s           0.038 s
          | Total time for EV reorthonormalization     :        0.001 s           0.000 s
          | Total time for density & force components  :        0.372 s           0.373 s
          | Total time for mixing                      :        0.052 s           0.050 s
          | Total time for Hartree multipole update    :        0.053 s           0.053 s
          | Total time for Hartree multipole sum       :        0.392 s           0.394 s
          | Total time for total energy evaluation     :        0.007 s           0.010 s

          Partial memory accounting:
          | Residual value for overall tracked memory usage across tasks:     0.000000 MB (should be 0.000000 MB)
          | Peak values for overall tracked memory usage:
          |   Minimum:        0.355 MB (on task 0 after allocating hessian_basis_wave)
          |   Maximum:        0.355 MB (on task 0 after allocating hessian_basis_wave)
          |   Average:        0.355 MB
          | Largest tracked array allocation:
          |   Minimum:        0.188 MB (hessian_basis_wave on task 0)
          |   Maximum:        0.188 MB (hessian_basis_wave on task 0)
          |   Average:        0.188 MB
          Note:  These values currently only include a subset of arrays which are explicitly tracked.
          The "true" memory usage will be greater.

          Have a nice day.
------------------------------------------------------------
