  MPI-parallelism will be employed.
------------------------------------------------------------
          Invoking FHI-aims ...

          When using FHI-aims, please cite the following reference:

          Volker Blum, Ralf Gehrke, Felix Hanke, Paula Havu,
          Ville Havu, Xinguo Ren, Karsten Reuter, and Matthias Scheffler,
          'Ab Initio Molecular Simulations with Numeric Atom-Centered Orbitals',
          Computer Physics Communications 180, 2175-2196 (2009)

          For any questions about FHI-aims, please visit the aimsclub website
          with its forums and wiki. Contributions to both the forums and the
          wiki are warmly encouraged - they are for you, and everyone is welcome there.

------------------------------------------------------------



  Date     :  20190817, Time     :  153218.426
  Time zero on CPU 1             :   0.192000000000000E-01  s.
  Internal wall clock time zero  :           335287938.426  s.

  FHI-aims created a unique identifier for this run for later identification
  aims_uuid : 834DE368-BB06-459B-A6A2-505793BD15B6

  Build configuration of the current instance of FHI-aims
  -------------------------------------------------------
  FHI-aims version      : 190813
  Commit number         : 3da7baeb3
  CMake host system     : Linux-4.4.180-94.97-default
  CMake version         : 3.5.2
  Fortran compiler      : /mpcdf/soft/SLE_12_SP3/packages/x86_64/intel_parallel_studio/2018.4/compilers_and_libraries_2018.5.274/linux/mpi/bin64/mpiifort (Intel) version 18.0.5.20180823
  Fortran compiler flags: -O3 -ip -fp-model precise
  C compiler            : /mpcdf/soft/SLE_12_SP3/packages/skylake/intel/18.0.5/bin/icc (Intel) version 18.0.5.20180823
  C compiler flags      : -O3 -ip -fp-model precise
  Architecture          :
  Using MPI
  Using Scalapack
  Using C files
  Using SPGlib
  Using i-PI
  Linking against: /mpcdf/soft/SLE_12_SP3/packages/x86_64/anaconda/3.5.1.0/lib/libmkl_intel_lp64.so
                   /mpcdf/soft/SLE_12_SP3/packages/x86_64/anaconda/3.5.1.0/lib/libmkl_sequential.so
                   /mpcdf/soft/SLE_12_SP3/packages/x86_64/anaconda/3.5.1.0/lib/libmkl_core.so
                   /mpcdf/soft/SLE_12_SP3/packages/x86_64/anaconda/3.5.1.0/lib/libmkl_blacs_intelmpi_lp64.so
                   /mpcdf/soft/SLE_12_SP3/packages/x86_64/anaconda/3.5.1.0/lib/libmkl_scalapack_lp64.so

  Using        8 parallel tasks.
  Task        0 on host co1631 reporting.
  Task        1 on host co1631 reporting.
  Task        2 on host co1631 reporting.
  Task        3 on host co1631 reporting.
  Task        4 on host co1631 reporting.
  Task        5 on host co1631 reporting.
  Task        6 on host co1631 reporting.
  Task        7 on host co1631 reporting.

  Performing system and environment tests:
  | Environment variable OMP_NUM_THREADS correctly set to 1.
  | Maximum stacksize for task 0: unlimited
  | Maximum stacksize for task 1: unlimited
  | Maximum stacksize for task 2: unlimited
  | Maximum stacksize for task 3: unlimited
  | Maximum stacksize for task 4: unlimited
  | Maximum stacksize for task 5: unlimited
  | Maximum stacksize for task 6: unlimited
  | Maximum stacksize for task 7: unlimited
  | Current stacksize for task 0: unlimited
  | Current stacksize for task 1: unlimited
  | Current stacksize for task 2: unlimited
  | Current stacksize for task 3: unlimited
  | Current stacksize for task 4: unlimited
  | Current stacksize for task 5: unlimited
  | Current stacksize for task 6: unlimited
  | Current stacksize for task 7: unlimited
  | Checking for scalapack...
  | Testing pdtran()...
  | All pdtran() tests passed.

  Obtaining array dimensions for all initial allocations:
  
  -----------------------------------------------------------------------
  Parsing control.in (first pass over file, find array dimensions only).
  The contents of control.in will be repeated verbatim below
  unless switched off by setting 'verbatim_writeout .false.' .
  in the first line of control.in .
  -----------------------------------------------------------------------
  
  #########################################################################################
  #
  #  Volker Blum, FHI 2010 : Input file for FHI-aims
  #
  #  Input file control.in : All computational details for fcc Al
  #
  #########################################################################################
    #
    #  Physical model settings
    #
  #    xc               pbe
      xc               pw-lda
      charge           0.
      spin             none
      relativistic     atomic_zora scalar
    #
    #  SCF convergence settings
    #
      occupation_type  gaussian 0.1
      mixer            pulay
        n_max_pulay             10
        charge_mix_param        0.2
        # ini_linear_mixing     10
        # ini_linear_mix_param  0.05
        # preconditioner kerker 1.5
        # precondition_max_l    0
        # preconditioner turnoff charge 1e-4
        # preconditioner turnoff sum_ev 1e-1
      sc_accuracy_rho  1E-4
      sc_accuracy_eev  1E-3
      sc_accuracy_etot 1E-6
      sc_iter_limit    100
    #
    #  For periodic boundary conditions
    #
      k_grid 16 16 16
    #
    #  For relaxation:
    #
      relax_geometry trm_2012 1.e-2
      relax_unit_cell full
  #    sc_accuracy_forces  5E-4
  
  #    stress_for_relaxation numerical
  
    #
    #  Output options (examples):
    #
    #  Density of states. The DOS is here evaluated
    #  with an effective 144x144x144 k-point grid.
    #  (12 for each k-space direction in s.c.f., and then denser
    #  by another factor of 12 during post-processing). Check whether the
    #  the DOS is smooth, however - fcc Al may need significantly
    #  more k-points (van Hove singularities in DOS).
    #
    #  The dense dos_kgrid_factors below will take a noticeable amount
    #  of time, but they do lead to a smooth DOS.
    #
  #    output dos -20 30 1000 0.1
  #    dos_kgrid_factors  12 12 12
    #
    #  angular momentum channel resolved density of states
    #
  #    output atom_proj_dos -20 30 1000 0.1
    #
    #  High-symmetry k-points for fcc band structure output, if requested.
    #
  #    output band  0.25  0.50  0.75  0.5   0.5   0.5   40	W      L
  #    output band  0.5   0.5   0.5   0.25  0.25  0.25  40	L      Lambda
  #    output band  0.25  0.25  0.25  0     0     0     40	Lambda Gamma
  #    output band  0     0       0   0.00  0.25  0.25  40	Gamma  Delta
  #    output band  0.00  0.25  0.25  0     0.5   0.5   40	Delta  X
  #    output band  0     0.5   0.5   0.125 0.5   0.625 40	X      Z
  #    output band  0.125 0.5   0.625 0.25  0.50  0.75  40	Z      W
  #    output band  0.25  0.50  0.75  0.375 0.375 0.75  40	W      K
  
  ################################################################################
  #
  #  FHI-aims code project
  #  VB, Fritz-Haber Institut, 2009
  #
  #  Suggested "light" defaults for Al atom (to be pasted into control.in file)
  #  Be sure to double-check any results obtained with these settings for post-processing,
  #  e.g., with the "tight" defaults and larger basis sets.
  #
  ################################################################################
    species        Al
  #     global species definitions
      nucleus             13
      mass                26.9815386
  #
      l_hartree           4
  #
      cut_pot             3.5          1.5  1.0
      basis_dep_cutoff    1e-4
  #
      radial_base         41 5.0
      radial_multiplier   1
      angular_grids       specified
        division   0.6594  110
        division   0.8170  194
        division   0.9059  302
  #      division   1.0363  434
  #      division   1.1443  590
  #      division   1.2621  770
  #      division   2.8177  974
  #      outer_grid   974
        outer_grid   302
  ################################################################################
  #
  #  Definition of "minimal" basis
  #
  ################################################################################
  #     valence basis states
      valence      3  s   2.
      valence      3  p   1.
  #     ion occupancy
      ion_occ      3  s   1.
      ion_occ      2  p   6.
  ################################################################################
  #
  #  Suggested additional basis functions. For production calculations,
  #  uncomment them one after another (the most important basis functions are
  #  listed first).
  #
  #  Constructed for dimers: 2.0 A, 2.5 A, 3.0 A, 3.75 A, 4.5 A
  #
  ################################################################################
  #  "First tier" - improvements: -199.47 meV to -10.63 meV
       ionic 3 d auto
       ionic 3 p auto
  #     hydro 4 f 4.7
       ionic 3 s auto
  #  "Second tier" - improvements: -5.35 meV to -1.57 meV
  #     hydro 5 g 7
  #     hydro 3 d 6
  #     hydro 2 s 11.6
  #     hydro 2 p 0.9
  #  "Third tier" - improvements: -0.63 meV to -0.20 meV
  #     hydro 5 f 7.6
  #     hydro 4 p 7.2
  #     hydro 4 s 3.7
  #     hydro 4 d 7.6
  #  "Fourth tier" - improvements: -0.17 meV to -0.08 meV
  #     hydro 4 d 13.6
  #     hydro 5 g 11.2
  #     hydro 4 d 0.9
  #     hydro 1 s 0.4
  #     hydro 4 p 0.1
  #     hydro 5 f 9.8
  #  Further basis functions that fell out of the optimization - noise level...
  #     hydro 4 p 5
  
  
  -----------------------------------------------------------------------
  Completed first pass over input file control.in .
  -----------------------------------------------------------------------
  
  
  -----------------------------------------------------------------------
  Parsing geometry.in (first pass over file, find array dimensions only).
  The contents of geometry.in will be repeated verbatim below
  unless switched off by setting 'verbatim_writeout .false.' .
  in the first line of geometry.in .
  -----------------------------------------------------------------------
  
  #
  #  fcc Al
  #
    atom 0. 0. 0. Al
  #
  # unit cell
  #
  lattice_vector  2.02 2.01 0.0
    constrain_relaxation z
  lattice_vector  0.0  2.01 2.01
    constrain_relaxation x
  lattice_vector  2.01 0.0  2.01
    constrain_relaxation y
  
  -----------------------------------------------------------------------
  Completed first pass over input file geometry.in .
  -----------------------------------------------------------------------
  

  Basic array size parameters:
  | Number of species                 :        1
  | Number of atoms                   :        1
  | Number of lattice vectors         :        3
  | Max. basis fn. angular momentum   :        2
  | Max. atomic/ionic basis occupied n:        3
  | Max. number of basis fn. types    :        2
  | Max. radial fns per species/type  :        5
  | Max. logarithmic grid size        :     1340
  | Max. radial integration grid size :       41
  | Max. angular integration grid size:      302
  | Max. angular grid division number :        8
  | Radial grid for Hartree potential :     1340
  | Number of spin channels           :        1

------------------------------------------------------------
          Reading file control.in.
------------------------------------------------------------
  XC: Using Perdew-Wang parametrisation of Ceperley-Alder LDA.
  Charge =   0.000000E+00: Neutral system requested explicitly.
  Spin treatment: No spin polarisation.
  Scalar relativistic treatment of kinetic energy: on-site free-atom approximation to ZORA.
  Occupation type: Gaussian broadening, width =   0.100000E+00 eV.
  Using pulay charge density mixing.
  Pulay mixing - number of memorized iterations:   10
  Charge density mixing - mixing parameter:     0.2000
  Convergence accuracy of self-consistent charge density:  0.1000E-03
  Convergence accuracy of sum of eigenvalues:  0.1000E-02
  Convergence accuracy of total energy:  0.1000E-05
  Maximum number of s.-c. iterations  :   100
  Found k-point grid:        16        16        16
  Geometry relaxation: Modified BFGS - TRM (trust radius method, i.e., trusted quadratic extrapolation).
  Convergence accuracy for geometry relaxation: Maximum force <   0.100000E-01 eV/A.
 
  Reading configuration options for species Al                  .
  | Found nuclear charge :  13.0000
  | Found atomic mass :    26.9815386000000      amu
  | Found l_max for Hartree potential  :   4
  | Found cutoff potl. onset [A], width [A], scale factor :    3.50000    1.50000    1.00000
  | Threshold for basis-dependent cutoff potential is   0.100000E-03
  | Found data for basic radial integration grid :    41 points, outermost radius =    5.000 A
  | Found multiplier for basic radial grid :   1
  | Found angular grid specification: user-specified.
  | Specified grid contains     4 separate shells.
  | Check grid settings after all constraints further below.
  | Found free-atom valence shell :  3 s   2.000
  | Found free-atom valence shell :  3 p   1.000
  | Found free-ion valence shell :  3 s   1.000
  | Found free-ion valence shell :  2 p   6.000
  | Found ionic basis function :  3 d , default cutoff radius.
  | Found ionic basis function :  3 p , default cutoff radius.
  | Found ionic basis function :  3 s , default cutoff radius.
  Species Al                  : Missing cutoff potential type.
  Defaulting to exp(1/x)/(1-x)^2 type cutoff potential.
  Species Al: No 'logarithmic' tag. Using default grid for free atom:
  | Default logarithmic grid data [bohr] : 0.1000E-03 0.1000E+03 0.1012E+01
  | Will include ionic basis functions of  2.0-fold positive Al                   ion.
  Species Al: On-site basis accuracy parameter (for Gram-Schmidt orthonormalisation) not specified.
  Using default value basis_acc =  0.1000000E-03.
  Species Al                  : Using default innermost maximum threshold i_radial=  2 for radial functions.
  Species Al                  : Default cutoff onset for free atom density etc. : 0.35000000E+01 AA.
  Species Al                  : Basic radial grid will be enhanced according to radial_multiplier =   1, to contain    41 grid points.
 
  Finished reading input file 'control.in'. Consistency checks are next.
 
  MPI_IN_PLACE appears to work with this MPI implementation.
  | Keeping use_mpi_in_place .true. (see manual).
  Target number of points in a grid batch is not set. Defaulting to  100
  Method for grid partitioning is not set. Defaulting to parallel hash+maxmin partitioning.
  Batch size limit is not set. Defaulting to    200
  By default, will store active basis functions for each batch.
  If in need of memory, prune_basis_once .false. can be used to disable this option.
  communication_type for Hartree potential was not specified.
  Defaulting to calc_hartree .
  Pulay mixer: Number of initial linear mixing iterations not set.
  Defaulting to    0 iterations.
  Work space size for distributed Hartree potential not set.
  Defaulting to   0.200000E+03 MB.
  Algorithm-dependent basis array size parameters:
  | n_max_pulay                         :       10
  Presetting      1001 iterations before the initial mixing cycle
  is restarted anyway using the sc_init_iter criterion / keyword.
  Presetting a factor      1.000 between actual scf density residual
  and density convergence criterion sc_accuracy_rho below which sc_init_iter
  takes no effect.
  No maximum number of relaxation steps, defaulting to     1000
  Default initial Hessian is Lindh matrix (thres = 15.00) plus  0.200000E+01 eV/A^2 times unity.
  No maximum energy tolerance for TRM/BFGS moves, defaulting to   0.100000E-02
  Maximum energy tolerance by which TRM/BFGS trajectory may increase over multiple steps:   0.300000E-02
  No harmonic length scale. Defaulting to   0.250000E-01 A.
  No trust radius initializer. Defaulting to   0.200000E+00 A.
  Unit cell relaxation: Unit cell will be relaxed fully.
  Unit cell relaxation: Analytical stress will be used.
  Analytical stress will be computed.
  Analytical stress calculation: Only the upper triangle is calculated.
                                 Final output is symmetrized.
  Analytical stress calculation: scf convergence accuracy of stress not set.
                                 Analytical stress self-consistency will not be checked explicitly.
                                 Be sure to set other criteria like sc_accuracy_rho tight enough.
  Force calculation: scf convergence accuracy of forces not set.
  Defaulting to 'sc_accuracy_forces not_checked'.
  Handling of forces: Unphysical translation and rotation will be removed from forces.
  No accuracy limit for integral partition fn. given. Defaulting to  0.1000E-14.
  No threshold value for u(r) in integrations given. Defaulting to  0.1000E-05.
  No accuracy for occupation numbers given. Defaulting to  0.1000E-12.
  No threshold value for occupation numbers given. Defaulting to  0.0000E+00.
  No accuracy for fermi level given. Defaulting to  0.1000E-19.
  Maximum # of iterations to find E_F not set. Defaulting to  200.
  Preferred method for the eigenvalue solver ('KS_method') not specified in 'control.in'.
  Defaulting to serial version, LAPACK (via ELSI), since more k-points than CPUs available.
  Will not use alltoall communication since running on < 1024 CPUs.
  Threshold for basis singularities not set.
  Default threshold for basis singularities:  0.1000E-04
  partition_type (choice of integration weights) for integrals was not specified.
  | Using a version of the partition function of Stratmann and coworkers ('stratmann_sparse').
  | At each grid point, the set of atoms used to build the partition table is smoothly restricted to
  | only those atoms whose free-atom density would be non-zero at that grid point.
  Partitioning for Hartree potential was not defined. Using partition_type for integrals.
  | Adjusted default value of keyword multip_moments_threshold to:       0.10000000E-11
  | This value may affect high angular momentum components of the Hartree potential in periodic systems.
  Angular momentum expansion for Kerker preconditioner not set explicitly.
  | Using default value of   0
  No explicit requirement for turning off preconditioner.
  | By default, it will be turned off when the charge convergence reaches
  | sc_accuracy_rho  =   0.100000E-03
  | sc_accuracy_eev  =   0.100000E-02
  | sc_accuracy_etot =   0.100000E-05
  No special mixing parameter while Kerker preconditioner is on.
  Using default: charge_mix_param =     0.2000.
  No q(lm)/r^(l+1) cutoff set for long-range Hartree potential.
  | Using default value of  0.100000E-09 .
  | Verify using the multipole_threshold keyword.
  Defaulting to new monopole extrapolation.
  Density update method: automatic selection selected.
  Using density matrix based charge density update.
  Using density matrix based charge density update.
  Using packed matrix style: index .
  Geometry relaxation: A file "geometry.in.next_step" is written out by default after each step.
  | This file contains the geometry of the current relaxation step as well as
  | the current Hessian matrix needed to restart the relaxation algorithm.
  | If you do not want part or all of this information, use the keywords
  | "write_restart_geometry" or "hessian_to_restart_geometry" to switch the output off.
  Defaulting to use time-reversal symmetry for k-point grid.
  Charge integration errors on the 3D integration grid will be compensated
  by explicit normalization and distribution of residual charges.
  Use the "compensate_multipole_errors" flag to change this behaviour.
------------------------------------------------------------


------------------------------------------------------------
          Reading geometry description geometry.in.
------------------------------------------------------------
  Found relaxation constraint for lattice vector      1: z coordinate fixed.
  Found relaxation constraint for lattice vector      2: x coordinate fixed.
  Found relaxation constraint for lattice vector      3: y coordinate fixed.
  Input structure read successfully.
  The structure contains        1 atoms,  and a total of         13.000 electrons.

  Input geometry:
  | Unit cell:
  |        2.02000000        2.01000000        0.00000000
  |        0.00000000        2.01000000        2.01000000
  |        2.01000000        0.00000000        2.01000000
  | Atomic structure:
  |       Atom                x [A]            y [A]            z [A]
  |    1: Species Al            0.00000000        0.00000000        0.00000000

  Lattice parameters for 3D lattice (in Angstroms) :     2.849649    2.842569    2.842569
  Angle(s) between unit vectors (in degrees)       :    60.000000   59.917984   60.082151

  | The smallest distance between any two atoms is         2.84256926 AA.
  | The first atom of this pair is atom number                      1 .
  | The second atom of this pair is atom number                     1 .
  | Wigner-Seitz cell of the first atom image           0    -1     1 .
  | (The Wigner-Seitz cell of the second atom is 0 0 0  by definition.)

  Symmetry information by spglib:
  | Precision set to  0.1E-04
  | Number of Operations  : 4
  | Space group           : 12
  | International         : C2/m     H/
  | Schoenflies           : C2h^3

  Quantities derived from the lattice vectors:
  | Reciprocal lattice vector 1:  1.559103  1.559103 -1.559103
  | Reciprocal lattice vector 2: -1.559103  1.566860  1.559103
  | Reciprocal lattice vector 3:  1.559103 -1.566860  1.566860
  | Unit cell volume                               :   0.162816E+02  A^3

  Range separation radius for Ewald summation (hartree_convergence_parameter):      3.60113298 bohr.

  Fractional coordinates:
                         L1                L2                L3
       atom_frac         0.00000000        0.00000000        0.00000000  Al

  Number of empty states per atom not set in control.in - providing a guess from actual geometry.
  | Total number of empty states used during s.c.f. cycle:        3
  If you use a very high smearing, use empty_states (per atom!) in control.in to increase this value.

  Structure-dependent array size parameters: 
  | Maximum number of distinct radial functions  :        8
  | Maximum number of basis functions            :       18
  | Number of Kohn-Sham states (occupied + empty):       10
------------------------------------------------------------

------------------------------------------------------------
          Preparing all fixed parts of the calculation.
------------------------------------------------------------
  Determining machine precision:
    2.225073858507201E-308
  Setting up grids for atomic and cluster calculations.

  Creating wave function, potential, and density for free atoms.

  Species: Al

  List of occupied orbitals and eigenvalues:
    n    l              occ      energy [Ha]    energy [eV]
    1    0           2.0000       -55.368617     -1506.6567
    2    0           2.0000        -3.933052      -107.0238
    3    0           2.0000        -0.275173        -7.4878
    2    1           6.0000        -2.544101       -69.2285
    3    1           1.0000        -0.086012        -2.3405

  Creating fixed part of basis set: Ionic, confined, hydrogenic.
 
  Al                   ion:

  List of free ionic orbitals and eigenvalues:
    n    l      energy [Ha]    energy [eV]
    1    0       -56.167517     -1528.3959
    2    0        -4.710173      -128.1703
    3    0        -0.879347       -23.9283
    2    1        -3.321561       -90.3843


  List of ionic basis orbitals and eigenvalues:
    n    l      energy [Ha]    energy [eV]    outer radius [A]
    3    2        -0.349836        -9.5195       4.594041
    3    1        -0.638653       -17.3786       4.538221
    3    0        -0.879312       -23.9273       4.483079


  Adding cutoff potential to free-atom effective potential.
  Creating atomic-like basis functions for current effective potential.

  Species Al                  :

  List of atomic basis orbitals and eigenvalues:
    n    l      energy [Ha]    energy [eV]    outer radius [A]
    1    0       -55.368617     -1506.6567       0.850197
    2    0        -3.933052      -107.0238       3.183593
    3    0        -0.275173        -7.4878       4.594041
    2    1        -2.544101       -69.2285       3.731966
    3    1        -0.086012        -2.3405       4.594041

  Assembling full basis from fixed parts.
  | Species Al :   atomic orbital   1 s accepted.
  | Species Al :   atomic orbital   2 s accepted.
  | Species Al :    ionic orbital   3 s accepted.
  | Species Al :   atomic orbital   3 s accepted.
  | Species Al :   atomic orbital   2 p accepted.
  | Species Al :    ionic orbital   3 p accepted.
  | Species Al :   atomic orbital   3 p accepted.
  | Species Al :    ionic orbital   3 d accepted.
 
  Basis size parameters after reduction:
  | Total number of radial functions:        8
  | Total number of basis functions :       18
 
  Per-task memory consumption for arrays in subroutine allocate_ext:
  |           2.745180MB.
  Testing on-site integration grid accuracy.
  |  Species  Function  <phi|h_atom|phi> (log., in eV)  <phi|h_atom|phi> (rad., in eV)
           1        1              -1506.6567349563              -1506.6561595453
           1        2               -107.0238002879               -107.0237973754
           1        3                 -7.0435360886                 -7.0439988225
           1        4                  4.8527617730                  4.7697900123 ***
           1        5                -69.2285135094                -69.2285134423
           1        6                 -1.5497969167                 -1.5527571275
           1        7                  6.4027499806                  6.1501072511 ***
           1        8                  4.3750044185                  4.3418354946 ***
 * Note: Onsite integrals marked "***" above are less accurate than
 * onsite_accuracy_threshold =    0.03000 eV. Usually, this is harmless.
 * When in doubt, tighten the "radial" and/or "radial_multiplier" flags to check.

  Preparing densities etc. for the partition functions (integrals / Hartree potential).

  Preparations completed.
  max(cpu_time)          :      0.149 s.
  Wall clock time (cpu1) :      0.149 s.
------------------------------------------------------------

------------------------------------------------------------
          Begin self-consistency loop: Initialization.

          Date     :  20190817, Time     :  153218.623
------------------------------------------------------------

  Initializing index lists of integration centers etc. from given atomic structure:
  Mapping all atomic coordinates to central unit cell.

  Initializing the k-points
          Using symmetry for reducing the k-points
  | k-points reduced from:     4096 to     2052
  | Number of k-points                             :      2052
  The eigenvectors in the calculations are COMPLEX.
  | K-points in task   0:       256
  | K-points in task   1:       257
  | K-points in task   2:       257
  | K-points in task   3:       257
  | K-points in task   4:       257
  | K-points in task   5:       256
  | K-points in task   6:       256
  | K-points in task   7:       256
  | Number of basis functions in the Hamiltonian integrals :      1420
  | Number of basis functions in a single unit cell        :        18
  | Number of centers in hartree potential         :       683
  | Number of centers in hartree multipole         :       321
  | Number of centers in electron density summation:       225
  | Number of centers in basis integrals           :       225
  | Number of centers in integrals                 :        93
  | Number of centers in hamiltonian               :       225
  | Consuming       7246 KiB for k_phase.
  | Number of super-cells (origin) [n_cells]                     :        3375
  | Number of super-cells (after PM_index) [n_cells]             :         226
  | Number of super-cells in hamiltonian [n_cells_in_hamiltonian]:         226
  | Size of matrix packed + index [n_hamiltonian_matrix_size] :       30086

  Initializing relaxation algorithms.
  Finished initialization of distributed Hessian storage.
  | Global dimension:         9
  | BLACS block size:         2
  | Number of workers:        5

  | Estimated reciprocal-space cutoff momentum G_max:         2.60187931 bohr^-1 .
  | Reciprocal lattice points for long-range Hartree potential:      26
  Partitioning the integration grid into batches with parallel hashing+maxmin method.
  | Number of batches:       86
  | Maximal batch size:     106
  | Minimal batch size:      50
  | Average batch size:      87.884
  | Standard deviation of batch sizes:      15.764

  Integration load balanced across     8 MPI tasks.
  Work distribution over tasks is as follows:
  Task     0 has        986 integration points.
  Task     1 has        944 integration points.
  Task     2 has        895 integration points.
  Task     3 has        993 integration points.
  Task     4 has        910 integration points.
  Task     5 has        975 integration points.
  Task     6 has        948 integration points.
  Task     7 has        907 integration points.
  Initializing partition tables, free-atom densities, potentials, etc. across the integration grid (initialize_grid_storage).
  | initialize_grid_storage: Actual outermost partition radius vs. multipole_radius_free
  | (-- VB: in principle, multipole_radius_free should be larger, hence this output)
  | Species        1: Confinement radius =              4.999999999999999 AA, multipole_radius_free =              5.004487022111096 AA.
  | Species        1: outer_partition_radius set to              5.004487022111096 AA .
  | The sparse table of interatomic distances needs        301.84 kbyte instead of       405.00 kbyte of memory.
  | Net number of integration points:     7558
  | of which are non-zero points    :     6650
  | Numerical average free-atom electrostatic potential    :    -15.59358011 eV
  Renormalizing the initial density to the exact electron count on the 3D integration grid.
  | Initial density: Formal number of electrons (from input files) :      13.0000000000
  | Integrated number of electrons on 3D grid     :      13.0005521432
  | Charge integration error                      :       0.0005521432
  | Normalization factor for density and gradient :       0.9999575292
  Renormalizing the free-atom superposition density to the exact electron count on the 3D integration grid.
  | Formal number of electrons (from input files) :      13.0000000000
  | Integrated number of electrons on 3D grid     :      13.0005521432
  | Charge integration error                      :       0.0005521432
  | Normalization factor for density and gradient :       0.9999575292
  Obtaining max. number of non-zero basis functions in each batch (get_n_compute_maxes).
  | Maximal number of non-zero basis functions:      600 in task     0
  | Maximal number of non-zero basis functions:      617 in task     1
  | Maximal number of non-zero basis functions:      567 in task     2
  | Maximal number of non-zero basis functions:      616 in task     3
  | Maximal number of non-zero basis functions:      611 in task     4
  | Maximal number of non-zero basis functions:      573 in task     5
  | Maximal number of non-zero basis functions:      606 in task     6
  | Maximal number of non-zero basis functions:      622 in task     7
  Allocating        0.703 MB for KS_eigenvector_complex
  Integrating Hamiltonian matrix: batch-based integration.
  Time summed over all CPUs for integration: real work        0.319 s, elapsed        0.345 s
  Integrating overlap matrix.
  Time summed over all CPUs for integration: real work        0.253 s, elapsed        0.272 s
  Decreasing sparse matrix size:
   Tolerance:  9.999999824516700E-014
   Hamiltonian matrix
  | Array has    26134 nonzero elements out of    30086 elements
  | Sparsity factor is 0.131
   Overlap matrix
  | Array has    24657 nonzero elements out of    30086 elements
  | Sparsity factor is 0.180
  New size of hamiltonian matrix:       26216

  Updating Kohn-Sham eigenvalues and eigenvectors using ELSI and the (modified) LAPACK eigensolver.
  Singularity check in k-point 8, task 0 (analysis for other k-points/tasks may follow below):
  Overlap matrix is not singular
  | Lowest and highest eigenvalues :  0.2648E-03,  0.5144E+01
  Finished singularity check of overlap matrix
  | Time :     0.000 s
  Starting LAPACK eigensolver
  Finished Cholesky decomposition
  | Time :     0.000 s
  Finished transformation to standard eigenproblem
  | Time :     0.000 s
  Finished solving standard eigenproblem
  | Time :     0.000 s
  Finished back-transformation of eigenvectors
  | Time :     0.000 s

  Obtaining occupation numbers and chemical potential using ELSI.
  | Chemical potential (Fermi level):    -5.70387557 eV
  Writing Kohn-Sham eigenvalues.
  K-point:       1 at    0.000000    0.000000    0.000000 (in units of recip. lattice)

  State    Occupation    Eigenvalue [Ha]    Eigenvalue [eV]
      1       2.00000         -55.383076        -1507.05019
      2       2.00000          -3.953001         -107.56663
      3       2.00000          -2.563668          -69.76095
      4       2.00000          -2.563659          -69.76072
      5       2.00000          -2.563648          -69.76042
      6       2.00000          -0.623226          -16.95883
      7       0.00000           0.254701            6.93077
      8       0.00000           0.257390            7.00394
      9       0.00000           0.259000            7.04774
     10       0.00000           0.328625            8.94235

  What follows are estimated values for band gap, HOMO, LUMO, etc.
  | They are estimated on a discrete k-point grid and not necessarily exact.
  | For converged numbers, create a DOS and/or band structure plot on a denser k-grid.

  Highest occupied state (VBM) at     -5.70881778 eV (relative to internal zero)
  | Occupation number:      1.05572141
  | K-point:     483 at    0.125000    0.812500    0.375000 (in units of recip. lattice)

  Lowest unoccupied state (CBM) at    -5.66290745 eV (relative to internal zero)
  | Occupation number:      0.56233498
  | K-point:    1288 at    0.437500    0.000000    0.437500 (in units of recip. lattice)

  ESTIMATED overall HOMO-LUMO gap:      0.04591033 eV between HOMO at k-point 483 and LUMO at k-point 1288
  | This appears to be an indirect band gap.
  | Smallest direct gap :      0.69922107 eV for k_point 1882 at    0.437500    0.000000    0.437500 (in units of recip. lattice)
  However, this system has fractional occupation numbers. Since we use a finite k-point grid,
  this material is metallic within the approximate finite broadening function (occupation_type)
  applied to determine the occupation numbers.
  Calculating total energy contributions from superposition of free atom densities.

  Total energy components:
  | Sum of eigenvalues            :        -135.18125558 Ha       -3678.46912280 eV
  | XC energy correction          :         -17.72942075 Ha        -482.44208504 eV
  | XC potential correction       :          23.41665387 Ha         637.19957223 eV
  | Free-atom electrostatic energy:        -112.66415468 Ha       -3065.74763243 eV
  | Hartree energy correction     :           0.00000000 Ha           0.00000000 eV
  | Entropy correction            :          -0.00002270 Ha          -0.00061766 eV
  | ---------------------------
  | Total energy                  :        -242.15817714 Ha       -6589.45926804 eV
  | Total energy, T -> 0          :        -242.15819984 Ha       -6589.45988570 eV  <-- do not rely on this value for anything but (periodic) metals
  | Electronic free energy        :        -242.15822254 Ha       -6589.46050336 eV

  Derived energy quantities:
  | Kinetic energy                :         242.55373669 Ha        6600.22299098 eV
  | Electrostatic energy          :        -466.98249308 Ha      -12707.24017398 eV
  | Energy correction for multipole
  | error in Hartree potential    :           0.00000000 Ha           0.00000000 eV
  | Sum of eigenvalues per atom                           :       -3678.46912280 eV
  | Total energy (T->0) per atom                          :       -6589.45988570 eV  <-- do not rely on this value for anything but (periodic) metals
  | Electronic free energy per atom                       :       -6589.46050336 eV
  Initialize hartree_potential_storage
  Max. number of atoms included in rho_multipole:            1

  End scf initialization - timings             :  max(cpu_time)    wall_clock(cpu1)
  | Time for scf. initialization               :        0.395 s           0.396 s
  | Boundary condition initialization          :        0.128 s           0.128 s
  | Relaxation initialization                  :        0.001 s           0.001 s
  | Integration                                :        0.080 s           0.081 s
  | Solution of K.-S. eqns.                    :        0.134 s           0.134 s
  | Grid partitioning                          :        0.008 s           0.007 s
  | Preloading free-atom quantities on grid    :        0.002 s           0.001 s
  | Free-atom superposition energy             :        0.005 s           0.005 s
  | Total energy evaluation                    :        0.001 s           0.001 s

  Partial memory accounting:
  | Current value for overall tracked memory usage:
  |   Minimum:        1.205 MB (on task 5)
  |   Maximum:        1.208 MB (on task 1)
  |   Average:        1.206 MB
  | Peak value for overall tracked memory usage:
  |   Minimum:        5.110 MB (on task 2 after allocating wave)
  |   Maximum:        5.740 MB (on task 7 after allocating wave)
  |   Average:        5.503 MB
  | Largest tracked array allocation so far:
  |   Minimum:        2.453 MB (hamiltonian_shell on task 2)
  |   Maximum:        2.952 MB (hamiltonian_shell on task 7)
  |   Average:        2.763 MB
  Note:  These values currently only include a subset of arrays which are explicitly tracked.
  The "true" memory usage will be greater.
------------------------------------------------------------

------------------------------------------------------------
          Begin self-consistency iteration #    1

  Date     :  20190817, Time     :  153219.019
------------------------------------------------------------
  Evaluating new KS density using the density matrix
  Evaluating density matrix
  Time summed over all CPUs for getting density from density matrix: real work        0.287 s, elapsed        0.311 s
  Integration grid: deviation in total charge (<rho> - N_e) =   0.000000E+00
  Pulay mixing of updated and previous charge densities.
  Renormalizing the density to the exact electron count on the 3D integration grid.
  | Formal number of electrons (from input files) :      13.0000000000
  | Integrated number of electrons on 3D grid     :      13.0001017933
  | Charge integration error                      :       0.0001017933
  | Normalization factor for density and gradient :       0.9999921698

  Evaluating partitioned Hartree potential by multipole expansion.
  | Original multipole sum: apparent total charge =  -0.809483E-14
  | Sum of charges compensated after spline to logarithmic grids =  -0.327626E-07
  | Analytical far-field extrapolation by fixed multipoles:
  | Hartree multipole sum: apparent total charge =   0.000000E+00
  Summing up the Hartree potential.
  Time summed over all CPUs for potential: real work        0.357 s, elapsed        0.380 s
  | RMS charge density error from multipole expansion :   0.807950E-03
  | Average real-space part of the electrostatic potential :     -0.05751324 eV

  Integrating Hamiltonian matrix: batch-based integration.
  Time summed over all CPUs for integration: real work        0.321 s, elapsed        0.352 s

  Updating Kohn-Sham eigenvalues and eigenvectors using ELSI and the (modified) LAPACK eigensolver.
  Starting LAPACK eigensolver
  Finished Cholesky decomposition
  | Time :     0.000 s
  Finished transformation to standard eigenproblem
  | Time :     0.000 s
  Finished solving standard eigenproblem
  | Time :     0.000 s
  Finished back-transformation of eigenvectors
  | Time :     0.000 s

  Obtaining occupation numbers and chemical potential using ELSI.
  | Chemical potential (Fermi level):    -5.71152615 eV
  Writing Kohn-Sham eigenvalues.
  K-point:       1 at    0.000000    0.000000    0.000000 (in units of recip. lattice)

  State    Occupation    Eigenvalue [Ha]    Eigenvalue [eV]
      1       2.00000         -55.389387        -1507.22190
      2       2.00000          -3.958156         -107.70690
      3       2.00000          -2.568796          -69.90051
      4       2.00000          -2.568793          -69.90040
      5       2.00000          -2.568787          -69.90026
      6       2.00000          -0.623472          -16.96553
      7       0.00000           0.254320            6.92039
      8       0.00000           0.257012            6.99366
      9       0.00000           0.258621            7.03745
     10       0.00000           0.327602            8.91451

  What follows are estimated values for band gap, HOMO, LUMO, etc.
  | They are estimated on a discrete k-point grid and not necessarily exact.
  | For converged numbers, create a DOS and/or band structure plot on a denser k-grid.

  Highest occupied state (VBM) at     -5.71652547 eV (relative to internal zero)
  | Occupation number:      1.05636429
  | K-point:    1786 at    0.687500    0.812500    0.437500 (in units of recip. lattice)

  Lowest unoccupied state (CBM) at    -5.67021173 eV (relative to internal zero)
  | Occupation number:      0.55903596
  | K-point:    1288 at    0.437500    0.000000    0.437500 (in units of recip. lattice)

  ESTIMATED overall HOMO-LUMO gap:      0.04631373 eV between HOMO at k-point 1786 and LUMO at k-point 1288
  | This appears to be an indirect band gap.
  | Smallest direct gap :      0.69557856 eV for k_point 1882 at    0.437500    0.000000    0.437500 (in units of recip. lattice)
  However, this system has fractional occupation numbers. Since we use a finite k-point grid,
  this material is metallic within the approximate finite broadening function (occupation_type)
  applied to determine the occupation numbers.

  Total energy components:
  | Sum of eigenvalues            :        -135.23577022 Ha       -3679.95254171 eV
  | XC energy correction          :         -17.72493605 Ha        -482.32005000 eV
  | XC potential correction       :          23.41072435 Ha         637.03822163 eV
  | Free-atom electrostatic energy:        -112.66415468 Ha       -3065.74763243 eV
  | Hartree energy correction     :           0.05619872 Ha           1.52924509 eV
  | Entropy correction            :          -0.00002268 Ha          -0.00061703 eV
  | ---------------------------
  | Total energy                  :        -242.15793788 Ha       -6589.45275742 eV
  | Total energy, T -> 0          :        -242.15796056 Ha       -6589.45337445 eV  <-- do not rely on this value for anything but (periodic) metals
  | Electronic free energy        :        -242.15798323 Ha       -6589.45399148 eV

  Derived energy quantities:
  | Kinetic energy                :         242.49090781 Ha        6598.51333017 eV
  | Electrostatic energy          :        -466.92390964 Ha      -12705.64603758 eV
  | Energy correction for multipole
  | error in Hartree potential    :           0.00010955 Ha           0.00298104 eV
  | Sum of eigenvalues per atom                           :       -3679.95254171 eV
  | Total energy (T->0) per atom                          :       -6589.45337445 eV  <-- do not rely on this value for anything but (periodic) metals
  | Electronic free energy per atom                       :       -6589.45399148 eV

  Self-consistency convergence accuracy:
  | Change of charge density      :  0.3988E-01
  | Change of sum of eigenvalues  : -0.1483E+01 eV
  | Change of total energy        :  0.6511E-02 eV

  End self-consistency iteration #     1       :  max(cpu_time)    wall_clock(cpu1)
  | Time for this iteration                    :        0.284 s           0.284 s
  | Charge density update                      :        0.064 s           0.064 s
  | Density mixing & preconditioning           :        0.007 s           0.007 s
  | Hartree multipole update                   :        0.001 s           0.000 s
  | Hartree multipole summation                :        0.049 s           0.050 s
  | Integration                                :        0.045 s           0.045 s
  | Solution of K.-S. eqns.                    :        0.116 s           0.116 s
  | Total energy evaluation                    :        0.001 s           0.001 s

  Partial memory accounting:
  | Current value for overall tracked memory usage:
  |   Minimum:        1.205 MB (on task 5)
  |   Maximum:        1.208 MB (on task 1)
  |   Average:        1.206 MB
  | Peak value for overall tracked memory usage:
  |   Minimum:        5.110 MB (on task 2 after allocating wave)
  |   Maximum:        5.740 MB (on task 7 after allocating wave)
  |   Average:        5.503 MB
  | Largest tracked array allocation so far:
  |   Minimum:        2.453 MB (hamiltonian_shell on task 2)
  |   Maximum:        2.952 MB (hamiltonian_shell on task 7)
  |   Average:        2.763 MB
  Note:  These values currently only include a subset of arrays which are explicitly tracked.
  The "true" memory usage will be greater.
------------------------------------------------------------

------------------------------------------------------------
          Begin self-consistency iteration #    2

  Date     :  20190817, Time     :  153219.303
------------------------------------------------------------
  Evaluating new KS density using the density matrix
  Evaluating density matrix
  Time summed over all CPUs for getting density from density matrix: real work        0.283 s, elapsed        0.313 s
  Integration grid: deviation in total charge (<rho> - N_e) =  -5.861978E-14
  Pulay mixing of updated and previous charge densities.
  Renormalizing the density to the exact electron count on the 3D integration grid.
  | Formal number of electrons (from input files) :      13.0000000000
  | Integrated number of electrons on 3D grid     :      13.0005219833
  | Charge integration error                      :       0.0005219833
  | Normalization factor for density and gradient :       0.9999598491

  Evaluating partitioned Hartree potential by multipole expansion.
  | Original multipole sum: apparent total charge =  -0.221336E-14
  | Sum of charges compensated after spline to logarithmic grids =  -0.266101E-06
  | Analytical far-field extrapolation by fixed multipoles:
  | Hartree multipole sum: apparent total charge =   0.000000E+00
  Summing up the Hartree potential.
  Time summed over all CPUs for potential: real work        0.382 s, elapsed        0.401 s
  | RMS charge density error from multipole expansion :   0.434238E-02
  | Average real-space part of the electrostatic potential :     -0.31686804 eV

  Integrating Hamiltonian matrix: batch-based integration.
  Time summed over all CPUs for integration: real work        0.317 s, elapsed        0.344 s

  Updating Kohn-Sham eigenvalues and eigenvectors using ELSI and the (modified) LAPACK eigensolver.
  Starting LAPACK eigensolver
  Finished Cholesky decomposition
  | Time :     0.000 s
  Finished transformation to standard eigenproblem
  | Time :     0.000 s
  Finished solving standard eigenproblem
  | Time :     0.000 s
  Finished back-transformation of eigenvectors
  | Time :     0.000 s

  Obtaining occupation numbers and chemical potential using ELSI.
  | Chemical potential (Fermi level):    -5.74214121 eV
  What follows are estimated values for band gap, HOMO, LUMO, etc.
  | They are estimated on a discrete k-point grid and not necessarily exact.
  | For converged numbers, create a DOS and/or band structure plot on a denser k-grid.

  Highest occupied state (VBM) at     -5.74697635 eV (relative to internal zero)
  | Occupation number:      1.05451618
  | K-point:     483 at    0.125000    0.812500    0.375000 (in units of recip. lattice)

  Lowest unoccupied state (CBM) at    -5.69991743 eV (relative to internal zero)
  | Occupation number:      0.55041762
  | K-point:    1288 at    0.437500    0.000000    0.437500 (in units of recip. lattice)

  ESTIMATED overall HOMO-LUMO gap:      0.04705892 eV between HOMO at k-point 483 and LUMO at k-point 1288
  | This appears to be an indirect band gap.
  | Smallest direct gap :      0.68074385 eV for k_point 1882 at    0.437500    0.000000    0.437500 (in units of recip. lattice)
  However, this system has fractional occupation numbers. Since we use a finite k-point grid,
  this material is metallic within the approximate finite broadening function (occupation_type)
  applied to determine the occupation numbers.

  Checking to see if s.c.f. parameters should be adjusted.

  Total energy components:
  | Sum of eigenvalues            :        -135.47284466 Ha       -3686.40366527 eV
  | XC energy correction          :         -17.70683495 Ha        -481.82749397 eV
  | XC potential correction       :          23.38679575 Ha         636.38709130 eV
  | Free-atom electrostatic energy:        -112.66415468 Ha       -3065.74763243 eV
  | Hartree energy correction     :           0.29972090 Ha           8.15582068 eV
  | Entropy correction            :          -0.00002271 Ha          -0.00061809 eV
  | ---------------------------
  | Total energy                  :        -242.15731764 Ha       -6589.43587969 eV
  | Total energy, T -> 0          :        -242.15734035 Ha       -6589.43649777 eV  <-- do not rely on this value for anything but (periodic) metals
  | Electronic free energy        :        -242.15736306 Ha       -6589.43711586 eV

  Derived energy quantities:
  | Kinetic energy                :         242.23536004 Ha        6591.55952148 eV
  | Electrostatic energy          :        -466.68584273 Ha      -12699.16790720 eV
  | Energy correction for multipole
  | error in Hartree potential    :           0.00062401 Ha           0.01698025 eV
  | Sum of eigenvalues per atom                           :       -3686.40366527 eV
  | Total energy (T->0) per atom                          :       -6589.43649777 eV  <-- do not rely on this value for anything but (periodic) metals
  | Electronic free energy per atom                       :       -6589.43711586 eV

  Self-consistency convergence accuracy:
  | Change of charge density      :  0.3290E-01
  | Change of sum of eigenvalues  : -0.6451E+01 eV
  | Change of total energy        :  0.1688E-01 eV

  End self-consistency iteration #     2       :  max(cpu_time)    wall_clock(cpu1)
  | Time for this iteration                    :        0.281 s           0.282 s
  | Charge density update                      :        0.062 s           0.062 s
  | Density mixing & preconditioning           :        0.008 s           0.008 s
  | Hartree multipole update                   :        0.001 s           0.000 s
  | Hartree multipole summation                :        0.052 s           0.052 s
  | Integration                                :        0.044 s           0.044 s
  | Solution of K.-S. eqns.                    :        0.114 s           0.114 s
  | Total energy evaluation                    :        0.001 s           0.000 s

  Partial memory accounting:
  | Current value for overall tracked memory usage:
  |   Minimum:        1.206 MB (on task 5)
  |   Maximum:        1.209 MB (on task 1)
  |   Average:        1.207 MB
  | Peak value for overall tracked memory usage:
  |   Minimum:        5.110 MB (on task 2 after allocating wave)
  |   Maximum:        5.740 MB (on task 7 after allocating wave)
  |   Average:        5.503 MB
  | Largest tracked array allocation so far:
  |   Minimum:        2.453 MB (hamiltonian_shell on task 2)
  |   Maximum:        2.952 MB (hamiltonian_shell on task 7)
  |   Average:        2.763 MB
  Note:  These values currently only include a subset of arrays which are explicitly tracked.
  The "true" memory usage will be greater.
------------------------------------------------------------

------------------------------------------------------------
          Begin self-consistency iteration #    3

  Date     :  20190817, Time     :  153219.585
------------------------------------------------------------
  Evaluating new KS density using the density matrix
  Evaluating density matrix
  Time summed over all CPUs for getting density from density matrix: real work        0.286 s, elapsed        0.317 s
  Integration grid: deviation in total charge (<rho> - N_e) =  -4.618528E-14
  Pulay mixing of updated and previous charge densities.
  Renormalizing the density to the exact electron count on the 3D integration grid.
  | Formal number of electrons (from input files) :      13.0000000000
  | Integrated number of electrons on 3D grid     :      13.0004324204
  | Charge integration error                      :       0.0004324204
  | Normalization factor for density and gradient :       0.9999667380

  Evaluating partitioned Hartree potential by multipole expansion.
  | Original multipole sum: apparent total charge =   0.694957E-14
  | Sum of charges compensated after spline to logarithmic grids =  -0.715202E-06
  | Analytical far-field extrapolation by fixed multipoles:
  | Hartree multipole sum: apparent total charge =   0.000000E+00
  Summing up the Hartree potential.
  Time summed over all CPUs for potential: real work        0.380 s, elapsed        0.398 s
  | RMS charge density error from multipole expansion :   0.456902E-02
  | Average real-space part of the electrostatic potential :     -0.37021364 eV

  Integrating Hamiltonian matrix: batch-based integration.
  Time summed over all CPUs for integration: real work        0.313 s, elapsed        0.340 s

  Updating Kohn-Sham eigenvalues and eigenvectors using ELSI and the (modified) LAPACK eigensolver.
  Starting LAPACK eigensolver
  Finished Cholesky decomposition
  | Time :     0.000 s
  Finished transformation to standard eigenproblem
  | Time :     0.000 s
  Finished solving standard eigenproblem
  | Time :     0.000 s
  Finished back-transformation of eigenvectors
  | Time :     0.000 s

  Obtaining occupation numbers and chemical potential using ELSI.
  | Chemical potential (Fermi level):    -5.74749185 eV
  What follows are estimated values for band gap, HOMO, LUMO, etc.
  | They are estimated on a discrete k-point grid and not necessarily exact.
  | For converged numbers, create a DOS and/or band structure plot on a denser k-grid.

  Highest occupied state (VBM) at     -5.75229238 eV (relative to internal zero)
  | Occupation number:      1.05412658
  | K-point:     483 at    0.125000    0.812500    0.375000 (in units of recip. lattice)

  Lowest unoccupied state (CBM) at    -5.70475295 eV (relative to internal zero)
  | Occupation number:      0.54556488
  | K-point:    1288 at    0.437500    0.000000    0.437500 (in units of recip. lattice)

  ESTIMATED overall HOMO-LUMO gap:      0.04753943 eV between HOMO at k-point 483 and LUMO at k-point 1288
  | This appears to be an indirect band gap.
  | Smallest direct gap :      0.67687665 eV for k_point 1882 at    0.437500    0.000000    0.437500 (in units of recip. lattice)
  However, this system has fractional occupation numbers. Since we use a finite k-point grid,
  this material is metallic within the approximate finite broadening function (occupation_type)
  applied to determine the occupation numbers.

  Total energy components:
  | Sum of eigenvalues            :        -135.48489677 Ha       -3686.73162000 eV
  | XC energy correction          :         -17.70924138 Ha        -481.89297649 eV
  | XC potential correction       :          23.39001642 Ha         636.47473035 eV
  | Free-atom electrostatic energy:        -112.66415468 Ha       -3065.74763243 eV
  | Hartree energy correction     :           0.31100115 Ha           8.46277178 eV
  | Entropy correction            :          -0.00002274 Ha          -0.00061875 eV
  | ---------------------------
  | Total energy                  :        -242.15727527 Ha       -6589.43472678 eV
  | Total energy, T -> 0          :        -242.15729801 Ha       -6589.43534554 eV  <-- do not rely on this value for anything but (periodic) metals
  | Electronic free energy        :        -242.15732075 Ha       -6589.43596429 eV

  Derived energy quantities:
  | Kinetic energy                :         242.31202592 Ha        6593.64570641 eV
  | Electrostatic energy          :        -466.76005981 Ha      -12701.18745670 eV
  | Energy correction for multipole
  | error in Hartree potential    :           0.00068509 Ha           0.01864230 eV
  | Sum of eigenvalues per atom                           :       -3686.73162000 eV
  | Total energy (T->0) per atom                          :       -6589.43534554 eV  <-- do not rely on this value for anything but (periodic) metals
  | Electronic free energy per atom                       :       -6589.43596429 eV

  Self-consistency convergence accuracy:
  | Change of charge density      :  0.8165E-02
  | Change of sum of eigenvalues  : -0.3280E+00 eV
  | Change of total energy        :  0.1153E-02 eV

  End self-consistency iteration #     3       :  max(cpu_time)    wall_clock(cpu1)
  | Time for this iteration                    :        0.277 s           0.277 s
  | Charge density update                      :        0.062 s           0.062 s
  | Density mixing & preconditioning           :        0.006 s           0.006 s
  | Hartree multipole update                   :        0.001 s           0.001 s
  | Hartree multipole summation                :        0.052 s           0.052 s
  | Integration                                :        0.043 s           0.043 s
  | Solution of K.-S. eqns.                    :        0.112 s           0.112 s
  | Total energy evaluation                    :        0.001 s           0.001 s

  Partial memory accounting:
  | Current value for overall tracked memory usage:
  |   Minimum:        1.206 MB (on task 5)
  |   Maximum:        1.209 MB (on task 1)
  |   Average:        1.207 MB
  | Peak value for overall tracked memory usage:
  |   Minimum:        5.110 MB (on task 2 after allocating wave)
  |   Maximum:        5.740 MB (on task 7 after allocating wave)
  |   Average:        5.503 MB
  | Largest tracked array allocation so far:
  |   Minimum:        2.453 MB (hamiltonian_shell on task 2)
  |   Maximum:        2.952 MB (hamiltonian_shell on task 7)
  |   Average:        2.763 MB
  Note:  These values currently only include a subset of arrays which are explicitly tracked.
  The "true" memory usage will be greater.
------------------------------------------------------------

------------------------------------------------------------
          Begin self-consistency iteration #    4

  Date     :  20190817, Time     :  153219.862
------------------------------------------------------------
  Evaluating new KS density using the density matrix
  Evaluating density matrix
  Time summed over all CPUs for getting density from density matrix: real work        0.276 s, elapsed        0.298 s
  Integration grid: deviation in total charge (<rho> - N_e) =  -3.019807E-14
  Pulay mixing of updated and previous charge densities.
  Renormalizing the density to the exact electron count on the 3D integration grid.
  | Formal number of electrons (from input files) :      13.0000000000
  | Integrated number of electrons on 3D grid     :      13.0001312762
  | Charge integration error                      :       0.0001312762
  | Normalization factor for density and gradient :       0.9999899019

  Evaluating partitioned Hartree potential by multipole expansion.
  | Original multipole sum: apparent total charge =  -0.660143E-14
  | Sum of charges compensated after spline to logarithmic grids =  -0.755204E-06
  | Analytical far-field extrapolation by fixed multipoles:
  | Hartree multipole sum: apparent total charge =   0.000000E+00
  Summing up the Hartree potential.
  Time summed over all CPUs for potential: real work        0.369 s, elapsed        0.391 s
  | RMS charge density error from multipole expansion :   0.461174E-02
  | Average real-space part of the electrostatic potential :     -0.37608065 eV

  Integrating Hamiltonian matrix: batch-based integration.
  Time summed over all CPUs for integration: real work        0.314 s, elapsed        0.341 s

  Updating Kohn-Sham eigenvalues and eigenvectors using ELSI and the (modified) LAPACK eigensolver.
  Starting LAPACK eigensolver
  Finished Cholesky decomposition
  | Time :     0.000 s
  Finished transformation to standard eigenproblem
  | Time :     0.000 s
  Finished solving standard eigenproblem
  | Time :     0.001 s
  Finished back-transformation of eigenvectors
  | Time :     0.000 s

  Obtaining occupation numbers and chemical potential using ELSI.
  | Chemical potential (Fermi level):    -5.74831448 eV
  What follows are estimated values for band gap, HOMO, LUMO, etc.
  | They are estimated on a discrete k-point grid and not necessarily exact.
  | For converged numbers, create a DOS and/or band structure plot on a denser k-grid.

  Highest occupied state (VBM) at     -5.75310382 eV (relative to internal zero)
  | Occupation number:      1.05400061
  | K-point:     483 at    0.125000    0.812500    0.375000 (in units of recip. lattice)

  Lowest unoccupied state (CBM) at    -5.70554982 eV (relative to internal zero)
  | Occupation number:      0.54532271
  | K-point:    1288 at    0.437500    0.000000    0.437500 (in units of recip. lattice)

  ESTIMATED overall HOMO-LUMO gap:      0.04755401 eV between HOMO at k-point 483 and LUMO at k-point 1288
  | This appears to be an indirect band gap.
  | Smallest direct gap :      0.67646430 eV for k_point 1882 at    0.437500    0.000000    0.437500 (in units of recip. lattice)
  However, this system has fractional occupation numbers. Since we use a finite k-point grid,
  this material is metallic within the approximate finite broadening function (occupation_type)
  applied to determine the occupation numbers.

  Total energy components:
  | Sum of eigenvalues            :        -135.49120707 Ha       -3686.90333186 eV
  | XC energy correction          :         -17.70882320 Ha        -481.88159708 eV
  | XC potential correction       :          23.38946420 Ha         636.45970358 eV
  | Free-atom electrostatic energy:        -112.66415468 Ha       -3065.74763243 eV
  | Hartree energy correction     :           0.31744721 Ha           8.63817818 eV
  | Entropy correction            :          -0.00002274 Ha          -0.00061890 eV
  | ---------------------------
  | Total energy                  :        -242.15727353 Ha       -6589.43467961 eV
  | Total energy, T -> 0          :        -242.15729628 Ha       -6589.43529851 eV  <-- do not rely on this value for anything but (periodic) metals
  | Electronic free energy        :        -242.15731902 Ha       -6589.43591740 eV

  Derived energy quantities:
  | Kinetic energy                :         242.30967773 Ha        6593.58180879 eV
  | Electrostatic energy          :        -466.75812807 Ha      -12701.13489132 eV
  | Energy correction for multipole
  | error in Hartree potential    :           0.00069338 Ha           0.01886777 eV
  | Sum of eigenvalues per atom                           :       -3686.90333186 eV
  | Total energy (T->0) per atom                          :       -6589.43529851 eV  <-- do not rely on this value for anything but (periodic) metals
  | Electronic free energy per atom                       :       -6589.43591740 eV

  Self-consistency convergence accuracy:
  | Change of charge density      :  0.6398E-03
  | Change of sum of eigenvalues  : -0.1717E+00 eV
  | Change of total energy        :  0.4717E-04 eV

  End self-consistency iteration #     4       :  max(cpu_time)    wall_clock(cpu1)
  | Time for this iteration                    :        0.277 s           0.278 s
  | Charge density update                      :        0.061 s           0.061 s
  | Density mixing & preconditioning           :        0.006 s           0.006 s
  | Hartree multipole update                   :        0.001 s           0.001 s
  | Hartree multipole summation                :        0.051 s           0.050 s
  | Integration                                :        0.044 s           0.044 s
  | Solution of K.-S. eqns.                    :        0.114 s           0.114 s
  | Total energy evaluation                    :        0.001 s           0.001 s

  Partial memory accounting:
  | Current value for overall tracked memory usage:
  |   Minimum:        1.206 MB (on task 5)
  |   Maximum:        1.209 MB (on task 1)
  |   Average:        1.207 MB
  | Peak value for overall tracked memory usage:
  |   Minimum:        5.110 MB (on task 2 after allocating wave)
  |   Maximum:        5.740 MB (on task 7 after allocating wave)
  |   Average:        5.503 MB
  | Largest tracked array allocation so far:
  |   Minimum:        2.453 MB (hamiltonian_shell on task 2)
  |   Maximum:        2.952 MB (hamiltonian_shell on task 7)
  |   Average:        2.763 MB
  Note:  These values currently only include a subset of arrays which are explicitly tracked.
  The "true" memory usage will be greater.
------------------------------------------------------------

------------------------------------------------------------
          Begin self-consistency iteration #    5

  Date     :  20190817, Time     :  153220.140
------------------------------------------------------------
  Evaluating new KS density using the density matrix
  Evaluating density matrix
  Time summed over all CPUs for getting density from density matrix: real work        0.281 s, elapsed        0.302 s
  Integration grid: deviation in total charge (<rho> - N_e) =   0.000000E+00
  Pulay mixing of updated and previous charge densities.
  Renormalizing the density to the exact electron count on the 3D integration grid.
  | Formal number of electrons (from input files) :      13.0000000000
  | Integrated number of electrons on 3D grid     :      13.0000469902
  | Charge integration error                      :       0.0000469902
  | Normalization factor for density and gradient :       0.9999963854

  Evaluating partitioned Hartree potential by multipole expansion.
  | Original multipole sum: apparent total charge =  -0.451975E-14
  | Sum of charges compensated after spline to logarithmic grids =  -0.761125E-06
  | Analytical far-field extrapolation by fixed multipoles:
  | Hartree multipole sum: apparent total charge =   0.000000E+00
  Summing up the Hartree potential.
  Time summed over all CPUs for potential: real work        0.373 s, elapsed        0.394 s
  | RMS charge density error from multipole expansion :   0.457817E-02
  | Average real-space part of the electrostatic potential :     -0.37436858 eV

  Integrating Hamiltonian matrix: batch-based integration.
  Time summed over all CPUs for integration: real work        0.312 s, elapsed        0.334 s

  Updating Kohn-Sham eigenvalues and eigenvectors using ELSI and the (modified) LAPACK eigensolver.
  Starting LAPACK eigensolver
  Finished Cholesky decomposition
  | Time :     0.000 s
  Finished transformation to standard eigenproblem
  | Time :     0.000 s
  Finished solving standard eigenproblem
  | Time :     0.001 s
  Finished back-transformation of eigenvectors
  | Time :     0.000 s

  Obtaining occupation numbers and chemical potential using ELSI.
  | Chemical potential (Fermi level):    -5.74821681 eV
  What follows are estimated values for band gap, HOMO, LUMO, etc.
  | They are estimated on a discrete k-point grid and not necessarily exact.
  | For converged numbers, create a DOS and/or band structure plot on a denser k-grid.

  Highest occupied state (VBM) at     -5.75300929 eV (relative to internal zero)
  | Occupation number:      1.05403594
  | K-point:     483 at    0.125000    0.812500    0.375000 (in units of recip. lattice)

  Lowest unoccupied state (CBM) at    -5.70545197 eV (relative to internal zero)
  | Occupation number:      0.54532102
  | K-point:    1288 at    0.437500    0.000000    0.437500 (in units of recip. lattice)

  ESTIMATED overall HOMO-LUMO gap:      0.04755732 eV between HOMO at k-point 483 and LUMO at k-point 1288
  | This appears to be an indirect band gap.
  | Smallest direct gap :      0.67652180 eV for k_point 1882 at    0.437500    0.000000    0.437500 (in units of recip. lattice)
  However, this system has fractional occupation numbers. Since we use a finite k-point grid,
  this material is metallic within the approximate finite broadening function (occupation_type)
  applied to determine the occupation numbers.

  Total energy components:
  | Sum of eigenvalues            :        -135.49025880 Ha       -3686.87752831 eV
  | XC energy correction          :         -17.70889395 Ha        -481.88352227 eV
  | XC potential correction       :          23.38955782 Ha         636.46225119 eV
  | Free-atom electrostatic energy:        -112.66415468 Ha       -3065.74763243 eV
  | Hartree energy correction     :           0.31647574 Ha           8.61174293 eV
  | Entropy correction            :          -0.00002274 Ha          -0.00061887 eV
  | ---------------------------
  | Total energy                  :        -242.15727388 Ha       -6589.43468889 eV
  | Total energy, T -> 0          :        -242.15729662 Ha       -6589.43530776 eV  <-- do not rely on this value for anything but (periodic) metals
  | Electronic free energy        :        -242.15731936 Ha       -6589.43592664 eV

  Derived energy quantities:
  | Kinetic energy                :         242.31226180 Ha        6593.65212496 eV
  | Electrostatic energy          :        -466.76064173 Ha      -12701.20329158 eV
  | Energy correction for multipole
  | error in Hartree potential    :           0.00068863 Ha           0.01873848 eV
  | Sum of eigenvalues per atom                           :       -3686.87752831 eV
  | Total energy (T->0) per atom                          :       -6589.43530776 eV  <-- do not rely on this value for anything but (periodic) metals
  | Electronic free energy per atom                       :       -6589.43592664 eV

  Self-consistency convergence accuracy:
  | Change of charge density      :  0.3611E-03
  | Change of sum of eigenvalues  :  0.2580E-01 eV
  | Change of total energy        : -0.9280E-05 eV

  End self-consistency iteration #     5       :  max(cpu_time)    wall_clock(cpu1)
  | Time for this iteration                    :        0.272 s           0.272 s
  | Charge density update                      :        0.060 s           0.060 s
  | Density mixing & preconditioning           :        0.006 s           0.006 s
  | Hartree multipole update                   :        0.001 s           0.001 s
  | Hartree multipole summation                :        0.051 s           0.051 s
  | Integration                                :        0.043 s           0.043 s
  | Solution of K.-S. eqns.                    :        0.110 s           0.110 s
  | Total energy evaluation                    :        0.001 s           0.000 s

  Partial memory accounting:
  | Current value for overall tracked memory usage:
  |   Minimum:        1.206 MB (on task 5)
  |   Maximum:        1.209 MB (on task 1)
  |   Average:        1.207 MB
  | Peak value for overall tracked memory usage:
  |   Minimum:        5.110 MB (on task 2 after allocating wave)
  |   Maximum:        5.740 MB (on task 7 after allocating wave)
  |   Average:        5.503 MB
  | Largest tracked array allocation so far:
  |   Minimum:        2.453 MB (hamiltonian_shell on task 2)
  |   Maximum:        2.952 MB (hamiltonian_shell on task 7)
  |   Average:        2.763 MB
  Note:  These values currently only include a subset of arrays which are explicitly tracked.
  The "true" memory usage will be greater.
------------------------------------------------------------

------------------------------------------------------------
          Begin self-consistency iteration #    6

  Date     :  20190817, Time     :  153220.413
------------------------------------------------------------
  Evaluating new KS density using the density matrix
  Evaluating density matrix
  Time summed over all CPUs for getting density from density matrix: real work        0.283 s, elapsed        0.305 s
  Integration grid: deviation in total charge (<rho> - N_e) =   1.421085E-14
  Pulay mixing of updated and previous charge densities.
  Renormalizing the density to the exact electron count on the 3D integration grid.
  | Formal number of electrons (from input files) :      13.0000000000
  | Integrated number of electrons on 3D grid     :      12.9999959565
  | Charge integration error                      :      -0.0000040435
  | Normalization factor for density and gradient :       1.0000003110

  Evaluating partitioned Hartree potential by multipole expansion.
  | Original multipole sum: apparent total charge =  -0.109521E-14
  | Sum of charges compensated after spline to logarithmic grids =  -0.744507E-06
  | Analytical far-field extrapolation by fixed multipoles:
  | Hartree multipole sum: apparent total charge =   0.000000E+00
  Summing up the Hartree potential.
  Time summed over all CPUs for potential: real work        0.376 s, elapsed        0.394 s
  | RMS charge density error from multipole expansion :   0.459223E-02
  | Average real-space part of the electrostatic potential :     -0.37471232 eV

  Integrating Hamiltonian matrix: batch-based integration.
  Time summed over all CPUs for integration: real work        0.311 s, elapsed        0.329 s

  Updating Kohn-Sham eigenvalues and eigenvectors using ELSI and the (modified) LAPACK eigensolver.
  Starting LAPACK eigensolver
  Finished Cholesky decomposition
  | Time :     0.000 s
  Finished transformation to standard eigenproblem
  | Time :     0.000 s
  Finished solving standard eigenproblem
  | Time :     0.001 s
  Finished back-transformation of eigenvectors
  | Time :     0.000 s

  Obtaining occupation numbers and chemical potential using ELSI.
  | Chemical potential (Fermi level):    -5.74817922 eV
  What follows are estimated values for band gap, HOMO, LUMO, etc.
  | They are estimated on a discrete k-point grid and not necessarily exact.
  | For converged numbers, create a DOS and/or band structure plot on a denser k-grid.

  Highest occupied state (VBM) at     -5.75296967 eV (relative to internal zero)
  | Occupation number:      1.05401322
  | K-point:    1786 at    0.687500    0.812500    0.437500 (in units of recip. lattice)

  Lowest unoccupied state (CBM) at    -5.70542689 eV (relative to internal zero)
  | Occupation number:      0.54543867
  | K-point:    1288 at    0.437500    0.000000    0.437500 (in units of recip. lattice)

  ESTIMATED overall HOMO-LUMO gap:      0.04754279 eV between HOMO at k-point 1786 and LUMO at k-point 1288
  | This appears to be an indirect band gap.
  | Smallest direct gap :      0.67655892 eV for k_point 1882 at    0.437500    0.000000    0.437500 (in units of recip. lattice)
  However, this system has fractional occupation numbers. Since we use a finite k-point grid,
  this material is metallic within the approximate finite broadening function (occupation_type)
  applied to determine the occupation numbers.

  Total energy components:
  | Sum of eigenvalues            :        -135.49024639 Ha       -3686.87719045 eV
  | XC energy correction          :         -17.70891967 Ha        -481.88422224 eV
  | XC potential correction       :          23.38959199 Ha         636.46318084 eV
  | Free-atom electrostatic energy:        -112.66415468 Ha       -3065.74763243 eV
  | Hartree energy correction     :           0.31645504 Ha           8.61117967 eV
  | Entropy correction            :          -0.00002274 Ha          -0.00061888 eV
  | ---------------------------
  | Total energy                  :        -242.15727372 Ha       -6589.43468461 eV
  | Total energy, T -> 0          :        -242.15729646 Ha       -6589.43530349 eV  <-- do not rely on this value for anything but (periodic) metals
  | Electronic free energy        :        -242.15731920 Ha       -6589.43592237 eV

  Derived energy quantities:
  | Kinetic energy                :         242.31286355 Ha        6593.66849938 eV
  | Electrostatic energy          :        -466.76121760 Ha      -12701.21896175 eV
  | Energy correction for multipole
  | error in Hartree potential    :           0.00069046 Ha           0.01878847 eV
  | Sum of eigenvalues per atom                           :       -3686.87719045 eV
  | Total energy (T->0) per atom                          :       -6589.43530349 eV  <-- do not rely on this value for anything but (periodic) metals
  | Electronic free energy per atom                       :       -6589.43592237 eV

  Self-consistency convergence accuracy:
  | Change of charge density      :  0.1328E-03
  | Change of sum of eigenvalues  :  0.3379E-03 eV
  | Change of total energy        :  0.4281E-05 eV

  End self-consistency iteration #     6       :  max(cpu_time)    wall_clock(cpu1)
  | Time for this iteration                    :        0.273 s           0.273 s
  | Charge density update                      :        0.061 s           0.061 s
  | Density mixing & preconditioning           :        0.006 s           0.006 s
  | Hartree multipole update                   :        0.001 s           0.001 s
  | Hartree multipole summation                :        0.051 s           0.051 s
  | Integration                                :        0.042 s           0.042 s
  | Solution of K.-S. eqns.                    :        0.111 s           0.111 s
  | Total energy evaluation                    :        0.001 s           0.001 s

  Partial memory accounting:
  | Current value for overall tracked memory usage:
  |   Minimum:        1.206 MB (on task 5)
  |   Maximum:        1.209 MB (on task 1)
  |   Average:        1.207 MB
  | Peak value for overall tracked memory usage:
  |   Minimum:        5.110 MB (on task 2 after allocating wave)
  |   Maximum:        5.740 MB (on task 7 after allocating wave)
  |   Average:        5.503 MB
  | Largest tracked array allocation so far:
  |   Minimum:        2.453 MB (hamiltonian_shell on task 2)
  |   Maximum:        2.952 MB (hamiltonian_shell on task 7)
  |   Average:        2.763 MB
  Note:  These values currently only include a subset of arrays which are explicitly tracked.
  The "true" memory usage will be greater.
------------------------------------------------------------

------------------------------------------------------------
          Begin self-consistency iteration #    7

  Date     :  20190817, Time     :  153220.687
------------------------------------------------------------
  Evaluating new KS density using the density matrix
  Evaluating density matrix
  Time summed over all CPUs for getting density from density matrix: real work        0.286 s, elapsed        0.315 s
  Integration grid: deviation in total charge (<rho> - N_e) =  -4.973799E-14
  Pulay mixing of updated and previous charge densities.
  Renormalizing the density to the exact electron count on the 3D integration grid.
  | Formal number of electrons (from input files) :      13.0000000000
  | Integrated number of electrons on 3D grid     :      12.9999994192
  | Charge integration error                      :      -0.0000005808
  | Normalization factor for density and gradient :       1.0000000447

  Evaluating partitioned Hartree potential by multipole expansion.
  | Original multipole sum: apparent total charge =  -0.466481E-15
[...]
  | XC energy correction          :         -17.71829920 Ha        -482.13945228 eV
  | XC potential correction       :          23.40191672 Ha         636.79855392 eV
  | Free-atom electrostatic energy:        -112.62462904 Ha       -3064.67208485 eV
  | Hartree energy correction     :           0.31362889 Ha           8.53427634 eV
  | Entropy correction            :          -0.00002123 Ha          -0.00057771 eV
  | ---------------------------
  | Total energy                  :        -242.15741075 Ha       -6589.43841345 eV
  | Total energy, T -> 0          :        -242.15743198 Ha       -6589.43899116 eV  <-- do not rely on this value for anything but (periodic) metals
  | Electronic free energy        :        -242.15745321 Ha       -6589.43956887 eV

  Derived energy quantities:
  | Kinetic energy                :         242.34321890 Ha        6594.49451047 eV
  | Electrostatic energy          :        -466.78233045 Ha      -12701.79347165 eV
  | Energy correction for multipole
  | error in Hartree potential    :           0.00072466 Ha           0.01971893 eV
  | Sum of eigenvalues per atom                           :       -3687.95970659 eV
  | Total energy (T->0) per atom                          :       -6589.43899116 eV  <-- do not rely on this value for anything but (periodic) metals
  | Electronic free energy per atom                       :       -6589.43956887 eV

  atomic forces [eV/Ang]:
  -----------------------
  atom #    1
   Hellmann-Feynman              : -0.106023E-11  0.514631E-12 -0.327665E-11
   Ionic forces                  :  0.000000E+00  0.000000E+00  0.000000E+00
   Multipole                     :  0.851220E-13  0.240283E-12  0.154261E-12
   Pulay                         : -0.607985E-09 -0.289085E-08  0.250209E-08
   ----------------------------------------------------------------
   Total forces(   1)            : -0.608960E-09 -0.289010E-08  0.249897E-08


  Analytical stress tensor components [eV]         xx                  yy                  zz                  xy                  xz                  yz
  -----------------------------------------------------------------------------------------------------------------------------------------------------------
    Nuclear Hellmann-Feynman      :    -0.5614327291E+01   -0.5618779348E+01   -0.5618775118E+01    0.9940233077E-02   -0.9433301059E-02   -0.5278883158E-03
    Multipole Hellmann-Feynman    :    -0.2646317580E+02   -0.2646786319E+02   -0.2646785648E+02    0.1763217083E-01   -0.1673299157E-01   -0.9552759639E-03
    On-site Multipole corrections :    -0.1145519287E+00   -0.1145415119E+00   -0.1145415052E+00   -0.6544291820E-05    0.6213714751E-05    0.3996402889E-06
    Strain deriv. of the orbitals :     0.3218280210E+02    0.3218332470E+02    0.3218331497E+02   -0.2255343001E-01    0.2140507284E-01    0.1255683952E-02
  -----------------------------------------------------------------------------------------------------------------------------------------------------------
  Sum of all contributions        :    -0.9252919457E-02   -0.1785935822E-01   -0.1785813479E-01    0.5012429604E-02   -0.4755006074E-02   -0.2270806875E-03

  +-------------------------------------------------------------------+
  |              Analytical stress tensor - Symmetrized               |
  |                  Cartesian components [eV/A**3]                   |
  +-------------------------------------------------------------------+
  |                x                y                z                |
  |                                                                   |
  |  x        -0.00058590       0.00031739      -0.00030109           |
  |  y         0.00031739      -0.00113086      -0.00001438           |
  |  z        -0.00030109      -0.00001438      -0.00113079           |
  |                                                                   |
  |  Pressure:       0.00094918   [eV/A**3]                           |
  |                                                                   |
  +-------------------------------------------------------------------+

 * Warning: Stress tensor is anisotropic. Be aware that pressure is an isotropic quantity.


  Self-consistency convergence accuracy:
  | Change of charge density      :  0.4187E-06
  | Change of sum of eigenvalues  :  0.5975E-04 eV
  | Change of total energy        : -0.1116E-07 eV
  | Change of forces              :  0.4914E-11 eV/A

  Writing Kohn-Sham eigenvalues.
  K-point:       1 at    0.000000    0.000000    0.000000 (in units of recip. lattice)

  State    Occupation    Eigenvalue [Ha]    Eigenvalue [eV]
      1       2.00000         -55.415013        -1507.91923
      2       2.00000          -3.985915         -108.46228
      3       2.00000          -2.595912          -70.63837
      4       2.00000          -2.595907          -70.63823
      5       2.00000          -2.595903          -70.63812
      6       2.00000          -0.636246          -17.31313
      7       0.00000           0.256135            6.96979
      8       0.00000           0.256952            6.99203
      9       0.00000           0.257495            7.00678
     10       0.00000           0.337392            9.18090

  What follows are estimated values for band gap, HOMO, LUMO, etc.
  | They are estimated on a discrete k-point grid and not necessarily exact.
  | For converged numbers, create a DOS and/or band structure plot on a denser k-grid.

  Highest occupied state (VBM) at     -5.89031254 eV (relative to internal zero)
  | Occupation number:      1.36519416
  | K-point:    1906 at    0.812500    0.687500    0.437500 (in units of recip. lattice)

  Lowest unoccupied state (CBM) at    -5.77009110 eV (relative to internal zero)
  | Occupation number:      0.22049448
  | K-point:     884 at    0.250000    0.875000    0.750000 (in units of recip. lattice)

  ESTIMATED overall HOMO-LUMO gap:      0.12022144 eV between HOMO at k-point 1906 and LUMO at k-point 884
  | This appears to be an indirect band gap.
  | Smallest direct gap :      0.73846527 eV for k_point 653 at    0.250000    0.875000    0.750000 (in units of recip. lattice)
  However, this system has fractional occupation numbers. Since we use a finite k-point grid,
  this material is metallic within the approximate finite broadening function (occupation_type)
  applied to determine the occupation numbers.

  Self-consistency cycle converged.

  End self-consistency iteration #     8       :  max(cpu_time)    wall_clock(cpu1)
  | Time for this iteration                    :        2.043 s           2.045 s
  | Charge density & force component update    :        1.660 s           1.660 s
  | Density mixing                             :        0.001 s           0.001 s
  | Hartree multipole update                   :        0.001 s           0.001 s
  | Hartree multipole summation                :        0.213 s           0.213 s
  | Integration                                :        0.049 s           0.049 s
  | Solution of K.-S. eqns.                    :        0.118 s           0.118 s
  | Total energy evaluation                    :        0.001 s           0.001 s

  Partial memory accounting:
  | Current value for overall tracked memory usage:
  |   Minimum:        1.954 MB (on task 5)
  |   Maximum:        1.960 MB (on task 1)
  |   Average:        1.957 MB
  | Peak value for overall tracked memory usage:
  |   Minimum:       11.708 MB (on task 1 after allocating d_wave)
  |   Maximum:       12.247 MB (on task 4 after allocating d_wave)
  |   Average:       11.955 MB
  | Largest tracked array allocation so far:
  |   Minimum:        2.895 MB (hamiltonian_shell on task 3)
  |   Maximum:        3.086 MB (density_matrix_con on task 4)
  |   Average:        2.960 MB
  Note:  These values currently only include a subset of arrays which are explicitly tracked.
  The "true" memory usage will be greater.
------------------------------------------------------------
  Removing unitary transformations (pure translations, rotations) from forces on atoms.
  Atomic forces before filtering:
  | Net force on center of mass :  -0.608960E-09 -0.289010E-08  0.249897E-08 eV/A
  Atomic forces after filtering:
  | Net force on center of mass :   0.000000E+00  0.000000E+00  0.000000E+00 eV/A

  Energy and forces in a compact form:
  | Total energy uncorrected      :         -0.658943841345370E+04 eV
  | Total energy corrected        :         -0.658943899116219E+04 eV  <-- do not rely on this value for anything but (periodic) metals
  | Electronic free energy        :         -0.658943956887069E+04 eV
  Total atomic forces (unitary forces were cleaned, then relaxation constraints were applied) [eV/Ang]:
  |    1          0.000000000000000E+00          0.000000000000000E+00          0.000000000000000E+00

  ------------------------------------ 
  Start decomposition of the XC Energy 
  ------------------------------------ 
  X and C from original XC functional choice 
  Hartree-Fock Energy :          0.000000000 Ha              0.000000000 eV
  X Energy            :        -16.728448643 Ha           -455.204248119 eV
  C Energy            :         -0.989850559 Ha            -26.935204163 eV
  Total XC Energy     :        -17.718299202 Ha           -482.139452282 eV
  ------------------------------------ 
  LDA X and C from self-consistent density 
  X Energy LDA        :        -16.728448643 Ha           -455.204248119 eV
  C Energy LDA        :         -0.989850559 Ha            -26.935204163 eV
  ------------------------------------ 
  End decomposition of the XC Energy 
  ------------------------------------ 

------------------------------------------------------------
  Relaxation / MD: End force evaluation.       :  max(cpu_time)    wall_clock(cpu1)
  | Time for this force evaluation             :        4.484 s           4.486 s

------------------------------------------------------------
  Geometry optimization: Attempting to predict improved coordinates.

  +-------------------------------------------------------------------+
  | Generalized derivatives on lattice vectors [eV/A]                 |
  +-------------------------------------------------------------------+
  |lattice_vector       0.00012424      -0.00315972       0.00322917  |
  |lattice_vector       0.00239205      -0.00580874      -0.00333969  |
  |lattice_vector      -0.00477611       0.00568803      -0.00562825  |
  +-------------------------------------------------------------------+
  | Forces on lattice vectors cleaned from atomic contributions [eV/A]|
  +-------------------------------------------------------------------+
  |lattice_vector      -0.00012424       0.00315972      -0.00322917  |
  |lattice_vector      -0.00239205       0.00580874       0.00333969  |
  |lattice_vector       0.00477611      -0.00568803       0.00562825  |
  +-------------------------------------------------------------------+
  Removing unitary transformations (pure translations, rotations) from forces on atoms.
  Atomic forces before filtering:
  | Net force on center of mass :   0.000000E+00  0.000000E+00  0.000000E+00 eV/A
  Atomic forces after filtering:
  | Net force on center of mass :   0.000000E+00  0.000000E+00  0.000000E+00 eV/A
  Net remaining forces (excluding translations, rotations) in present geometry:
  || Forces on atoms   || =   0.000000E+00 eV/A.
  || Forces on lattice || =   0.580874E-02 eV/A^3.
  Maximum force component is  0.580874E-02 eV/A.
  Present geometry is converged.

------------------------------------------------------------
  Final atomic structure:
                         x [A]             y [A]             z [A]
  lattice_vector         1.99457687        1.98996636        0.00000000
  lattice_vector         0.00000000        1.99210241        1.98988124
  lattice_vector         1.98921838        0.00000000        1.99218760

            atom         0.00000000        0.00000000        0.00000000  Al

  Fractional coordinates:
                         L1                L2                L3
       atom_frac         0.00000000        0.00000000        0.00000000  Al
------------------------------------------------------------
  |------------------------------------------------------
  | Final ELSI Output
  |------------------------------------------------------
  |
  | Physical Properties
  |   Number of electrons       :        0.13000000E+02
  |   Number of states          :                    10
  |
  | Matrix Properties
  |   Matrix format             :           BLACS_DENSE
  |   Number of basis functions :                    18
  |
  | Computational Details
  |   Parallel mode             :           SINGLE_PROC
  |   Solver requested          :                LAPACK
  |   Number of ELSI calls      :                  6656
  |
  |------------------------------------------------------
  | ELSI Project (c)  elsi-interchange.org
  |------------------------------------------------------

------------------------------------------------------------------------------
  Final output of selected total energy values:

  The following output summarizes some interesting total energy values
  at the end of a run (AFTER all relaxation, molecular dynamics, etc.).

  | Total energy of the DFT / Hartree-Fock s.c.f. calculation      :          -6589.438413454 eV
  | Final zero-broadening corrected energy (caution - metals only) :          -6589.438991162 eV
  | For reference only, the value of 1 Hartree used in FHI-aims is :             27.211384500 eV
  | For reference only, the overall average (free atom contribution
  | + realspace contribution) of the electrostatic potential after
  | s.c.f. convergence is                                          :            -16.455060918 eV

  Before relying on these values, please be sure to understand exactly which
  total energy value is referred to by a given number. Different objects may
  all carry the same name 'total energy'. Definitions:

  Total energy of the DFT / Hartree-Fock s.c.f. calculation:
  | Note that this energy does not include ANY quantities calculated after the
  | s.c.f. cycle, in particular not ANY RPA, MP2, etc. many-body perturbation terms.

  Final zero-broadening corrected energy:
  | For metallic systems only, a broadening of the occupation numbers at the Fermi
  | level can be extrapolated back to zero broadening by an electron-gas inspired
  | formula. For all systems that are not real metals, this value can be
  | meaningless and should be avoided.

------------------------------------------------------------------------------
  Methods described in the following list of references were used in this FHI-aims run.
  If you publish the results, please make sure to cite these reference if they apply.
  FHI-aims is an academic code, and for our developers (often, Ph.D. students
  and postdocs), scientific credit in the community is essential.
  Thank you for helping us!

  For any use of FHI-aims, please cite:

    Volker Blum, Ralf Gehrke, Felix Hanke, Paula Havu, Ville Havu,
    Xinguo Ren, Karsten Reuter, and Matthias Scheffler
    'Ab initio molecular simulations with numeric atom-centered orbitals'
    Computer Physics Communications 180, 2175-2196 (2009)
    http://dx.doi.org/10.1016/j.cpc.2009.06.022


  For the analytical stress tensor used in your run, please cite:

    Franz Knuth, Christian Carbogno, Viktor Atalla, Volker Blum, Matthias Scheffler
    'All-electron formalism for total energy strain derivatives and
    stress tensor components for numeric atom-centered orbitals'
    Computer Physics Communications 190, 33-50 (2015).
    http://dx.doi.org/10.1016/j.cpc.2015.01.003


  The provided symmetry information was generated with SPGlib:

    Atsushi Togo, Yusuke Seto, Dimitar Pashov
    SPGlib 1.7.3 obtained from http://spglib.sourceforge.net
    Copyright (C) 2008 Atsushi Togo


  The ELSI infrastructure was used in your run to solve the Kohn-Sham electronic structure.
  Please check out http://elsi-interchange.org to learn more.
  If scalability is important for your project, please acknowledge ELSI by citing:

    V. W-z. Yu, F. Corsetti, A. Garcia, W. P. Huhn, M. Jacquelin, W. Jia,
    B. Lange, L. Lin, J. Lu, W. Mi, A. Seifitokaldani, A. Vazquez-Mayagoitia,
    C. Yang, H. Yang, and V. Blum
    'ELSI: A unified software interface for Kohn-Sham electronic structure solvers'
    Computer Physics Communications 222, 267-285 (2018).
    http://dx.doi.org/10.1016/j.cpc.2017.09.007


  For the real-space grid partitioning and parallelization used in this calculation, please cite:

    Ville Havu, Volker Blum, Paula Havu, and Matthias Scheffler,
    'Efficient O(N) integration for all-electron electronic structure calculation'
    'using numerically tabulated basis functions'
    Journal of Computational Physics 228, 8367-8379 (2009).
    http://dx.doi.org/10.1016/j.jcp.2009.08.008

  Of course, there are many other important community references, e.g., those cited in the
  above references. Our list is limited to references that describe implementations in the
  FHI-aims code. The reason is purely practical (length of this list) - please credit others as well.

------------------------------------------------------------
          Leaving FHI-aims.
          Date     :  20190817, Time     :  153232.184

          Computational steps:
          | Number of self-consistency cycles          :           25
          | Number of SCF (re)initializations          :            3
          | Number of relaxation steps                 :            2

          Detailed time accounting                     :  max(cpu_time)    wall_clock(cpu1)
          | Total time                                 :       13.701 s          13.758 s
          | Preparation time                           :        0.149 s           0.149 s
          | Boundary condition initalization           :        0.380 s           0.377 s
          | Grid partitioning                          :        0.022 s           0.021 s
          | Preloading free-atom quantities on grid    :        0.074 s           0.073 s
          | Free-atom superposition energy             :        0.015 s           0.015 s
          | Total time for integrations                :        1.295 s           1.298 s
          | Total time for solution of K.-S. equations :        2.966 s           2.966 s
          | Total time for EV reorthonormalization     :        0.039 s           0.040 s
          | Total time for density & force components  :        6.159 s           6.160 s
          | Total time for mixing & preconditioning    :        0.112 s           0.112 s
          | Total time for Hartree multipole update    :        0.017 s           0.019 s
          | Total time for Hartree multipole sum       :        2.260 s           2.256 s
          | Total time for total energy evaluation     :        0.024 s           0.021 s
          | Total time for scaled ZORA corrections     :        0.000 s           0.000 s

          Partial memory accounting:
          | Residual value for overall tracked memory usage across tasks:     0.000000 MB (should be 0.000000 MB)
          | Peak values for overall tracked memory usage:
          |   Minimum:       11.708 MB (on task 1 after allocating d_wave)
          |   Maximum:       12.247 MB (on task 4 after allocating d_wave)
          |   Average:       11.955 MB
          | Largest tracked array allocation:
          |   Minimum:        2.895 MB (hamiltonian_shell on task 3)
          |   Maximum:        3.086 MB (density_matrix_con on task 4)
          |   Average:        2.960 MB
          Note:  These values currently only include a subset of arrays which are explicitly tracked.
          The "true" memory usage will be greater.

          Have a nice day.
------------------------------------------------------------
