  MPI-parallelism will be employed.
------------------------------------------------------------
          Invoking FHI-aims ...
          Version 180101-
          Git rev. (modified): fa29f3a Merge branch master of fhiaims.rzberlin.mp[...]
          Compiled on 2018/01/19 at 14:47:46 on host theobook132.

          When using FHI-aims, please cite the following reference:

          Volker Blum, Ralf Gehrke, Felix Hanke, Paula Havu,
          Ville Havu, Xinguo Ren, Karsten Reuter, and Matthias Scheffler,
          'Ab Initio Molecular Simulations with Numeric Atom-Centered Orbitals',
          Computer Physics Communications 180, 2175-2196 (2009)

          For any questions about FHI-aims, please visit the aimsclub website
          with its forums and wiki. Contributions to both the forums and the
          wiki are warmly encouraged - they are for you, and everyone is welcome there.

------------------------------------------------------------



  Date     :  20180216, Time     :  134256.649
  Time zero on CPU 1             :   0.440000000000000E-01  s.
  Internal wall clock time zero  :           288020576.649  s.

  FHI-aims created a unique identifier for this run for later identification
  aims_uuid : BF230858-DF3C-4C57-ABBC-59B3238F51ED

  Using        8 parallel tasks.
  Task        0 on host theobook132 reporting.
  Task        1 on host theobook132 reporting.
  Task        2 on host theobook132 reporting.
  Task        3 on host theobook132 reporting.
  Task        4 on host theobook132 reporting.
  Task        5 on host theobook132 reporting.
  Task        6 on host theobook132 reporting.
  Task        7 on host theobook132 reporting.

  Performing system and environment tests:
  *** Environment variable OMP_NUM_THREADS is not set
  *** For performance reasons you might want to set it to 1
  | Stacksize not measured: no C compiler
  | Checking for scalapack...
  | No scalapack compiled in.

  Obtaining array dimensions for all initial allocations:
  
  -----------------------------------------------------------------------
  Parsing control.in (first pass over file, find array dimensions only).
  The contents of control.in will be repeated verbatim below
  unless switched off by setting 'verbatim_writeout .false.' .
  in the first line of control.in .
  -----------------------------------------------------------------------
  
  #########################################################################################
  #
  #  Volker Blum, FHI 2008 : Test run input file control.in for simple H2O
  #
  #########################################################################################
  #
  #  Physical model
  #
    xc                 pbe
    vdw_correction_hirshfeld
    spin               none
    relativistic       none
    charge             0.0
  #
  #  SCF convergence
  #
    occupation_type    gaussian 0.01
    mixer              pulay
      n_max_pulay        10
      charge_mix_param   0.5
    sc_accuracy_rho    1E-5
    sc_accuracy_eev    1E-3
    sc_accuracy_etot   1E-6
    sc_iter_limit      60
  #
  #  Eigenvalue solution
  #
   # KS_method	     scalapack_fast
   #   empty_states       3
   #   basis_threshold    1.e-5
  #
  #  Efficiency
  #
  #   communication_type shmem
  #
  #  Relaxation
  #
  #
   # init_hess          Lindh
  # create a better hesse matrix by lindhh-script.
  #  relax_geometry     trm 5.e-3
  # relax_geometry     trm 1.e-2
  #
  #  relax_geometry   bfgs 1.e-2
  #
  # Check below which parameters used!
  compute_forces .true.
  final_forces_cleaned .true.
  ################################################################################
  #
  #  FHI-aims code project
  #  VB, Fritz-Haber Institut, 2009
  #
  #  Suggested "light" defaults for H atom (to be pasted into control.in file)
  #  Be sure to double-check any results obtained with these settings for post-processing,
  #  e.g., with the "tight" defaults and larger basis sets.
  #
  ################################################################################
    species        H
  #     global species definitions
      nucleus             1
      mass                1.00794
  #
      l_hartree           4
  #
      cut_pot             3.5  1.5  1.0
      basis_dep_cutoff    1e-4
  #
      radial_base         24 5.0
      radial_multiplier   1
      angular_grids       specified
        division   0.2421   50
        division   0.3822  110
        division   0.4799  194
        division   0.5341  302
  #      division   0.5626  434
  #      division   0.5922  590
  #      division   0.6542  770
  #      division   0.6868 1202
  #      outer_grid  770
        outer_grid  302
  ################################################################################
  #
  #  Definition of "minimal" basis
  #
  ################################################################################
  #     valence basis states
      valence      1  s   1.
  #     ion occupancy
      ion_occ      1  s   0.5
  ################################################################################
  #
  #  Suggested additional basis functions. For production calculations,
  #  uncomment them one after another (the most important basis functions are
  #  listed first).
  #
  #  Basis constructed for dimers: 0.5 A, 0.7 A, 1.0 A, 1.5 A, 2.5 A
  #
  ################################################################################
  #  "First tier" - improvements: -1014.90 meV to -62.69 meV
       hydro 2 s 2.1
       hydro 2 p 3.5
  #  "Second tier" - improvements: -12.89 meV to -1.83 meV
  #     hydro 1 s 0.85
  #     hydro 2 p 3.7
  #     hydro 2 s 1.2
  #     hydro 3 d 7
  #  "Third tier" - improvements: -0.25 meV to -0.12 meV
  #     hydro 4 f 11.2
  #     hydro 3 p 4.8
  #     hydro 4 d 9
  #     hydro 3 s 3.2
  ################################################################################
  #
  #  FHI-aims code project
  #  VB, Fritz-Haber Institut, 2009
  #
  #  Suggested "light" defaults for C atom (to be pasted into control.in file)
  #  Be sure to double-check any results obtained with these settings for post-processing,
  #  e.g., with the "tight" defaults and larger basis sets.
  #
  ################################################################################
    species        C
  #     global species definitions
      nucleus             6
      mass                12.0107
  #
      l_hartree           4
  #
      cut_pot             3.5  1.5  1.0
      basis_dep_cutoff    1e-4
  #
      radial_base         34 5.0
      radial_multiplier   1
      angular_grids specified
        division   0.3326   50
        division   0.5710  110
        division   0.7727  194
        division   0.8772  302
  #      division   0.9334  434
  #      division   0.9625  590
  #      division   0.9924  770
  #      division   1.0230  974
  #      division   1.4589 1202
  #     outer_grid  974
       outer_grid 302
  ################################################################################
  #
  #  Definition of "minimal" basis
  #
  ################################################################################
  #     valence basis states
      valence      2  s   2.
      valence      2  p   2.
  #     ion occupancy
      ion_occ      2  s   1.
      ion_occ      2  p   1.
  ################################################################################
  #
  #  Suggested additional basis functions. For production calculations,
  #  uncomment them one after another (the most important basis functions are
  #  listed first).
  #
  #  Constructed for dimers: 1.0 A, 1.25 A, 1.5 A, 2.0 A, 3.0 A
  #
  ################################################################################
  #  "First tier" - improvements: -1214.57 meV to -155.61 meV
       hydro 2 p 1.7
       hydro 3 d 6
       hydro 2 s 4.9
  #  "Second tier" - improvements: -67.75 meV to -5.23 meV
  #     hydro 4 f 9.8
  #     hydro 3 p 5.2
  #     hydro 3 s 4.3
  #     hydro 5 g 14.4
  #     hydro 3 d 6.2
  #  "Third tier" - improvements: -2.43 meV to -0.60 meV
  #     hydro 2 p 5.6
  #     hydro 2 s 1.4
  #     hydro 3 d 4.9
  #     hydro 4 f 11.2
  #  "Fourth tier" - improvements: -0.39 meV to -0.18 meV
  #     hydro 2 p 2.1
  #     hydro 5 g 16.4
  #     hydro 4 d 13.2
  #     hydro 3 s 13.6
  #     hydro 4 f 17.6
  #  Further basis functions - improvements: -0.08 meV and below
  #     hydro 3 s 2
  #     hydro 3 p 6
  #     hydro 4 d 20
  ################################################################################
  #
  #  FHI-aims code project
  #  VB, Fritz-Haber Institut, 2009
  #
  #  Suggested "light" defaults for N atom (to be pasted into control.in file)
  #  Be sure to double-check any results obtained with these settings for post-processing,
  #  e.g., with the "tight" defaults and larger basis sets.
  #
  ################################################################################
    species        N
  #     global species definitions
      nucleus             7
      mass                14.0067
  #
      l_hartree           4
  #
      cut_pot             3.5  1.5  1.0
      basis_dep_cutoff    1e-4
  #
      radial_base         35 5.0
      radial_multiplier   1
      angular_grids       specified
        division   0.2599   50
        division   0.4601  110
        division   0.5885  194
        division   0.6503  302
  #      division   0.6939  434
  #      division   0.7396  590
  #      division   0.7632  770
  #      division   0.8122  974
  #      division   1.1604 1202
  #      outer_grid  974
        outer_grid  302
  ################################################################################
  #
  #  Definition of "minimal" basis
  #
  ################################################################################
  #     valence basis states
      valence      2  s   2.
      valence      2  p   3.
  #     ion occupancy
      ion_occ      2  s   1.
      ion_occ      2  p   2.
  ################################################################################
  #
  #  Suggested additional basis functions. For production calculations,
  #  uncomment them one after another (the most important basis functions are
  #  listed first).
  #
  #  Constructed for dimers: 1.0 A, 1.1 A, 1.5 A, 2.0 A, 3.0 A
  #
  ################################################################################
  #  "First tier" - improvements: -1193.42 meV to -220.60 meV
       hydro 2 p 1.8
       hydro 3 d 6.8
       hydro 3 s 5.8
  #  "Second tier" - improvements: -80.21 meV to -6.86 meV
  #     hydro 4 f 10.8
  #     hydro 3 p 5.8
  #     hydro 1 s 0.8
  #     hydro 5 g 16
  #     hydro 3 d 4.9
  #  "Third tier" - improvements: -4.29 meV to -0.53 meV
  #     hydro 3 s 16
  #     ionic 2 p auto
  #     hydro 3 d 6.6
  #     hydro 4 f 11.6
  #  "Fourth tier" - improvements: -0.75 meV to -0.25 meV
  #     hydro 2 p 4.5
  #     hydro 2 s 2.4
  #     hydro 5 g 14.4
  #     hydro 4 d 14.4
  #     hydro 4 f 16.8
  # Further basis functions - -0.21 meV and below
  #     hydro 3 p 14.8
  #     hydro 3 s 4.4
  #     hydro 3 d 19.6
  #     hydro 5 g 12.8
  ################################################################################
  #
  #  FHI-aims code project
  #  VB, Fritz-Haber Institut, 2009
  #
  #  Suggested "light" defaults for O atom (to be pasted into control.in file)
  #  Be sure to double-check any results obtained with these settings for post-processing,
  #  e.g., with the "tight" defaults and larger basis sets.
  #
  ################################################################################
    species        O
  #     global species definitions
      nucleus             8
      mass                15.9994
  #
      l_hartree           4
  #
      cut_pot             3.5  1.5  1.0
      basis_dep_cutoff    1e-4
  #
      radial_base         36 5.0
      radial_multiplier   1
       angular_grids specified
        division   0.2659   50
        division   0.4451  110
        division   0.6052  194
        division   0.7543  302
  #      division   0.8014  434
  #      division   0.8507  590
  #      division   0.8762  770
  #      division   0.9023  974
  #      division   1.2339 1202
  #      outer_grid 974
        outer_grid 302
  ################################################################################
  #
  #  Definition of "minimal" basis
  #
  ################################################################################
  #     valence basis states
      valence      2  s   2.
      valence      2  p   4.
  #     ion occupancy
      ion_occ      2  s   1.
      ion_occ      2  p   3.
  ################################################################################
  #
  #  Suggested additional basis functions. For production calculations,
  #  uncomment them one after another (the most important basis functions are
  #  listed first).
  #
  #  Constructed for dimers: 1.0 A, 1.208 A, 1.5 A, 2.0 A, 3.0 A
  #
  ################################################################################
  #  "First tier" - improvements: -699.05 meV to -159.38 meV
       hydro 2 p 1.8
       hydro 3 d 7.6
       hydro 3 s 6.4
  #  "Second tier" - improvements: -49.91 meV to -5.39 meV
  #     hydro 4 f 11.6
  #     hydro 3 p 6.2
  #     hydro 3 d 5.6
  #     hydro 5 g 17.6
  #     hydro 1 s 0.75
  #  "Third tier" - improvements: -2.83 meV to -0.50 meV
  #     ionic 2 p auto
  #     hydro 4 f 10.8
  #     hydro 4 d 4.7
  #     hydro 2 s 6.8
  #  "Fourth tier" - improvements: -0.40 meV to -0.12 meV
  #     hydro 3 p 5
  #     hydro 3 s 3.3
  #     hydro 5 g 15.6
  #     hydro 4 f 17.6
  #     hydro 4 d 14
  # Further basis functions - -0.08 meV and below
  #     hydro 3 s 2.1
  #     hydro 4 d 11.6
  #     hydro 3 p 16
  #     hydro 2 s 17.2
  ################################################################################
  #
  #  FHI-aims code project
  #  VB, Fritz-Haber Institut, 2009
  #
  #  Suggested "light" defaults for Na atom (to be pasted into control.in file)
  #  Be sure to double-check any results obtained with these settings for post-processing,
  #  e.g., with the "tight" defaults and larger basis sets.
  #
  ################################################################################
    species        Na
  #     global species definitions
      nucleus             11
      mass                22.98976928
  #
      l_hartree           4
  #
      cut_pot             4.0          1.5  1.0
      basis_dep_cutoff    1e-4
  #
      radial_base         40 5.5
      radial_multiplier   1
      angular_grids       specified
        division   0.5925  110
        division   0.7843  194
        division   1.0201  302
  #      division   1.1879  434
  #      division   1.3799  590
  #      division   1.4503  770
  #      division   7.0005  974
  #      outer_grid  974
        outer_grid  302
  ################################################################################
  #
  #  Definition of "minimal" basis
  #
  ################################################################################
  #     valence basis states
      valence      3  s   1.
      valence      2  p   6.
  #     ion occupancy
      ion_occ      2  s   2.
      ion_occ      2  p   6.
  ################################################################################
  #
  #  Suggested additional basis functions. For production calculations,
  #  uncomment them one after another (the most important basis functions are
  #  listed first).
  #
  #  Constructed for dimers: 2.0 A, 2.5 A, 3.0 A, 3.75 A, 4.5 A
  #
  ################################################################################
  #  "First tier" - improvements: -60.09 meV to -10.02 meV
       hydro 2 p 1.2
       hydro 3 s 1.8
       hydro 3 d 3.8
  #  "Second tier" - improvements: -2.94 meV to -1.27 meV
  #     hydro 4 p 3.1
  #     hydro 3 s 10
  #     hydro 4 f 6.2
  #     hydro 4 d 1.3
  #  "Third tier" - improvements: -0.83 meV to -0.07 meV
  #     hydro 3 d 7.8
  #     hydro 3 p 2.3
  #     hydro 5 g 9.6
  #     hydro 4 p 0.85
  #     hydro 5 f 1.8
  #     hydro 2 s 0.6
  #  Further basis functions that fell out of the optimization - noise level...
  #     hydro 5 g 0.1
  #     hydro 4 d 3.4
  #     hydro 4 s 0.1
  
  
  -----------------------------------------------------------------------
  Completed first pass over input file control.in .
  -----------------------------------------------------------------------
  
  
  -----------------------------------------------------------------------
  Parsing geometry.in (first pass over file, find array dimensions only).
  The contents of geometry.in will be repeated verbatim below
  unless switched off by setting 'verbatim_writeout .false.' .
  in the first line of geometry.in .
  -----------------------------------------------------------------------
  
  #=======================================#
  # iterations/iteration0077/aims-chain-node-0.18182/geometry.in
  #=======================================#
  atom -2.4586000638459216 -2.9845926310273621 -1.0097977727256946 C
  atom -1.9203266028235180 -1.5619297319185053 -0.9909392224781811 C
  atom -2.5396442766189606 -0.6005335533640033 -1.4551851377403395 O
  atom -2.0500746032135866 -3.6007564648062043 -0.1976022062021205 H
  atom -3.5516492892805269 -2.9610031310045528 -0.9420484982903525 H
  atom -2.1850690349834010 -3.4549029720927638 -1.9659734506284323 H
  atom -0.6794344303691462 -1.4443593462910367 -0.4279058908727918 N
  atom 0.1100074466149731 -0.2283461296322187 -0.4829293020552620 C
  atom -0.2883357190579631 0.7708335655492942 0.6192794075789531 C
  atom 1.5786152724762839 -0.6874316371961509 -0.3550633422942949 C
  atom 1.8678622264465399 -1.8520364950014447 -0.0581939733888833 O
  atom -0.1278134956373868 -2.2712318838070824 -0.1867372209584225 H
  atom -0.0424959489897419 0.2501938235473533 -1.4677304654278733 H
  atom -1.3509446410646793 1.0200170399150890 0.5087627993193907 H
  atom -0.1264331474212750 0.3285494135640886 1.6117298696561160 H
  atom 0.2881746296285998 1.7045664614662062 0.5542855217014310 H
  atom 2.5263576816579327 0.2656499059134896 -0.5610661205784550 N
  atom 3.9451679591402247 -0.0505092624885830 -0.4766561211561177 C
  atom 2.2416758645987813 1.1870150285108569 -0.8771345686545051 H
  atom 4.0974934288049383 -0.7733382105600330 0.3335725760430891 H
  atom 4.3191944371351836 -0.4997568216927007 -1.4096971362985646 H
  atom 4.5118136687570098 0.8626025108354797 -0.2633265138644507 H
  
  -----------------------------------------------------------------------
  Completed first pass over input file geometry.in .
  -----------------------------------------------------------------------
  

  Basic array size parameters:
  | Number of species                 :        5
  | Number of atoms                   :       22
  | Max. basis fn. angular momentum   :        2
  | Max. atomic/ionic basis occupied n:        3
  | Max. number of basis fn. types    :        2
  | Max. radial fns per species/type  :        4
  | Max. logarithmic grid size        :     1327
  | Max. radial integration grid size :       40
  | Max. angular integration grid size:      302
  | Max. angular grid division number :        8
  | Radial grid for Hartree potential :     1327
  | Number of spin channels           :        1

------------------------------------------------------------
          Reading file control.in.
------------------------------------------------------------
  XC: Using PBE gradient-corrected functionals.
  Spin treatment: No spin polarisation.
  Non-relativistic treatment of kinetic energy.
  Charge =   0.000000E+00: Neutral system requested explicitly.
  Occupation type: Gaussian broadening, width =   0.100000E-01 eV.
  Using pulay charge density mixing.
  Pulay mixing - number of memorized iterations:   10
  Charge density mixing - mixing parameter:     0.5000
  Convergence accuracy of self-consistent charge density:  0.1000E-04
  Convergence accuracy of sum of eigenvalues:  0.1000E-02
  Convergence accuracy of total energy:  0.1000E-05
  Maximum number of s.-c. iterations  :    60
  Forces will be computed.
  Cleaning forces before final output.
 
  Reading configuration options for species H                   .
  | Found nuclear charge :   1.0000
  | Found atomic mass :    1.00794000000000      amu
  | Found l_max for Hartree potential  :   4
  | Found cutoff potl. onset [A], width [A], scale factor :    3.50000    1.50000    1.00000
  | Threshold for basis-dependent cutoff potential is   0.100000E-03
  | Found data for basic radial integration grid :    24 points, outermost radius =    5.000 A
  | Found multiplier for basic radial grid :   1
  | Found angular grid specification: user-specified.
  | Specified grid contains     5 separate shells.
  | Check grid settings after all constraints further below.
  | Found free-atom valence shell :  1 s   1.000
  | No ionic wave fns used. Skipping ion_occ.
  | Found hydrogenic basis function :  2 s   2.100
  | Found hydrogenic basis function :  2 p   3.500
  Species H                   : Missing cutoff potential type.
  Defaulting to exp(1/x)/(1-x)^2 type cutoff potential.
  Species H : No 'logarithmic' tag. Using default grid for free atom:
  | Default logarithmic grid data [bohr] : 0.1000E-03 0.1000E+03 0.1012E+01
  Species H : On-site basis accuracy parameter (for Gram-Schmidt orthonormalisation) not specified.
  Using default value basis_acc =  0.1000000E-03.
  Species H                   : Using default innermost maximum threshold i_radial=  2 for radial functions.
  Species H                   : Default cutoff onset for free atom density etc. : 0.35000000E+01 AA.
  Species H                   : Basic radial grid will be enhanced according to radial_multiplier =   1, to contain    24 grid points.
 
  Reading configuration options for species C                   .
  | Found nuclear charge :   6.0000
  | Found atomic mass :    12.0107000000000      amu
  | Found l_max for Hartree potential  :   4
  | Found cutoff potl. onset [A], width [A], scale factor :    3.50000    1.50000    1.00000
  | Threshold for basis-dependent cutoff potential is   0.100000E-03
  | Found data for basic radial integration grid :    34 points, outermost radius =    5.000 A
  | Found multiplier for basic radial grid :   1
  | Found angular grid specification: user-specified.
  | Specified grid contains     5 separate shells.
  | Check grid settings after all constraints further below.
  | Found free-atom valence shell :  2 s   2.000
  | Found free-atom valence shell :  2 p   2.000
  | No ionic wave fns used. Skipping ion_occ.
  | No ionic wave fns used. Skipping ion_occ.
  | Found hydrogenic basis function :  2 p   1.700
  | Found hydrogenic basis function :  3 d   6.000
  | Found hydrogenic basis function :  2 s   4.900
  Species C                   : Missing cutoff potential type.
  Defaulting to exp(1/x)/(1-x)^2 type cutoff potential.
  Species C : No 'logarithmic' tag. Using default grid for free atom:
  | Default logarithmic grid data [bohr] : 0.1000E-03 0.1000E+03 0.1012E+01
  Species C : On-site basis accuracy parameter (for Gram-Schmidt orthonormalisation) not specified.
  Using default value basis_acc =  0.1000000E-03.
  Species C                   : Using default innermost maximum threshold i_radial=  2 for radial functions.
  Species C                   : Default cutoff onset for free atom density etc. : 0.35000000E+01 AA.
  Species C                   : Basic radial grid will be enhanced according to radial_multiplier =   1, to contain    34 grid points.
 
  Reading configuration options for species N                   .
  | Found nuclear charge :   7.0000
  | Found atomic mass :    14.0067000000000      amu
  | Found l_max for Hartree potential  :   4
  | Found cutoff potl. onset [A], width [A], scale factor :    3.50000    1.50000    1.00000
  | Threshold for basis-dependent cutoff potential is   0.100000E-03
  | Found data for basic radial integration grid :    35 points, outermost radius =    5.000 A
  | Found multiplier for basic radial grid :   1
  | Found angular grid specification: user-specified.
  | Specified grid contains     5 separate shells.
  | Check grid settings after all constraints further below.
  | Found free-atom valence shell :  2 s   2.000
  | Found free-atom valence shell :  2 p   3.000
  | No ionic wave fns used. Skipping ion_occ.
  | No ionic wave fns used. Skipping ion_occ.
  | Found hydrogenic basis function :  2 p   1.800
  | Found hydrogenic basis function :  3 d   6.800
  | Found hydrogenic basis function :  3 s   5.800
  Species N                   : Missing cutoff potential type.
  Defaulting to exp(1/x)/(1-x)^2 type cutoff potential.
  Species N : No 'logarithmic' tag. Using default grid for free atom:
  | Default logarithmic grid data [bohr] : 0.1000E-03 0.1000E+03 0.1012E+01
  Species N : On-site basis accuracy parameter (for Gram-Schmidt orthonormalisation) not specified.
  Using default value basis_acc =  0.1000000E-03.
  Species N                   : Using default innermost maximum threshold i_radial=  2 for radial functions.
  Species N                   : Default cutoff onset for free atom density etc. : 0.35000000E+01 AA.
  Species N                   : Basic radial grid will be enhanced according to radial_multiplier =   1, to contain    35 grid points.
 
  Reading configuration options for species O                   .
  | Found nuclear charge :   8.0000
  | Found atomic mass :    15.9994000000000      amu
  | Found l_max for Hartree potential  :   4
  | Found cutoff potl. onset [A], width [A], scale factor :    3.50000    1.50000    1.00000
  | Threshold for basis-dependent cutoff potential is   0.100000E-03
  | Found data for basic radial integration grid :    36 points, outermost radius =    5.000 A
  | Found multiplier for basic radial grid :   1
  | Found angular grid specification: user-specified.
  | Specified grid contains     5 separate shells.
  | Check grid settings after all constraints further below.
  | Found free-atom valence shell :  2 s   2.000
  | Found free-atom valence shell :  2 p   4.000
  | No ionic wave fns used. Skipping ion_occ.
  | No ionic wave fns used. Skipping ion_occ.
  | Found hydrogenic basis function :  2 p   1.800
  | Found hydrogenic basis function :  3 d   7.600
  | Found hydrogenic basis function :  3 s   6.400
  Species O                   : Missing cutoff potential type.
  Defaulting to exp(1/x)/(1-x)^2 type cutoff potential.
  Species O : No 'logarithmic' tag. Using default grid for free atom:
  | Default logarithmic grid data [bohr] : 0.1000E-03 0.1000E+03 0.1012E+01
  Species O : On-site basis accuracy parameter (for Gram-Schmidt orthonormalisation) not specified.
  Using default value basis_acc =  0.1000000E-03.
  Species O                   : Using default innermost maximum threshold i_radial=  2 for radial functions.
  Species O                   : Default cutoff onset for free atom density etc. : 0.35000000E+01 AA.
  Species O                   : Basic radial grid will be enhanced according to radial_multiplier =   1, to contain    36 grid points.
 
  Reading configuration options for species Na                  .
  | Found nuclear charge :  11.0000
  | Found atomic mass :    22.9897692800000      amu
  | Found l_max for Hartree potential  :   4
  | Found cutoff potl. onset [A], width [A], scale factor :    4.00000    1.50000    1.00000
  | Threshold for basis-dependent cutoff potential is   0.100000E-03
  | Found data for basic radial integration grid :    40 points, outermost radius =    5.500 A
  | Found multiplier for basic radial grid :   1
  | Found angular grid specification: user-specified.
  | Specified grid contains     4 separate shells.
  | Check grid settings after all constraints further below.
  | Found free-atom valence shell :  3 s   1.000
  | Found free-atom valence shell :  2 p   6.000
  | No ionic wave fns used. Skipping ion_occ.
  | No ionic wave fns used. Skipping ion_occ.
  | Found hydrogenic basis function :  2 p   1.200
  | Found hydrogenic basis function :  3 s   1.800
  | Found hydrogenic basis function :  3 d   3.800
  Species Na                  : Missing cutoff potential type.
  Defaulting to exp(1/x)/(1-x)^2 type cutoff potential.
  Species Na: No 'logarithmic' tag. Using default grid for free atom:
  | Default logarithmic grid data [bohr] : 0.1000E-03 0.1000E+03 0.1012E+01
  Species Na: On-site basis accuracy parameter (for Gram-Schmidt orthonormalisation) not specified.
  Using default value basis_acc =  0.1000000E-03.
  Species Na                  : Using default innermost maximum threshold i_radial=  2 for radial functions.
  Species Na                  : Default cutoff onset for free atom density etc. : 0.40000000E+01 AA.
  Species Na                  : Basic radial grid will be enhanced according to radial_multiplier =   1, to contain    40 grid points.
 
  Finished reading input file 'control.in'. Consistency checks are next.
 
  MPI_IN_PLACE appears to work with this MPI implementation.
  | Keeping use_mpi_in_place .true. (see manual).
  Target number of points in a grid batch is not set. Defaulting to  100
  Method for grid partitioning is not set. Defaulting to parallel hash+maxmin partitioning.
  Batch size limit is not set. Defaulting to    200
  By default, will store active basis functions for each batch.
  If in need of memory, prune_basis_once .false. can be used to disable this option.
  communication_type for Hartree potential was not specified.
  Defaulting to calc_hartree .
  Pulay mixer: Number of initial linear mixing iterations not set.
  Defaulting to    0 iterations.
  Work space size for distributed Hartree potential not set.
  Defaulting to   0.200000E+03 MB.
  Algorithm-dependent basis array size parameters:
  | n_max_pulay                         :       10
  Presetting        40 iterations before the initial mixing cycle
  is restarted anyway using the sc_init_iter criterion / keyword.
  Presetting a factor      1.000 between actual scf density residual
  and density convergence criterion sc_accuracy_rho below which sc_init_iter
  takes no effect.
  Geometry relaxation not requested: no relaxation will be performed.
  Force calculation: scf convergence accuracy of forces not set.
  Defaulting to 'sc_accuracy_forces not_checked'.
  Handling of forces: Unphysical translation and rotation will be removed from forces.
  No accuracy limit for integral partition fn. given. Defaulting to  0.1000E-14.
  No threshold value for u(r) in integrations given. Defaulting to  0.1000E-05.
  No accuracy for occupation numbers given. Defaulting to  0.1000E-12.
  No threshold value for occupation numbers given. Defaulting to  0.0000E+00.
  No accuracy for fermi level given. Defaulting to  0.1000E-19.
  Maximum # of iterations to find E_F not set. Defaulting to  200.
  Preferred method for the eigenvalue solver ('KS_method') not specified in 'control.in'.
  Calling BLACS routine to test compilation state
  The best choice would be 'elsi', but your version of FHI-aims is compiled without ScaLAPACK support.
  Defaulting to 'lapack_fast' instead (serial solution, time will not improve with more CPUs).
  Will not use alltoall communication since running on < 1024 CPUs.
  Threshold for basis singularities not set.
  Default threshold for basis singularities:  0.1000E-04
  partition_type (choice of integration weights) for integrals was not specified.
  | Using a version of the partition function of Stratmann and coworkers ('stratmann_smoother').
  | At each grid point, the set of atoms used to build the partition table is smoothly restricted to
  | only those atoms whose free-atom density would be non-zero at that grid point.
  Partitioning for Hartree potential was not defined. Using partition_type for integrals.
  | Adjusted default value of keyword multip_moments_threshold to:       0.10000000E-11
  | This value may affect high angular momentum components of the Hartree potential in periodic systems.
  No q(lm)/r^(l+1) cutoff set for long-range Hartree potential.
  | Using default value of  0.100000E-09 .
  | Verify using the multipole_threshold keyword.
  Defaulting to new monopole extrapolation.
  Density update method: automatic selection selected.
------------------------------------------------------------


------------------------------------------------------------
          Reading geometry description geometry.in.
------------------------------------------------------------
  Input structure read successfully.
  The structure contains       22 atoms,  and a total of         78.000 electrons.

  Input geometry:
  | No unit cell requested.
  | Atomic structure:
  |       Atom                x [A]            y [A]            z [A]
  |    1: Species C            -2.45860006       -2.98459263       -1.00979777
  |    2: Species C            -1.92032660       -1.56192973       -0.99093922
  |    3: Species O            -2.53964428       -0.60053355       -1.45518514
  |    4: Species H            -2.05007460       -3.60075646       -0.19760221
  |    5: Species H            -3.55164929       -2.96100313       -0.94204850
  |    6: Species H            -2.18506903       -3.45490297       -1.96597345
  |    7: Species N            -0.67943443       -1.44435935       -0.42790589
  |    8: Species C             0.11000745       -0.22834613       -0.48292930
  |    9: Species C            -0.28833572        0.77083357        0.61927941
  |   10: Species C             1.57861527       -0.68743164       -0.35506334
  |   11: Species O             1.86786223       -1.85203650       -0.05819397
  |   12: Species H            -0.12781350       -2.27123188       -0.18673722
  |   13: Species H            -0.04249595        0.25019382       -1.46773047
  |   14: Species H            -1.35094464        1.02001704        0.50876280
  |   15: Species H            -0.12643315        0.32854941        1.61172987
  |   16: Species H             0.28817463        1.70456646        0.55428552
  |   17: Species N             2.52635768        0.26564991       -0.56106612
  |   18: Species C             3.94516796       -0.05050926       -0.47665612
  |   19: Species H             2.24167586        1.18701503       -0.87713457
  |   20: Species H             4.09749343       -0.77333821        0.33357258
  |   21: Species H             4.31919444       -0.49975682       -1.40969714
  |   22: Species H             4.51181367        0.86260251       -0.26332651
  |

  | The smallest distance between any two atoms is         1.01481855 AA.
  |
  | The first atom of this pair is atom number                     17 .
  | The second atom of this pair is atom number                    19 .

  Number of empty states per atom not set in control.in - providing a guess from actual geometry.
  | Total number of empty states used during s.c.f. cycle:       48
  If you use a very high smearing, use empty_states (per atom!) in control.in to increase this value.

  Structure-dependent array size parameters: 
  | Maximum number of distinct radial functions  :       28
  | Maximum number of basis functions            :      200
  | Number of Kohn-Sham states (occupied + empty):       87
------------------------------------------------------------

------------------------------------------------------------
          Preparing all fixed parts of the calculation.
------------------------------------------------------------
  Determining machine precision:
    2.225073858507201E-308
  Setting up grids for atomic and cluster calculations.

  Creating wave function, potential, and density for free atoms.

  Species: H

  List of occupied orbitals and eigenvalues:
    n    l              occ      energy [Ha]    energy [eV]
    1    0           1.0000        -0.237589        -6.4651


  Species: C

  List of occupied orbitals and eigenvalues:
    n    l              occ      energy [Ha]    energy [eV]
    1    0           2.0000       -10.038835      -273.1706
    2    0           2.0000        -0.502696       -13.6791
    2    1           2.0000        -0.191971        -5.2238


  Species: N

  List of occupied orbitals and eigenvalues:
    n    l              occ      energy [Ha]    energy [eV]
    1    0           2.0000       -14.128000      -384.4424
    2    0           2.0000        -0.681077       -18.5330
    2    1           3.0000        -0.259788        -7.0692


  Species: O

  List of occupied orbitals and eigenvalues:
    n    l              occ      energy [Ha]    energy [eV]
    1    0           2.0000       -18.898188      -514.2459
    2    0           2.0000        -0.878505       -23.9053
    2    1           4.0000        -0.331779        -9.0282


  Species: Na

  List of occupied orbitals and eigenvalues:
    n    l              occ      energy [Ha]    energy [eV]
    1    0           2.0000       -37.908205     -1031.5347
    2    0           2.0000        -2.061650       -56.1004
    3    0           1.0000        -0.086939        -2.3657
    2    1           6.0000        -1.037965       -28.2445

  Creating fixed part of basis set: Ionic, confined, hydrogenic.
 
  H                    hydrogenic:
 
  List of hydrogenic basis orbitals: 
    n    l      effective z      eigenvalue [eV]  inner max. [A]     outer max. [A]     outer radius [A]   
    2    0         2.100000       -14.9728           0.193243           1.317208           4.583499
    2    1         3.500000       -41.6669           0.602369           0.602369           3.723403
 
 
  C                    hydrogenic:
 
  List of hydrogenic basis orbitals: 
    n    l      effective z      eigenvalue [eV]  inner max. [A]     outer max. [A]     outer radius [A]   
    2    1         1.700000        -9.7616           1.230570           1.230570           4.607917
    3    2         6.000000       -54.4224           0.792453           0.792453           3.883070
    2    0         4.900000       -81.6679           0.082559           0.562749           3.078220
 
 
  N                    hydrogenic:
 
  List of hydrogenic basis orbitals: 
    n    l      effective z      eigenvalue [eV]  inner max. [A]     outer max. [A]     outer radius [A]   
    2    1         1.800000       -10.9749           1.177451           1.177451           4.573712
    3    2         6.800000       -69.9026           0.704619           0.704619           3.538137
    3    0         5.800000       -50.8545           0.067388           1.191934           4.250239
 
 
  O                    hydrogenic:
 
  List of hydrogenic basis orbitals: 
    n    l      effective z      eigenvalue [eV]  inner max. [A]     outer max. [A]     outer radius [A]   
    2    1         1.800000       -10.9749           1.164242           1.164242           4.578029
    3    2         7.600000       -87.3180           0.624125           0.624125           3.251020
    3    0         6.400000       -61.9207           0.061167           1.081902           4.001998
 
 
  Na                   hydrogenic:
 
  List of hydrogenic basis orbitals: 
    n    l      effective z      eigenvalue [eV]  inner max. [A]     outer max. [A]     outer radius [A]   
    2    1         1.200000        -4.7043           1.699681           1.699681           5.107393
    3    0         1.800000        -2.7647           0.215330           3.132057           5.107393
    3    2         3.800000       -21.8265           1.252092           1.252092           5.045336
 

  Adding cutoff potential to free-atom effective potential.
  Creating atomic-like basis functions for current effective potential.

  Species H                   :

  List of atomic basis orbitals and eigenvalues:
    n    l      energy [Ha]    energy [eV]    outer radius [A]
    1    0        -0.237589        -6.4651       4.527807


  Species C                   :

  List of atomic basis orbitals and eigenvalues:
    n    l      energy [Ha]    energy [eV]    outer radius [A]
    1    0       -10.038835      -273.1706       1.934409
    2    0        -0.502696       -13.6791       4.496620
    2    1        -0.191971        -5.2238       4.551928


  Species N                   :

  List of atomic basis orbitals and eigenvalues:
    n    l      energy [Ha]    energy [eV]    outer radius [A]
    1    0       -14.128000      -384.4424       1.637919
    2    0        -0.681077       -18.5330       4.463241
    2    1        -0.259788        -7.0692       4.518138


  Species O                   :

  List of atomic basis orbitals and eigenvalues:
    n    l      energy [Ha]    energy [eV]    outer radius [A]
    1    0       -18.898188      -514.2459       1.415765
    2    0        -0.878505       -23.9053       4.413171
    2    1        -0.331779        -9.0282       4.522403


  Species Na                  :

  List of atomic basis orbitals and eigenvalues:
    n    l      energy [Ha]    energy [eV]    outer radius [A]
    1    0       -37.908205     -1031.5347       1.017136
    2    0        -2.061650       -56.1004       4.251681
    3    0        -0.086939        -2.3657       5.107393
    2    1        -1.037965       -28.2445       4.746176

  Assembling full basis from fixed parts.
  | Species H :   atomic orbital   1 s accepted.
  | Species H :    hydro orbital   2 s accepted.
  | Species H :    hydro orbital   2 p accepted.
  | Species C :   atomic orbital   1 s accepted.
  | Species C :    hydro orbital   2 s accepted.
  | Species C :   atomic orbital   2 s accepted.
  | Species C :   atomic orbital   2 p accepted.
  | Species C :    hydro orbital   2 p accepted.
  | Species C :    hydro orbital   3 d accepted.
  | Species N :   atomic orbital   1 s accepted.
  | Species N :    hydro orbital   3 s accepted.
  | Species N :   atomic orbital   2 s accepted.
  | Species N :   atomic orbital   2 p accepted.
  | Species N :    hydro orbital   2 p accepted.
  | Species N :    hydro orbital   3 d accepted.
  | Species O :   atomic orbital   1 s accepted.
  | Species O :    hydro orbital   3 s accepted.
  | Species O :   atomic orbital   2 s accepted.
  | Species O :   atomic orbital   2 p accepted.
  | Species O :    hydro orbital   2 p accepted.
  | Species O :    hydro orbital   3 d accepted.
  | Species Na :   atomic orbital   1 s accepted.
  | Species Na :   atomic orbital   2 s accepted.
  | Species Na :   atomic orbital   3 s accepted.
  | Species Na :    hydro orbital   3 s accepted.
  | Species Na :   atomic orbital   2 p accepted.
  | Species Na :    hydro orbital   2 p accepted.
  | Species Na :    hydro orbital   3 d accepted.
 
  Basis size parameters after reduction:
  | Total number of radial functions:       28
  | Total number of basis functions :      200
 
  Per-task memory consumption for arrays in subroutine allocate_ext:
  |           7.142412MB.
  Testing on-site integration grid accuracy.
  |  Species  Function  <phi|h_atom|phi> (log., in eV)  <phi|h_atom|phi> (rad., in eV)
           1        1                 -6.4663192853                 -6.4651273558
           1        2                 13.7111246313                 13.7170609718
           1        3                 25.2673269279                 25.2674696378
           2        4               -273.1705927641               -273.1705631568
           2        5                -10.7109323383                -10.7107120029
           2        6                 17.4381822266                 17.4352413244
           2        7                 -5.2255326521                 -5.2270484734
           2        8                  8.6835629259                  8.6603288385
           2        9                 27.4952418996                 27.4953360207
           3       10               -384.4424306495               -384.4423701208
           3       11                 12.5842251816                 12.5842222903
           3       12                -15.7264628251                -15.7264433455
           3       13                 -7.0696854293                 -7.0701769954
           3       14                  8.8090390882                  8.7901077751
           3       15                 35.9586762123                 35.9588528632
           4       16               -514.2458688638               -514.2457643834
           4       17                 15.1795651126                 15.1795290741
           4       18                -21.5359799773                -21.5360846186
           4       19                 -9.0283069236                 -9.0284644067
           4       20                  8.3027758564                  8.2834874195
           4       21                 45.8339351984                 45.8338762259
           5       22              -1031.5347301569              -1031.5343700005
           5       23                -56.1003590737                -56.1003577733
           5       24                 -2.3872449526                 -2.3874266514
           5       25                  4.8089581560                  4.7916273983
           5       26                -28.2444627299                -28.2444626864
           5       27                  0.6487953582                  0.6484930494
           5       28                 10.4219557667                 10.4220291668

  Preparing densities etc. for the partition functions (integrals / Hartree potential).

  Preparations completed.
  max(cpu_time)          :      0.308 s.
  Wall clock time (cpu1) :      0.306 s.
------------------------------------------------------------

------------------------------------------------------------
          Begin self-consistency loop: Initialization.

          Date     :  20180216, Time     :  134256.985
------------------------------------------------------------

  Initializing index lists of integration centers etc. from given atomic structure:
  | Number of centers in hartree potential         :        22
  | Number of centers in hartree multipole         :        22
  | Number of centers in electron density summation:        22
  | Number of centers in basis integrals           :        22
  | Number of centers in integrals                 :        22
  | Number of centers in hamiltonian               :        22
  Partitioning the integration grid into batches with parallel hashing+maxmin method.
  | Number of batches:     1221
  | Maximal batch size:     180
  | Minimal batch size:      50
  | Average batch size:      95.761
  | Standard deviation of batch sizes:      27.707

  Integration load balanced across     8 MPI tasks.
  Work distribution over tasks is as follows:
  Task     0 has      14647 integration points.
  Task     1 has      14677 integration points.
  Task     2 has      14573 integration points.
  Task     3 has      14572 integration points.
  Task     4 has      14571 integration points.
  Task     5 has      14670 integration points.
  Task     6 has      14588 integration points.
  Task     7 has      14626 integration points.
  Initializing partition tables, free-atom densities, potentials, etc. across the integration grid (initialize_grid_storage).
  | initialize_grid_storage: Actual outermost partition radius vs. multipole_radius_free
  | (-- VB: in principle, multipole_radius_free should be larger, hence this output)
  | Species        1: Confinement radius =              4.999999999999999 AA, multipole_radius_free =              5.054417573612229 AA.
  | Species        1: outer_partition_radius set to              5.054417573612229 AA .
  | Species        2: Confinement radius =              4.999999999999999 AA, multipole_radius_free =              5.019602836301480 AA.
  | Species        2: outer_partition_radius set to              5.019602836301480 AA .
  | Species        3: Confinement radius =              4.999999999999999 AA, multipole_radius_free =              5.043624274424571 AA.
  | Species        3: outer_partition_radius set to              5.043624274424571 AA .
  | Species        4: Confinement radius =              4.999999999999999 AA, multipole_radius_free =              5.048384829883283 AA.
  | Species        4: outer_partition_radius set to              5.048384829883283 AA .
  | Species        5: Confinement radius =              5.500000000000000 AA, multipole_radius_free =              5.563704032673898 AA.
  | Species        5: outer_partition_radius set to              5.563704032673898 AA .
  | Original list of interatomic distances with          22 x         22 entries is created.
  | Net number of integration points:   116924
  | of which are non-zero points    :    99283
  Renormalizing the initial density to the exact electron count on the 3D integration grid.
  | Initial density: Formal number of electrons (from input files) :      78.0000000000
  | Integrated number of electrons on 3D grid     :      77.9998846643
  | Charge integration error                      :      -0.0001153357
  | Normalization factor for density and gradient :       1.0000014787
  Obtaining max. number of non-zero basis functions in each batch (get_n_compute_maxes).
  | Maximal number of non-zero basis functions:      191 in task     0
  | Maximal number of non-zero basis functions:      186 in task     1
  | Maximal number of non-zero basis functions:      187 in task     2
  | Maximal number of non-zero basis functions:      189 in task     3
  | Maximal number of non-zero basis functions:      188 in task     4
  | Maximal number of non-zero basis functions:      192 in task     5
  | Maximal number of non-zero basis functions:      187 in task     6
  | Maximal number of non-zero basis functions:      191 in task     7
  Selecting the method for density update.
  Loop over occupied states selected for charge density update.
  Allocating        0.139 MB for KS_eigenvector
  Integrating Hamiltonian matrix: batch-based integration.
  Time summed over all CPUs for integration: real work        4.544 s, elapsed        4.695 s
  Integrating overlap matrix.
  Time summed over all CPUs for integration: real work        1.911 s, elapsed        1.979 s

  Updating Kohn-Sham eigenvalues, eigenvectors, occupation numbers, and Fermi level.
  Solving generalized eigenproblem
  Updating Kohn-Sham eigenvalues and eigenfunctions.
  Transforming overlap matrix and checking for singularities.
  Overlap matrix is nonsingular:
  | Lowest eigenvalue:  0.277299E-02
  Solving real generalised eigenvalue problem by standard LAPACK (fast)

  Obtaining occupation numbers and chemical potential using ELSI.
  | Chemical potential (Fermi level):    -9.40196439eV
  Writing Kohn-Sham eigenvalues.

  State    Occupation    Eigenvalue [Ha]    Eigenvalue [eV]
      1       2.00000         -18.970956         -516.22598
      2       2.00000         -18.970147         -516.20398
      3       2.00000         -14.251494         -387.80289
      4       2.00000         -14.249801         -387.75681
      5       2.00000         -10.165218         -276.60964
      6       2.00000         -10.164392         -276.58718
      7       2.00000         -10.161726         -276.51463
      8       2.00000         -10.142181         -275.98280
      9       2.00000         -10.130496         -275.66483
     10       2.00000         -10.129410         -275.63528
     11       2.00000          -1.127922          -30.69232
     12       2.00000          -1.121498          -30.51752
     13       2.00000          -1.010013          -27.48385
     14       2.00000          -1.008040          -27.43016
     15       2.00000          -0.879818          -23.94106
     16       2.00000          -0.836152          -22.75286
     17       2.00000          -0.812540          -22.11035
     18       2.00000          -0.756513          -20.58576
     19       2.00000          -0.690841          -18.79874
     20       2.00000          -0.675601          -18.38403
     21       2.00000          -0.642211          -17.47545
     22       2.00000          -0.599933          -16.32500
     23       2.00000          -0.588054          -16.00176
     24       2.00000          -0.578138          -15.73194
     25       2.00000          -0.571160          -15.54205
     26       2.00000          -0.554659          -15.09305
     27       2.00000          -0.547190          -14.88979
     28       2.00000          -0.543819          -14.79807
     29       2.00000          -0.529225          -14.40094
     30       2.00000          -0.525731          -14.30588
     31       2.00000          -0.511815          -13.92719
     32       2.00000          -0.506367          -13.77896
     33       2.00000          -0.493605          -13.43169
     34       2.00000          -0.480123          -13.06481
     35       2.00000          -0.465992          -12.68029
     36       2.00000          -0.402559          -10.95417
     37       2.00000          -0.396952          -10.80162
     38       2.00000          -0.389273          -10.59266
     39       2.00000          -0.378046          -10.28715
     40       0.00000          -0.158451           -4.31167
     41       0.00000          -0.147917           -4.02502
     42       0.00000          -0.057537           -1.56566
     43       0.00000          -0.043460           -1.18260
     44       0.00000          -0.034343           -0.93452
     45       0.00000          -0.015345           -0.41755
     46       0.00000          -0.008010           -0.21798
     47       0.00000          -0.002904           -0.07903
     48       0.00000           0.004520            0.12300
     49       0.00000           0.011644            0.31686
     50       0.00000           0.022517            0.61271
     51       0.00000           0.026098            0.71015
     52       0.00000           0.031590            0.85960
     53       0.00000           0.033959            0.92406
     54       0.00000           0.039524            1.07550
     55       0.00000           0.047037            1.27995
     56       0.00000           0.059156            1.60973
     57       0.00000           0.073207            1.99205
     58       0.00000           0.089006            2.42198
     59       0.00000           0.122289            3.32767
     60       0.00000           0.147343            4.00941
     61       0.00000           0.161459            4.39352
     62       0.00000           0.177621            4.83330
     63       0.00000           0.183575            4.99534
     64       0.00000           0.207906            5.65742
     65       0.00000           0.211380            5.75194
     66       0.00000           0.233580            6.35603
     67       0.00000           0.241371            6.56803
     68       0.00000           0.251479            6.84309
     69       0.00000           0.260773            7.09601
     70       0.00000           0.268420            7.30409
     71       0.00000           0.276452            7.52264
     72       0.00000           0.286717            7.80196
     73       0.00000           0.296580            8.07034
     74       0.00000           0.314082            8.54659
     75       0.00000           0.332465            9.04682
     76       0.00000           0.352487            9.59167
     77       0.00000           0.371975           10.12195
     78       0.00000           0.392867           10.69045
     79       0.00000           0.417797           11.36883
     80       0.00000           0.436416           11.87549
     81       0.00000           0.448387           12.20124
     82       0.00000           0.463235           12.60527
     83       0.00000           0.482491           13.12924
     84       0.00000           0.513792           13.98100
     85       0.00000           0.526445           14.32531
     86       0.00000           0.551976           15.02002
     87       0.00000           0.570489           15.52381

  Highest occupied state (VBM) at    -10.28714624 eV
  | Occupation number:      2.00000000

  Lowest unoccupied state (CBM) at    -4.31166759 eV
  | Occupation number:      0.00000000

  Overall HOMO-LUMO gap:      5.97547865 eV.
  Calculating total energy contributions from superposition of free atom densities.

  Total energy components:
  | Sum of eigenvalues            :        -291.91922389 Ha       -7943.52624410 eV
  | XC energy correction          :         -66.06348895 Ha       -1797.67899910 eV
  | XC potential correction       :          84.91325620 Ha        2310.60726374 eV
  | Free-atom electrostatic energy:        -222.83160505 Ha       -6063.55648370 eV
  | Hartree energy correction     :           0.00000000 Ha           0.00000000 eV
  | vdW energy correction         :           0.00000000 Ha           0.00000000 eV
  | Entropy correction            :           0.00000000 Ha           0.00000000 eV
  | ---------------------------
  | Total energy                  :        -495.90106167 Ha      -13494.15446316 eV
  | Total energy, T -> 0          :        -495.90106167 Ha      -13494.15446316 eV  <-- do not rely on this value for anything but (periodic) metals
  | Electronic free energy        :        -495.90106167 Ha      -13494.15446316 eV

  Derived energy quantities:
  | Kinetic energy                :         490.36122017 Ha       13343.40770605 eV
  | Electrostatic energy          :        -920.19879290 Ha      -25039.88317011 eV
  | Energy correction for multipole
  | error in Hartree potential    :           0.00000000 Ha           0.00000000 eV
  | Sum of eigenvalues per atom                           :        -361.06937473 eV
  | Total energy (T->0) per atom                          :        -613.37065742 eV  <-- do not rely on this value for anything but (periodic) metals
  | Electronic free energy per atom                       :        -613.37065742 eV
  Initialize hartree_potential_storage
  Max. number of atoms included in rho_multipole:           22

  End scf initialization - timings             :  max(cpu_time)    wall_clock(cpu1)
  | Time for scf. initialization               :        1.448 s           1.449 s
  | Boundary condition initialization          :        0.000 s           0.000 s
  | Integration                                :        0.824 s           0.825 s
  | Solution of K.-S. eqns.                    :        0.044 s           0.043 s
  | Grid partitioning                          :        0.176 s           0.175 s
  | Preloading free-atom quantities on grid    :        0.012 s           0.009 s
  | Free-atom superposition energy             :        0.064 s           0.064 s
  | Total energy evaluation                    :        0.000 s           0.001 s

  Partial memory accounting:
  | Current value for overall tracked memory usage on task 0  :           0.782 MB
  | Peak value for overall tracked memory usage on task 0     :           1.583 MB after allocating wave
  | Largest tracked array allocation on task 0 so far         :           0.320 MB  when allocating ovlp
  Note:  These values currently only include a subset of arrays which are explicitly tracked.
  The "true" memory usage will be greater.
------------------------------------------------------------

------------------------------------------------------------
          Begin self-consistency iteration #    1

  Date     :  20180216, Time     :  134258.435
------------------------------------------------------------
  Evaluating new KS density.
  Integration grid: deviation in total charge (<rho> - N_e) =   0.000000E+00
  Pulay mixing of updated and previous charge densities.

  Evaluating partitioned Hartree potential by multipole expansion.
  | Analytical far-field extrapolation by fixed multipoles:
  | Hartree multipole sum: apparent total charge =  -0.540796E-03
  Summing up the Hartree potential.
  Time summed over all CPUs for potential: real work        4.661 s, elapsed        4.697 s
  | RMS charge density error from multipole expansion :   0.204422E-01

  Integrating Hamiltonian matrix: batch-based integration.
  Time summed over all CPUs for integration: real work        4.549 s, elapsed        4.694 s

  Updating Kohn-Sham eigenvalues, eigenvectors, occupation numbers, and Fermi level.
  Solving generalized eigenproblem
  Updating Kohn-Sham eigenvalues and eigenfunctions.
  Solving real generalised eigenvalue problem by standard LAPACK (fast)

  Obtaining occupation numbers and chemical potential using ELSI.
  | Chemical potential (Fermi level):    -2.25434284eV
  Writing Kohn-Sham eigenvalues.

  State    Occupation    Eigenvalue [Ha]    Eigenvalue [eV]
      1       2.00000         -18.625937         -506.83752
      2       2.00000         -18.598055         -506.07882
      3       2.00000         -13.987959         -380.63173
      4       2.00000         -13.963822         -379.97493
      5       2.00000         -10.062427         -273.81256
      6       2.00000         -10.042935         -273.28217
      7       2.00000          -9.957066         -270.94556
      8       2.00000          -9.885913         -269.00937
      9       2.00000          -9.838164         -267.71006
     10       2.00000          -9.830690         -267.50668
     11       2.00000          -0.970568          -26.41051
     12       2.00000          -0.943192          -25.66555
     13       2.00000          -0.867332          -23.60130
     14       2.00000          -0.852265          -23.19131
     15       2.00000          -0.736655          -20.04541
     16       2.00000          -0.685017          -18.64026
     17       2.00000          -0.667628          -18.16709
     18       2.00000          -0.616331          -16.77123
     19       2.00000          -0.568583          -15.47193
     20       2.00000          -0.543707          -14.79503
     21       2.00000          -0.511842          -13.92794
     22       2.00000          -0.460191          -12.52244
     23       2.00000          -0.448699          -12.20971
     24       2.00000          -0.434640          -11.82715
     25       2.00000          -0.425751          -11.58528
     26       2.00000          -0.421192          -11.46121
     27       2.00000          -0.406150          -11.05191
     28       2.00000          -0.393868          -10.71769
     29       2.00000          -0.384817          -10.47139
     30       2.00000          -0.375891          -10.22851
     31       2.00000          -0.364380           -9.91529
     32       2.00000          -0.356879           -9.71117
     33       2.00000          -0.344813           -9.38284
     34       2.00000          -0.343403           -9.34447
     35       2.00000          -0.319162           -8.68484
     36       2.00000          -0.240901           -6.55525
     37       2.00000          -0.226619           -6.16662
     38       2.00000          -0.219500           -5.97290
     39       2.00000          -0.196335           -5.34256
     40       0.00000          -0.047189           -1.28408
     41       0.00000          -0.028698           -0.78090
     42       0.00000          -0.000165           -0.00450
     43       0.00000           0.031914            0.86844
     44       0.00000           0.050171            1.36523
     45       0.00000           0.064931            1.76686
     46       0.00000           0.074887            2.03778
     47       0.00000           0.085531            2.32741
     48       0.00000           0.090428            2.46067
     49       0.00000           0.100291            2.72906
     50       0.00000           0.114076            3.10416
     51       0.00000           0.118365            3.22087
     52       0.00000           0.119757            3.25874
     53       0.00000           0.127084            3.45813
     54       0.00000           0.133512            3.63304
     55       0.00000           0.148068            4.02912
     56       0.00000           0.158318            4.30806
     57       0.00000           0.172125            4.68376
     58       0.00000           0.194261            5.28610
     59       0.00000           0.212703            5.78794
     60       0.00000           0.224898            6.11980
     61       0.00000           0.258370            7.03060
     62       0.00000           0.259321            7.05649
     63       0.00000           0.267791            7.28696
     64       0.00000           0.297427            8.09341
     65       0.00000           0.311718            8.48228
     66       0.00000           0.331707            9.02620
     67       0.00000           0.333162            9.06580
     68       0.00000           0.344310            9.36915
     69       0.00000           0.349228            9.50298
     70       0.00000           0.365418            9.94354
     71       0.00000           0.380021           10.34091
     72       0.00000           0.389277           10.59277
     73       0.00000           0.393089           10.69651
     74       0.00000           0.416505           11.33369
     75       0.00000           0.443206           12.06024
     76       0.00000           0.467739           12.72781
     77       0.00000           0.478541           13.02176
     78       0.00000           0.498319           13.55994
     79       0.00000           0.520068           14.15178
     80       0.00000           0.539243           14.67354
     81       0.00000           0.546462           14.87000
     82       0.00000           0.560894           15.26271
     83       0.00000           0.577074           15.70299
     84       0.00000           0.607329           16.52627
     85       0.00000           0.625308           17.01549
     86       0.00000           0.649639           17.67759
     87       0.00000           0.670939           18.25717

  Highest occupied state (VBM) at     -5.34255601 eV
  | Occupation number:      2.00000000

  Lowest unoccupied state (CBM) at    -1.28408463 eV
  | Occupation number:      0.00000000

  Overall HOMO-LUMO gap:      4.05847138 eV.

  Total energy components:
  | Sum of eigenvalues            :        -278.23855689 Ha       -7571.25635419 eV
  | XC energy correction          :         -67.37358048 Ha       -1833.32840348 eV
  | XC potential correction       :          86.61372826 Ha        2356.87946267 eV
  | Free-atom electrostatic energy:        -222.83160505 Ha       -6063.55648370 eV
  | Hartree energy correction     :         -13.69320687 Ha        -372.61111718 eV
  | vdW energy correction         :           0.00000000 Ha           0.00000000 eV
  | Entropy correction            :           0.00000000 Ha           0.00000000 eV
  | ---------------------------
  | Total energy                  :        -495.52322102 Ha      -13483.87289588 eV
  | Total energy, T -> 0          :        -495.52322102 Ha      -13483.87289588 eV  <-- do not rely on this value for anything but (periodic) metals
  | Electronic free energy        :        -495.52322102 Ha      -13483.87289588 eV

  Derived energy quantities:
  | Kinetic energy                :         496.50508858 Ha       13510.59087160 eV
  | Electrostatic energy          :        -924.65472913 Ha      -25161.13536400 eV
  | Energy correction for multipole
  | error in Hartree potential    :           0.06039789 Ha           1.64351023 eV
  | Sum of eigenvalues per atom                           :        -344.14801610 eV
  | Total energy (T->0) per atom                          :        -612.90331345 eV  <-- do not rely on this value for anything but (periodic) metals
  | Electronic free energy per atom                       :        -612.90331345 eV

  Self-consistency convergence accuracy:
  | Change of charge density      :  0.7255E+00
  | Change of sum of eigenvalues  :  0.3723E+03 eV
  | Change of total energy        :  0.1028E+02 eV

  End self-consistency iteration #     1       :  max(cpu_time)    wall_clock(cpu1)
  | Time for this iteration                    :        1.764 s           1.765 s
  | Charge density update                      :        0.572 s           0.572 s
  | Density mixing                             :        0.004 s           0.003 s
  | Hartree multipole update                   :        0.020 s           0.018 s
  | Hartree multipole summation                :        0.580 s           0.580 s
  | Integration                                :        0.580 s           0.580 s
  | Solution of K.-S. eqns.                    :        0.008 s           0.008 s
  | Total energy evaluation                    :        0.000 s           0.001 s

  Partial memory accounting:
  | Current value for overall tracked memory usage on task 0  :           0.782 MB
  | Peak value for overall tracked memory usage on task 0     :           1.903 MB after allocating wave
  | Largest tracked array allocation on task 0 so far         :           0.825 MB  when allocating gradient_basis_wave
  Note:  These values currently only include a subset of arrays which are explicitly tracked.
  The "true" memory usage will be greater.
------------------------------------------------------------

------------------------------------------------------------
          Begin self-consistency iteration #    2

  Date     :  20180216, Time     :  134300.201
------------------------------------------------------------
  Evaluating new KS density.
  Integration grid: deviation in total charge (<rho> - N_e) =   0.000000E+00
  Pulay mixing of updated and previous charge densities.

  Evaluating partitioned Hartree potential by multipole expansion.
  | Analytical far-field extrapolation by fixed multipoles:
  | Hartree multipole sum: apparent total charge =  -0.598137E-03
  Summing up the Hartree potential.
  Time summed over all CPUs for potential: real work        4.650 s, elapsed        4.697 s
  | RMS charge density error from multipole expansion :   0.262101E-01

  Integrating Hamiltonian matrix: batch-based integration.
  Time summed over all CPUs for integration: real work        4.517 s, elapsed        4.669 s

  Updating Kohn-Sham eigenvalues, eigenvectors, occupation numbers, and Fermi level.
  Solving generalized eigenproblem
  Updating Kohn-Sham eigenvalues and eigenfunctions.
  Solving real generalised eigenvalue problem by standard LAPACK (fast)

  Obtaining occupation numbers and chemical potential using ELSI.
  | Chemical potential (Fermi level):    -2.15832592eV
  Highest occupied state (VBM) at     -6.28837066 eV
  | Occupation number:      2.00000000

  Lowest unoccupied state (CBM) at    -1.22959328 eV
  | Occupation number:      0.00000000

  Overall HOMO-LUMO gap:      5.05877738 eV.

  Checking to see if s.c.f. parameters should be adjusted.

  Total energy components:
  | Sum of eigenvalues            :        -278.90739026 Ha       -7589.45623625 eV
  | XC energy correction          :         -67.29313937 Ha       -1831.13948956 eV
  | XC potential correction       :          86.50242560 Ha        2353.85076310 eV
  | Free-atom electrostatic energy:        -222.83160505 Ha       -6063.55648370 eV
  | Hartree energy correction     :         -12.95170207 Ha        -352.43374508 eV
  | vdW energy correction         :           0.00000000 Ha           0.00000000 eV
  | Entropy correction            :           0.00000000 Ha           0.00000000 eV
  | ---------------------------
  | Total energy                  :        -495.48141115 Ha      -13482.73519149 eV
  | Total energy, T -> 0          :        -495.48141115 Ha      -13482.73519149 eV  <-- do not rely on this value for anything but (periodic) metals
  | Electronic free energy        :        -495.48141115 Ha      -13482.73519149 eV

  Derived energy quantities:
  | Kinetic energy                :         494.68663489 Ha       13461.10822895 eV
  | Electrostatic energy          :        -922.87490667 Ha      -25112.70393088 eV
  | Energy correction for multipole
  | error in Hartree potential    :           0.07189045 Ha           1.95623872 eV
  | Sum of eigenvalues per atom                           :        -344.97528347 eV
  | Total energy (T->0) per atom                          :        -612.85159961 eV  <-- do not rely on this value for anything but (periodic) metals
  | Electronic free energy per atom                       :        -612.85159961 eV

  Self-consistency convergence accuracy:
  | Change of charge density      :  0.3922E+00
  | Change of sum of eigenvalues  : -0.1820E+02 eV
  | Change of total energy        :  0.1138E+01 eV

  End self-consistency iteration #     2       :  max(cpu_time)    wall_clock(cpu1)
  | Time for this iteration                    :        1.760 s           1.758 s
  | Charge density update                      :        0.568 s           0.568 s
  | Density mixing                             :        0.008 s           0.005 s
  | Hartree multipole update                   :        0.020 s           0.019 s
  | Hartree multipole summation                :        0.580 s           0.580 s
  | Integration                                :        0.576 s           0.576 s
  | Solution of K.-S. eqns.                    :        0.012 s           0.009 s
  | Total energy evaluation                    :        0.000 s           0.001 s

  Partial memory accounting:
  | Current value for overall tracked memory usage on task 0  :           0.783 MB
  | Peak value for overall tracked memory usage on task 0     :           1.904 MB after allocating wave
  | Largest tracked array allocation on task 0 so far         :           0.825 MB  when allocating gradient_basis_wave
  Note:  These values currently only include a subset of arrays which are explicitly tracked.
  The "true" memory usage will be greater.
------------------------------------------------------------

------------------------------------------------------------
          Begin self-consistency iteration #    3

  Date     :  20180216, Time     :  134301.960
------------------------------------------------------------
  Evaluating new KS density.
  Integration grid: deviation in total charge (<rho> - N_e) =   0.000000E+00
  Pulay mixing of updated and previous charge densities.

  Evaluating partitioned Hartree potential by multipole expansion.
  | Analytical far-field extrapolation by fixed multipoles:
  | Hartree multipole sum: apparent total charge =  -0.687201E-03
  Summing up the Hartree potential.
  Time summed over all CPUs for potential: real work        4.659 s, elapsed        4.697 s
  | RMS charge density error from multipole expansion :   0.328927E-01

  Integrating Hamiltonian matrix: batch-based integration.
  Time summed over all CPUs for integration: real work        4.522 s, elapsed        4.681 s

  Updating Kohn-Sham eigenvalues, eigenvectors, occupation numbers, and Fermi level.
  Solving generalized eigenproblem
  Updating Kohn-Sham eigenvalues and eigenfunctions.
  Solving real generalised eigenvalue problem by standard LAPACK (fast)

  Obtaining occupation numbers and chemical potential using ELSI.
  | Chemical potential (Fermi level):    -1.96718580eV
  Highest occupied state (VBM) at     -5.26037813 eV
  | Occupation number:      2.00000000

  Lowest unoccupied state (CBM) at    -1.05790342 eV
  | Occupation number:      0.00000000

  Overall HOMO-LUMO gap:      4.20247471 eV.

  Total energy components:
  | Sum of eigenvalues            :        -278.34454993 Ha       -7574.14057175 eV
  | XC energy correction          :         -67.43247747 Ha       -1834.93107228 eV
  | XC potential correction       :          86.67928286 Ha        2358.66329408 eV
  | Free-atom electrostatic energy:        -222.83160505 Ha       -6063.55648370 eV
  | Hartree energy correction     :         -13.54610007 Ha        -368.60813737 eV
  | vdW energy correction         :           0.00000000 Ha           0.00000000 eV
  | Entropy correction            :           0.00000000 Ha           0.00000000 eV
  | ---------------------------
  | Total energy                  :        -495.47544966 Ha      -13482.57297102 eV
  | Total energy, T -> 0          :        -495.47544966 Ha      -13482.57297102 eV  <-- do not rely on this value for anything but (periodic) metals
  | Electronic free energy        :        -495.47544966 Ha      -13482.57297102 eV

  Derived energy quantities:
  | Kinetic energy                :         494.16645705 Ha       13446.95346988 eV
  | Electrostatic energy          :        -922.20942924 Ha      -25094.59536862 eV
  | Energy correction for multipole
  | error in Hartree potential    :           0.08676803 Ha           2.36107818 eV
  | Sum of eigenvalues per atom                           :        -344.27911690 eV
  | Total energy (T->0) per atom                          :        -612.84422596 eV  <-- do not rely on this value for anything but (periodic) metals
  | Electronic free energy per atom                       :        -612.84422596 eV

  Self-consistency convergence accuracy:
  | Change of charge density      :  0.1704E+00
  | Change of sum of eigenvalues  :  0.1532E+02 eV
  | Change of total energy        :  0.1622E+00 eV

  End self-consistency iteration #     3       :  max(cpu_time)    wall_clock(cpu1)
  | Time for this iteration                    :        1.764 s           1.763 s
  | Charge density update                      :        0.568 s           0.568 s
  | Density mixing                             :        0.008 s           0.009 s
  | Hartree multipole update                   :        0.020 s           0.018 s
  | Hartree multipole summation                :        0.580 s           0.580 s
  | Integration                                :        0.580 s           0.578 s
  | Solution of K.-S. eqns.                    :        0.008 s           0.008 s
  | Total energy evaluation                    :        0.000 s           0.001 s

  Partial memory accounting:
  | Current value for overall tracked memory usage on task 0  :           0.783 MB
  | Peak value for overall tracked memory usage on task 0     :           1.904 MB after allocating wave
  | Largest tracked array allocation on task 0 so far         :           0.825 MB  when allocating gradient_basis_wave
  Note:  These values currently only include a subset of arrays which are explicitly tracked.
  The "true" memory usage will be greater.
------------------------------------------------------------

------------------------------------------------------------
          Begin self-consistency iteration #    4

  Date     :  20180216, Time     :  134303.724
------------------------------------------------------------
  Evaluating new KS density.
  Integration grid: deviation in total charge (<rho> - N_e) =   4.263256E-14
  Pulay mixing of updated and previous charge densities.

  Evaluating partitioned Hartree potential by multipole expansion.
  | Analytical far-field extrapolation by fixed multipoles:
  | Hartree multipole sum: apparent total charge =  -0.723771E-03
  Summing up the Hartree potential.
  Time summed over all CPUs for potential: real work        4.651 s, elapsed        4.688 s
  | RMS charge density error from multipole expansion :   0.354363E-01

  Integrating Hamiltonian matrix: batch-based integration.
  Time summed over all CPUs for integration: real work        4.516 s, elapsed        4.678 s

  Updating Kohn-Sham eigenvalues, eigenvectors, occupation numbers, and Fermi level.
  Solving generalized eigenproblem
  Updating Kohn-Sham eigenvalues and eigenfunctions.
  Solving real generalised eigenvalue problem by standard LAPACK (fast)

  Obtaining occupation numbers and chemical potential using ELSI.
  | Chemical potential (Fermi level):    -1.81325033eV
  Highest occupied state (VBM) at     -5.52053975 eV
  | Occupation number:      2.00000000

  Lowest unoccupied state (CBM) at    -0.96600279 eV
  | Occupation number:      0.00000000

  Overall HOMO-LUMO gap:      4.55453696 eV.

  Total energy components:
  | Sum of eigenvalues            :        -277.93748367 Ha       -7563.06373509 eV
[...]
   Van der Waals                 : -0.466742E-02 -0.492006E-03 -0.334741E-02
   ----------------------------------------------------------------
   Total forces(   3)            :  0.207668E-01 -0.871117E-02 -0.149965E-01
  atom #    4
   Hellmann-Feynman              :  0.676914E-01  0.107518E+00 -0.617128E-02
   Ionic forces                  :  0.000000E+00  0.000000E+00  0.000000E+00
   Multipole                     : -0.121885E-01 -0.131542E+00  0.648571E-01
   Pulay + GGA                   : -0.695731E-01  0.251788E-01 -0.633729E-01
   Van der Waals                 : -0.257414E-02  0.906311E-04 -0.248502E-03
   ----------------------------------------------------------------
   Total forces(   4)            : -0.166444E-01  0.124500E-02 -0.493563E-02
  atom #    5
   Hellmann-Feynman              :  0.137154E-02  0.586258E-01  0.924650E-02
   Ionic forces                  :  0.000000E+00  0.000000E+00  0.000000E+00
   Multipole                     : -0.132369E+00 -0.805075E-01  0.642615E-02
   Pulay + GGA                   :  0.128715E+00  0.446881E-01 -0.214860E-01
   Van der Waals                 :  0.326991E-02 -0.170895E-02  0.230727E-02
   ----------------------------------------------------------------
   Total forces(   5)            :  0.986777E-03  0.210974E-01 -0.350613E-02
  atom #    6
   Hellmann-Feynman              :  0.599733E-02  0.386055E-01 -0.251999E-01
   Ionic forces                  :  0.000000E+00  0.000000E+00  0.000000E+00
   Multipole                     : -0.354083E-02 -0.886380E-01 -0.713296E-01
   Pulay + GGA                   : -0.306408E-01  0.587168E-01  0.906930E-01
   Van der Waals                 :  0.258054E-02 -0.270797E-02 -0.346829E-03
   ----------------------------------------------------------------
   Total forces(   6)            : -0.256038E-01  0.597629E-02 -0.618334E-02
  atom #    7
   Hellmann-Feynman              : -0.131580E+01 -0.443708E+00  0.153400E+01
   Ionic forces                  :  0.000000E+00  0.000000E+00  0.000000E+00
   Multipole                     : -0.147615E+00 -0.301920E+00  0.363969E+00
   Pulay + GGA                   :  0.145544E+01  0.737975E+00 -0.188854E+01
   Van der Waals                 :  0.704310E-02  0.112771E-03 -0.659944E-02
   ----------------------------------------------------------------
   Total forces(   7)            : -0.935635E-03 -0.754097E-02  0.283246E-02
  atom #    8
   Hellmann-Feynman              :  0.146017E+01  0.182463E+01 -0.600298E+00
   Ionic forces                  :  0.000000E+00  0.000000E+00  0.000000E+00
   Multipole                     : -0.421278E-01  0.279942E+00 -0.775369E-01
   Pulay + GGA                   : -0.142840E+01 -0.209976E+01  0.688768E+00
   Van der Waals                 :  0.452160E-02 -0.916863E-02  0.702539E-04
   ----------------------------------------------------------------
   Total forces(   8)            : -0.583165E-02 -0.435811E-02  0.110034E-01
  atom #    9
   Hellmann-Feynman              : -0.165884E+00 -0.448125E+00  0.111307E-01
   Ionic forces                  :  0.000000E+00  0.000000E+00  0.000000E+00
   Multipole                     : -0.213675E+00  0.599782E+00  0.481566E+00
   Pulay + GGA                   :  0.383624E+00 -0.156072E+00 -0.497758E+00
   Van der Waals                 : -0.447540E-02  0.742693E-02  0.126411E-01
   ----------------------------------------------------------------
   Total forces(   9)            : -0.410639E-03  0.301203E-02  0.758010E-02
  atom #   10
   Hellmann-Feynman              : -0.176486E+01  0.546758E+00 -0.279912E+00
   Ionic forces                  :  0.000000E+00  0.000000E+00  0.000000E+00
   Multipole                     : -0.151751E+00 -0.694831E-01  0.859826E-01
   Pulay + GGA                   :  0.192751E+01 -0.479760E+00  0.202677E+00
   Van der Waals                 : -0.103560E-01 -0.916274E-02 -0.732328E-02
   ----------------------------------------------------------------
   Total forces(  10)            :  0.552822E-03 -0.116476E-01  0.142372E-02
  atom #   11
   Hellmann-Feynman              :  0.290243E+01 -0.131752E+02  0.315148E+01
   Ionic forces                  :  0.000000E+00  0.000000E+00  0.000000E+00
   Multipole                     :  0.413110E+00 -0.980442E+00  0.230745E+00
   Pulay + GGA                   : -0.329815E+01  0.141486E+02 -0.337014E+01
   Van der Waals                 : -0.148614E-01  0.566027E-02 -0.109013E-02
   ----------------------------------------------------------------
   Total forces(  11)            :  0.252542E-02 -0.135366E-02  0.110011E-01
  atom #   12
   Hellmann-Feynman              : -0.452767E-01 -0.105808E+00  0.328263E-01
   Ionic forces                  :  0.000000E+00  0.000000E+00  0.000000E+00
   Multipole                     :  0.712350E-01 -0.118357E+00  0.234668E-01
   Pulay + GGA                   : -0.301237E-01  0.211318E+00 -0.365365E-01
   Van der Waals                 :  0.289702E-02  0.599269E-02  0.702111E-03
   ----------------------------------------------------------------
   Total forces(  12)            : -0.126834E-02 -0.685475E-02  0.204588E-01
  atom #   13
   Hellmann-Feynman              :  0.128283E+00 -0.112294E-01  0.675222E-01
   Ionic forces                  :  0.000000E+00  0.000000E+00  0.000000E+00
   Multipole                     : -0.454080E-01  0.706067E-01 -0.150288E+00
   Pulay + GGA                   : -0.899852E-01 -0.732330E-01  0.982790E-01
   Van der Waals                 :  0.673263E-03 -0.379169E-02 -0.903180E-02
   ----------------------------------------------------------------
   Total forces(  13)            : -0.643707E-02 -0.176474E-01  0.648150E-02
  atom #   14
   Hellmann-Feynman              :  0.536036E-02 -0.281793E-01 -0.149432E-01
   Ionic forces                  :  0.000000E+00  0.000000E+00  0.000000E+00
   Multipole                     : -0.110498E+00  0.656625E-01  0.300646E-01
   Pulay + GGA                   :  0.961670E-01 -0.636600E-01 -0.308085E-01
   Van der Waals                 :  0.507380E-02  0.101448E-01  0.103322E-01
   ----------------------------------------------------------------
   Total forces(  14)            : -0.389688E-02 -0.160319E-01 -0.535490E-02
  atom #   15
   Hellmann-Feynman              :  0.324348E-01 -0.311449E-01 -0.246144E-01
   Ionic forces                  :  0.000000E+00  0.000000E+00  0.000000E+00
   Multipole                     : -0.483836E-02 -0.601384E-03  0.132106E+00
   Pulay + GGA                   : -0.252921E-01  0.318103E-01 -0.996590E-01
   Van der Waals                 :  0.123060E-02 -0.320814E-03 -0.277973E-02
   ----------------------------------------------------------------
   Total forces(  15)            :  0.353490E-02 -0.256723E-03  0.505267E-02
  atom #   16
   Hellmann-Feynman              :  0.844435E-01 -0.768515E-01 -0.116228E+00
   Ionic forces                  :  0.000000E+00  0.000000E+00  0.000000E+00
   Multipole                     :  0.188291E-01  0.127082E+00  0.467934E-01
   Pulay + GGA                   : -0.774636E-01 -0.618214E-01  0.524462E-01
   Van der Waals                 : -0.105151E-01  0.581300E-02  0.862003E-02
   ----------------------------------------------------------------
   Total forces(  16)            :  0.152939E-01 -0.577755E-02 -0.836791E-02
  atom #   17
   Hellmann-Feynman              : -0.164534E+01 -0.115884E+01  0.137111E+01
   Ionic forces                  :  0.000000E+00  0.000000E+00  0.000000E+00
   Multipole                     :  0.602199E+00  0.469796E+00 -0.248774E+00
   Pulay + GGA                   :  0.103115E+01  0.697563E+00 -0.112394E+01
   Van der Waals                 :  0.642042E-02 -0.770726E-02 -0.118888E-02
   ----------------------------------------------------------------
   Total forces(  17)            : -0.557168E-02  0.812932E-03 -0.279484E-02
  atom #   18
   Hellmann-Feynman              :  0.265709E+01 -0.938500E+00  0.431677E+00
   Ionic forces                  :  0.000000E+00  0.000000E+00  0.000000E+00
   Multipole                     :  0.565963E+00  0.508069E-01 -0.133871E-01
   Pulay + GGA                   : -0.320272E+01  0.895254E+00 -0.418722E+00
   Van der Waals                 : -0.922107E-02  0.399542E-02  0.170931E-03
   ----------------------------------------------------------------
   Total forces(  18)            :  0.111068E-01  0.115558E-01 -0.261717E-03
  atom #   19
   Hellmann-Feynman              : -0.475963E-01  0.853490E-01 -0.476053E-01
   Ionic forces                  :  0.000000E+00  0.000000E+00  0.000000E+00
   Multipole                     : -0.431522E-01  0.117632E+00 -0.336059E-01
   Pulay + GGA                   :  0.767108E-01 -0.198874E+00  0.721388E-01
   Van der Waals                 :  0.909298E-02 -0.170354E-02 -0.292114E-02
   ----------------------------------------------------------------
   Total forces(  19)            : -0.494468E-02  0.240367E-02 -0.119935E-01
  atom #   20
   Hellmann-Feynman              : -0.179373E-01  0.597401E-01 -0.163882E-01
   Ionic forces                  :  0.000000E+00  0.000000E+00  0.000000E+00
   Multipole                     :  0.898733E-01 -0.822534E-01  0.112418E+00
   Pulay + GGA                   : -0.625211E-01  0.279732E-01 -0.100688E+00
   Van der Waals                 :  0.221373E-02  0.324254E-02  0.773426E-03
   ----------------------------------------------------------------
   Total forces(  20)            :  0.116286E-01  0.870251E-02 -0.388439E-02
  atom #   21
   Hellmann-Feynman              : -0.109183E-01  0.415359E-01 -0.449857E-02
   Ionic forces                  :  0.000000E+00  0.000000E+00  0.000000E+00
   Multipole                     :  0.795601E-01 -0.482970E-01 -0.917417E-01
   Pulay + GGA                   : -0.624385E-01  0.161728E-01  0.925852E-01
   Van der Waals                 :  0.253997E-02 -0.122901E-02 -0.159111E-02
   ----------------------------------------------------------------
   Total forces(  21)            :  0.874325E-02  0.818266E-02 -0.524624E-02
  atom #   22
   Hellmann-Feynman              : -0.122823E+00  0.613243E-01 -0.389201E-01
   Ionic forces                  :  0.000000E+00  0.000000E+00  0.000000E+00
   Multipole                     :  0.142414E+00  0.657984E-01  0.440145E-01
   Pulay + GGA                   : -0.206615E-01 -0.103095E+00 -0.308116E-02
   Van der Waals                 : -0.136907E-02 -0.324802E-02  0.153050E-02
   ----------------------------------------------------------------
   Total forces(  22)            : -0.243899E-02  0.207793E-01  0.354378E-02

  Timings for VdW correction (Tkatchenko-Scheffler 2009 or later):
  | CPU time:        0.140 s, Wall clock time:        0.144 s.
  Removing unitary transformations (pure translations, rotations) from forces on atoms.
  Atomic forces before filtering:
  | Net force on center of mass :  -0.303199E-02  0.379455E-02 -0.544820E-03 eV/A
  | Net torque on center of mass:  -0.105286E-01 -0.485411E-03  0.640172E-02 eV
  Atomic forces after filtering:
  | Net force on center of mass :   0.278760E-17  0.139380E-16  0.418139E-17 eV/A
  | Net torque on center of mass:   0.368783E-17 -0.531048E-16 -0.118748E-15 eV

  Energy and forces in a compact form:
  | Total energy uncorrected      :         -0.134826138185673E+05 eV
  | Total energy corrected        :         -0.134826138185673E+05 eV  <-- do not rely on this value for anything but (periodic) metals
  | Electronic free energy        :         -0.134826138185673E+05 eV
  Total atomic forces (unitary forces cleaned) [eV/Ang]:
  |   1         -0.589814374365514E-02          0.278885959024277E-02         -0.428478131392981E-02
  |   2          0.184679395561028E-02         -0.258410267217390E-02          0.164824540984121E-02
  |   3          0.208504526513442E-01         -0.861686889891523E-02         -0.147776429526787E-01
  |   4         -0.165635351087364E-01          0.108764932605028E-02         -0.531608895684219E-02
  |   5          0.104122127775629E-02          0.211189565389963E-01         -0.367966315319509E-02
  |   6         -0.256195121709312E-01          0.615914867443922E-02         -0.652836722054776E-02
  |   7         -0.814638871138978E-03         -0.768826836405163E-02          0.278515919235589E-02
  |   8         -0.568376141903077E-02         -0.451441369786897E-02          0.111429940547733E-01
  |   9         -0.175658924930924E-03          0.265558103655172E-02          0.793264295183599E-02
  |  10          0.696623513415313E-03         -0.118644654138005E-01          0.139270841107118E-02
  |  11          0.265730115280616E-02         -0.163425227373072E-02          0.107318642490723E-01
  |  12         -0.115409310114079E-02         -0.706160285760582E-02          0.202227175385848E-01
  |  13         -0.633315020057075E-02         -0.176123271553497E-01          0.672094392489926E-02
  |  14         -0.366201237736332E-02         -0.163410358494425E-01         -0.489469597809749E-02
  |  15          0.381518075633212E-02         -0.806226491809477E-03          0.531178810090996E-02
  |  16          0.155482072682031E-01         -0.613583526364917E-02         -0.787013573461237E-02
  |  17         -0.541602301383435E-02          0.611884266293492E-03         -0.269796932963630E-02
  |  18          0.112594621254399E-01          0.113036794318978E-01         -0.305439868785741E-03
  |  19         -0.478419573303753E-02          0.226986153802304E-02         -0.117050190283107E-01
  |  20          0.118092763967953E-01          0.829225523330978E-02         -0.407444125525056E-02
  |  21          0.883194593645263E-02          0.809903464404112E-02         -0.539673420689751E-02
  |  22         -0.225174036978517E-02          0.204724886585521E-01          0.364191516544036E-02

  ------------------------------------ 
  Start decomposition of the XC Energy 
  ------------------------------------ 
  X and C from original XC functional choice 
  Hartree-Fock Energy :          0.000000000 Ha              0.000000000 eV
  X Energy            :        -64.852436996 Ha          -1764.724598860 eV
  C Energy            :         -2.589515062 Ha            -70.464290021 eV
  Total XC Energy     :        -67.441952058 Ha          -1835.188888881 eV
  ------------------------------------ 
  LDA X and C from self-consistent density 
  X Energy LDA        :        -58.834761513 Ha          -1600.975317497 eV
  C Energy LDA        :         -5.050729266 Ha           -137.437336049 eV
  ------------------------------------ 
  End decomposition of the XC Energy 
  ------------------------------------ 

------------------------------------------------------------

------------------------------------------------------------------------------
  Final output of selected total energy values:

  The following output summarizes some interesting total energy values
  at the end of a run (AFTER all relaxation, molecular dynamics, etc.).

  | Total energy of the DFT / Hartree-Fock s.c.f. calculation      :         -13482.613818567 eV
  | Final zero-broadening corrected energy (caution - metals only) :         -13482.613818567 eV
  | For reference only, the value of 1 Hartree used in FHI-aims is :             27.211384500 eV

  Before relying on these values, please be sure to understand exactly which
  total energy value is referred to by a given number. Different objects may
  all carry the same name 'total energy'. Definitions:

  Total energy of the DFT / Hartree-Fock s.c.f. calculation:
  | Note that this energy does not include ANY quantities calculated after the
  | s.c.f. cycle, in particular not ANY RPA, MP2, etc. many-body perturbation terms.

  Final zero-broadening corrected energy:
  | For metallic systems only, a broadening of the occupation numbers at the Fermi
  | level can be extrapolated back to zero broadening by an electron-gas inspired
  | formula. For all systems that are not real metals, this value can be
  | meaningless and should be avoided.

------------------------------------------------------------------------------
  Methods described in the following list of references were used in this FHI-aims run.
  If you publish the results, please make sure to cite these reference if they apply.
  FHI-aims is an academic code, and for our developers (often, Ph.D. students
  and postdocs), scientific credit in the community is essential.
  Thank you for helping us!

  For any use of FHI-aims, please cite:

    Volker Blum, Ralf Gehrke, Felix Hanke, Paula Havu, Ville Havu,
    Xinguo Ren, Karsten Reuter, and Matthias Scheffler
    'Ab initio molecular simulations with numeric atom-centered orbitals'
    Computer Physics Communications 180, 2175-2196 (2009)
    http://dx.doi.org/10.1016/j.cpc.2009.06.022


  For the real-space grid partitioning and parallelization used in this calculation, please cite:

    Ville Havu, Volker Blum, Paula Havu, and Matthias Scheffler,
    'Efficient O(N) integration for all-electron electronic structure calculation'
    'using numerically tabulated basis functions'
    Journal of Computational Physics 228, 8367-8379 (2009).
    http://dx.doi.org/10.1016/j.jcp.2009.08.008

  Of course, there are many other important community references, e.g., those cited in the
  above references. Our list is limited to references that describe implementations in the
  FHI-aims code. The reason is purely practical (length of this list) - please credit others as well.

------------------------------------------------------------
          Leaving FHI-aims.
          Date     :  20180216, Time     :  134326.511

          Computational steps:
          | Number of self-consistency cycles          :           14
          | Number of SCF (re)initializations          :            1

          Detailed time accounting                     :  max(cpu_time)    wall_clock(cpu1)
          | Total time                                 :       29.840 s          29.862 s
          | Preparation time                           :        0.308 s           0.306 s
          | Boundary condition initalization           :        0.000 s           0.000 s
          | Grid partitioning                          :        0.176 s           0.175 s
          | Preloading free-atom quantities on grid    :        0.012 s           0.009 s
          | Free-atom superposition energy             :        0.064 s           0.064 s
          | Total time for integrations                :        8.928 s           8.916 s
          | Total time for solution of K.-S. equations :        0.180 s           0.162 s
          | Total time for density & force components  :        9.284 s           9.281 s
          | Total time for mixing                      :        0.320 s           0.299 s
          | Total time for Hartree multipole update    :        0.280 s           0.261 s
          | Total time for Hartree multipole sum       :        9.820 s           9.814 s
          | Total time for total energy evaluation     :        0.012 s           0.020 s
          | Total time for vdW correction              :        0.140 s           0.144 s

          Partial memory accounting:
          | Residual value for overall tracked memory usage across tasks :           0.000 MB (should be 0.000 MB)
          | Peak values for overall tracked memory usage (after allocating hessian_basis_wave):
          |   Minimum:        3.749 MB (on task 2)
          |   Maximum:        3.836 MB (on task 6)
          |   Average:        3.791 MB
          | Largest tracked array allocation (hessian_basis_wave):
          |   Minimum:        1.607 MB (on task 2)
          |   Maximum:        1.659 MB (on task 6)
          |   Average:        1.632 MB
          Note:  These values currently only include a subset of arrays which are explicitly tracked.
          The "true" memory usage will be greater.

          Have a nice day.
------------------------------------------------------------
