  MPI-parallelism will be employed.
------------------------------------------------------------
          Invoking FHI-aims ...

          When using FHI-aims, please cite the following reference:

          Volker Blum, Ralf Gehrke, Felix Hanke, Paula Havu,
          Ville Havu, Xinguo Ren, Karsten Reuter, and Matthias Scheffler,
          'Ab Initio Molecular Simulations with Numeric Atom-Centered Orbitals',
          Computer Physics Communications 180, 2175-2196 (2009)

          For any questions about FHI-aims, please visit the aimsclub website
          with its forums and wiki. Contributions to both the forums and the
          wiki are warmly encouraged - they are for you, and everyone is welcome there.

------------------------------------------------------------



  Date     :  20190817, Time     :  154453.662
  Time zero on CPU 1             :   0.474430000000000E-01  s.
  Internal wall clock time zero  :           335288693.662  s.

  FHI-aims created a unique identifier for this run for later identification
  aims_uuid : 7433CEE0-7952-491F-A2B7-3804A0D147C4

  Build configuration of the current instance of FHI-aims
  -------------------------------------------------------
  FHI-aims version      : 190813
  Commit number         : 3da7baeb3
  CMake host system     : Linux-4.4.180-94.97-default
  CMake version         : 3.5.2
  Fortran compiler      : /mpcdf/soft/SLE_12_SP3/packages/x86_64/intel_parallel_studio/2018.4/compilers_and_libraries_2018.5.274/linux/mpi/bin64/mpiifort (Intel) version 18.0.5.20180823
  Fortran compiler flags: -O3 -ip -fp-model precise
  C compiler            : /mpcdf/soft/SLE_12_SP3/packages/skylake/intel/18.0.5/bin/icc (Intel) version 18.0.5.20180823
  C compiler flags      : -O3 -ip -fp-model precise
  Architecture          :
  Using MPI
  Using Scalapack
  Using C files
  Using SPGlib
  Using i-PI
  Linking against: /mpcdf/soft/SLE_12_SP3/packages/x86_64/anaconda/3.5.1.0/lib/libmkl_intel_lp64.so
                   /mpcdf/soft/SLE_12_SP3/packages/x86_64/anaconda/3.5.1.0/lib/libmkl_sequential.so
                   /mpcdf/soft/SLE_12_SP3/packages/x86_64/anaconda/3.5.1.0/lib/libmkl_core.so
                   /mpcdf/soft/SLE_12_SP3/packages/x86_64/anaconda/3.5.1.0/lib/libmkl_blacs_intelmpi_lp64.so
                   /mpcdf/soft/SLE_12_SP3/packages/x86_64/anaconda/3.5.1.0/lib/libmkl_scalapack_lp64.so

  Using        8 parallel tasks.
  Task        0 on host co1631 reporting.
  Task        1 on host co1631 reporting.
  Task        2 on host co1631 reporting.
  Task        3 on host co1631 reporting.
  Task        4 on host co1631 reporting.
  Task        5 on host co1631 reporting.
  Task        6 on host co1631 reporting.
  Task        7 on host co1631 reporting.

  Performing system and environment tests:
  | Environment variable OMP_NUM_THREADS correctly set to 1.
  | Maximum stacksize for task 0: unlimited
  | Maximum stacksize for task 1: unlimited
  | Maximum stacksize for task 2: unlimited
  | Maximum stacksize for task 3: unlimited
  | Maximum stacksize for task 4: unlimited
  | Maximum stacksize for task 5: unlimited
  | Maximum stacksize for task 6: unlimited
  | Maximum stacksize for task 7: unlimited
  | Current stacksize for task 0: unlimited
  | Current stacksize for task 1: unlimited
  | Current stacksize for task 2: unlimited
  | Current stacksize for task 3: unlimited
  | Current stacksize for task 4: unlimited
  | Current stacksize for task 5: unlimited
  | Current stacksize for task 6: unlimited
  | Current stacksize for task 7: unlimited
  | Checking for scalapack...
  | Testing pdtran()...
  | All pdtran() tests passed.

  Obtaining array dimensions for all initial allocations:
  
  -----------------------------------------------------------------------
  Parsing control.in (first pass over file, find array dimensions only).
  The contents of control.in will be repeated verbatim below
  unless switched off by setting 'verbatim_writeout .false.' .
  in the first line of control.in .
  -----------------------------------------------------------------------
  
  #   Volker Blum, FHI 2008 : Input file for FHI-aims
  #
  #  Input file control.in : All computational details for structure geometry.in
  #
  #  WARNING: Basis used here is spd only - do not use for production!
  #           Angular grids reduced.
  #
  
    xc               pbe
    relativistic     atomic_zora scalar 1e-9
  #
    KS_method        serial
      empty_states     8
      basis_threshold  0.e-5
  #
    mixer            pulay
      ini_linear_mixing 2
      charge_mix_param  0.2
    sc_accuracy_rho  1E-5
    sc_accuracy_eev  1E-3
    sc_accuracy_etot 1E-6
    sc_iter_limit    100
  #
    relax_geometry bfgs 5.e-3
    max_atomic_move 0.4
  #
    k_grid 3 1 1
  #
    hartree_convergence_parameter 5.0
  
  ################################################################################
  #
  #  FHI-aims code project
  #  VB, Fritz-Haber Institut, 2007
  #
  #  Suggested "safe" defaults for Au atom (to be pasted into control.in file)
  #  All values have been tested for a relativistic, non-spinpolarized Au2
  #  molecule using the PW-LDA functional. Validity for PBE is expected.
  #
  ################################################################################
    species        Au
  #     global species definitions
      nucleus             79
      l_hartree           6
  #
      cut_pot             4.0  1.5  1.0
      cut_free_atom       finite 6.0
  #
      logarithmic         0.00010000 100.00  1.0123
      radial_base         73 7.0
      radial_multiplier   2
      angular_grids specified
        division   0.0932  110
        division   0.9815  194
        division   1.1379  302
        division   1.2703  434
  #      division   1.3926  590
  #      division   6.4483  974
  #      outer_grid 974
        outer_grid 434
  ################################################################################
  #
  #  Definition of "minimal" basis
  #
  ################################################################################
  #     valence basis states
      valence      6  s   1.
      valence      5  p   6.
      valence      5  d  10.
      valence      4  f  14.
  #     ion occupancy
      ion_occ     6  s   0.
      ion_occ     5  p   6.
      ion_occ     5  d   9.
      ion_occ     4  f   14.
  ################################################################################
  #
  #  Suggested additional basis functions. For production calculations,
  #  uncomment them one after another (the most important basis functions are
  #  listed first).
  #
  #  Comments:
  #  Tier 1 : Unlike Ir, Pt, Ag, tier 1 contains a 6 h function here.
  #  Tier 2 : a second f function (hydro 4 f 5.2) was moved down from tier 2
  #           into tier 3.
  #  Tier 3 : as is; two d functions.
  #
  ################################################################################
  #  "First tier" - max. impr. -161.60  meV, min. impr. -4.53 meV
       ionic 6 p auto
  #     hydro 4 f 7.4
       ionic 6 s auto
  #     hydro 5 g 10
  #     hydro 6 h 12.8
       hydro 3 d 2.5
  #  "Second tier" - max. impr. -2.46  meV, min. impr. -0.28 meV
  #     hydro 5 f 14.8
  #     hydro 4 d 3.9
  #     hydro 3 p 3.3
  #     hydro 1 s 0.45
  #     hydro 5 g 16.4
  #     hydro 6 h 13.6
  #  "Third tier" - max. impr. -0.49  meV, min. impr. -0.09 meV
  #     hydro 4 f 5.2
  #     hydro 4 d 5
  #     hydro 5 g 8
  #     hydro 5 p 8.2
  #     hydro 6 d 12.4
  #     hydro 6 s 14.8
  #  Further basis functions: -0.08 meV and below
  #     hydro 5 f 18.8
  #     hydro 5 g 20
  #    hydro 5 g 15.2
  
  -----------------------------------------------------------------------
  Completed first pass over input file control.in .
  -----------------------------------------------------------------------
  
  
  -----------------------------------------------------------------------
  Parsing geometry.in (first pass over file, find array dimensions only).
  The contents of geometry.in will be repeated verbatim below
  unless switched off by setting 'verbatim_writeout .false.' .
  in the first line of geometry.in .
  -----------------------------------------------------------------------
  
  # Geometry for fcc Au
  #
  atom         0.0 0.0 0.0         Au
  atom         3.0 0.0 0.0         Au
  #
  #
  lattice_vector    15 0  0
  lattice_vector    0 12  0
  lattice_vector    0  0 12
  
  # Test 'hessian_block'.
  hessian_block 1 1   7.52043728565 0. 0.    0.  25.  0.    0.  0.  25.
  hessian_block 2 2   7.52043728565 0. 0.    0.  25.  0.    0.  0.  25.
  # This Hessian tricks the BFGS algorithm to find the correct minimum
  # with the first guess.  While this /slightly/ reduces the range
  # of tested features, it strongly accelerates the most expensive
  # of our regression tests.
  
  -----------------------------------------------------------------------
  Completed first pass over input file geometry.in .
  -----------------------------------------------------------------------
  

  Basic array size parameters:
  | Number of species                 :        1
  | Number of atoms                   :        2
  | Number of lattice vectors         :        3
  | Max. basis fn. angular momentum   :        3
  | Max. atomic/ionic basis occupied n:        6
  | Max. number of basis fn. types    :        3
  | Max. radial fns per species/type  :       14
  | Max. logarithmic grid size        :     1488
  | Max. radial integration grid size :      147
  | Max. angular integration grid size:      434
  | Max. angular grid division number :        8
  | Radial grid for Hartree potential :     1488
  | Number of spin channels           :        1

------------------------------------------------------------
          Reading file control.in.
------------------------------------------------------------
  XC: Using PBE gradient-corrected functionals.
  Scalar relativistic treatment of kinetic energy: on-site free-atom approximation to ZORA.
  Kohn-Sham eigenvalues and eigenfunctions calculated by LAPACK via ELSI.
  Number of empty states per atom:        8
  Threshold for basis singularities:  0.0000E+00
  Using pulay charge density mixing.
  Number of initial iterations with linear charge density mixing:     2
  Charge density mixing - mixing parameter:     0.2000
  Convergence accuracy of self-consistent charge density:  0.1000E-04
  Convergence accuracy of sum of eigenvalues:  0.1000E-02
  Convergence accuracy of total energy:  0.1000E-05
  Maximum number of s.-c. iterations  :   100
  Geometry relaxation: Modified BFGS - TRM (trust radius method) for lattice optimization.
  Convergence accuracy for geometry relaxation: Maximum force <   0.500000E-02 eV/A.
  Maximally allowed move during BFGS:   0.400000E+00 A
  Found k-point grid:         3         1         1
  Range separation parameter for Ewald summation (hartree_convergence_parameter) :   0.500000E+01bohr.
 
  Reading configuration options for species Au                  .
  | Found nuclear charge :  79.0000
  | Found l_max for Hartree potential  :   6
  | Found cutoff potl. onset [A], width [A], scale factor :    4.00000    1.50000    1.00000
  | Found cutoff specification for free atom: Cutoff potential begins at    6.00000 A.
  | Found logarithmic grid data [bohr] : 0.1000E-03 0.1000E+03 0.1012E+01
  | Found data for basic radial integration grid :    73 points, outermost radius =    7.000 A
  | Found multiplier for basic radial grid :   2
  | Found angular grid specification: user-specified.
  | Specified grid contains     5 separate shells.
  | Check grid settings after all constraints further below.
  | Found free-atom valence shell :  6 s   1.000
  | Found free-atom valence shell :  5 p   6.000
  | Found free-atom valence shell :  5 d  10.000
  | Found free-atom valence shell :  4 f  14.000
  | Found free-ion valence shell :  6 s   0.000
  | Found free-ion valence shell :  5 p   6.000
  | Found free-ion valence shell :  5 d   9.000
  | Found free-ion valence shell :  4 f  14.000
  | Found ionic basis function :  6 p , default cutoff radius.
  | Found ionic basis function :  6 s , default cutoff radius.
  | Found hydrogenic basis function :  3 d   2.500
  Species Au                  : Missing cutoff potential type.
  Defaulting to exp(1/x)/(1-x)^2 type cutoff potential.
  | Will include ionic basis functions of  2.0-fold positive Au                   ion.
  Species Au: On-site basis accuracy parameter (for Gram-Schmidt orthonormalisation) not specified.
  Using default value basis_acc =  0.1000000E-03.
  Species Au                  : Using default innermost maximum threshold i_radial=  2 for radial functions.
  Species Au                  : Basic radial grid will be enhanced according to radial_multiplier =   2, to contain   147 grid points.
 
  Finished reading input file 'control.in'. Consistency checks are next.
 
  MPI_IN_PLACE appears to work with this MPI implementation.
  | Keeping use_mpi_in_place .true. (see manual).
  Target number of points in a grid batch is not set. Defaulting to  100
  Method for grid partitioning is not set. Defaulting to parallel hash+maxmin partitioning.
  Batch size limit is not set. Defaulting to    200
  By default, will store active basis functions for each batch.
  If in need of memory, prune_basis_once .false. can be used to disable this option.
  communication_type for Hartree potential was not specified.
  Defaulting to calc_hartree .
  Pulay mixer: Number of relevant iterations not set.
  Defaulting to    8 iterations.
  Work space size for distributed Hartree potential not set.
  Defaulting to   0.200000E+03 MB.
  Mixing parameter for initial linear charge density mixing has not been set.
  Using default:     0.1000.
  Algorithm-dependent basis array size parameters:
  | n_max_pulay                         :        8
  Presetting      1001 iterations before the initial mixing cycle
  is restarted anyway using the sc_init_iter criterion / keyword.
  Presetting a factor      1.000 between actual scf density residual
  and density convergence criterion sc_accuracy_rho below which sc_init_iter
  takes no effect.
  No maximum number of relaxation steps, defaulting to     1000
  Using explicit Hessian from geometry.in.
  No maximum energy tolerance for TRM/BFGS moves, defaulting to   0.100000E-02
  Maximum energy tolerance by which TRM/BFGS trajectory may increase over multiple steps:   0.300000E-02
  No harmonic length scale. Defaulting to   0.250000E-01 A.
  Force calculation: scf convergence accuracy of forces not set.
  Defaulting to 'sc_accuracy_forces not_checked'.
  Handling of forces: Unphysical translation and rotation will be removed from forces.
  No accuracy limit for integral partition fn. given. Defaulting to  0.1000E-14.
  No threshold value for u(r) in integrations given. Defaulting to  0.1000E-05.
  No occupation type (smearing scheme) given. Defaulting to Gaussian broadening, width =  0.1000E-01 eV.
  The width will be adjusted in iteration number     2 of the first full s.c.f. cycle only.
  S.C.F. convergence parameters will be adjusted in iteration number     2 of the first full s.c.f. cycle only.
  No accuracy for occupation numbers given. Defaulting to  0.1000E-12.
  No threshold value for occupation numbers given. Defaulting to  0.0000E+00.
  No accuracy for fermi level given. Defaulting to  0.1000E-19.
  Maximum # of iterations to find E_F not set. Defaulting to  200.
  Will not use alltoall communication since running on < 1024 CPUs.
  partition_type (choice of integration weights) for integrals was not specified.
  | Using a version of the partition function of Stratmann and coworkers ('stratmann_sparse').
  | At each grid point, the set of atoms used to build the partition table is smoothly restricted to
  | only those atoms whose free-atom density would be non-zero at that grid point.
  Partitioning for Hartree potential was not defined. Using partition_type for integrals.
  | Adjusted default value of keyword multip_moments_threshold to:       0.10000000E-11
  | This value may affect high angular momentum components of the Hartree potential in periodic systems.
  Spin handling was not defined in control.in. Defaulting to unpolarized case.
  Angular momentum expansion for Kerker preconditioner not set explicitly.
  | Using default value of   0
  No explicit requirement for turning off preconditioner.
  | By default, it will be turned off when the charge convergence reaches
  | sc_accuracy_rho  =   0.100000E-04
  | sc_accuracy_eev  =   0.100000E-02
  | sc_accuracy_etot =   0.100000E-05
  No special mixing parameter while Kerker preconditioner is on.
  Using default: charge_mix_param =     0.2000.
  No q(lm)/r^(l+1) cutoff set for long-range Hartree potential.
  | Using default value of  0.100000E-09 .
  | Verify using the multipole_threshold keyword.
  Defaulting to new monopole extrapolation.
  Density update method: automatic selection selected.
  Using density matrix based charge density update.
  Using density matrix based charge density update.
  Using packed matrix style: index .
  Geometry relaxation: A file "geometry.in.next_step" is written out by default after each step.
  | This file contains the geometry of the current relaxation step as well as
  | the current Hessian matrix needed to restart the relaxation algorithm.
  | If you do not want part or all of this information, use the keywords
  | "write_restart_geometry" or "hessian_to_restart_geometry" to switch the output off.
  Defaulting to use time-reversal symmetry for k-point grid.
  Charge integration errors on the 3D integration grid will be compensated
  by explicit normalization and distribution of residual charges.
  Use the "compensate_multipole_errors" flag to change this behaviour.
------------------------------------------------------------


------------------------------------------------------------
          Reading geometry description geometry.in.
------------------------------------------------------------
  Input structure read successfully.
  The structure contains        2 atoms,  and a total of        158.000 electrons.

  Input geometry:
  | Unit cell:
  |       15.00000000        0.00000000        0.00000000
  |        0.00000000       12.00000000        0.00000000
  |        0.00000000        0.00000000       12.00000000
  | Atomic structure:
  |       Atom                x [A]            y [A]            z [A]
  |    1: Species Au            0.00000000        0.00000000        0.00000000
  |    2: Species Au            3.00000000        0.00000000        0.00000000

  Lattice parameters for 3D lattice (in Angstroms) :    15.000000   12.000000   12.000000
  Angle(s) between unit vectors (in degrees)       :    90.000000   90.000000   90.000000

  | The smallest distance between any two atoms is         3.00000000 AA.
  | The first atom of this pair is atom number                      1 .
  | The second atom of this pair is atom number                     2 .
  | Wigner-Seitz cell of the first atom image           0     0     0 .
  | (The Wigner-Seitz cell of the second atom is 0 0 0  by definition.)

  Symmetry information by spglib:
  | Precision set to  0.1E-04
  | Number of Operations  : 16
  | Space group           : 123
  | International         : P4/mmm
  | Schoenflies           : D4h^1

  Quantities derived from the lattice vectors:
  | Reciprocal lattice vector 1:  0.418879  0.000000  0.000000
  | Reciprocal lattice vector 2:  0.000000  0.523599  0.000000
  | Reciprocal lattice vector 3:  0.000000  0.000000  0.523599
  | Unit cell volume                               :   0.216000E+04  A^3

  Fractional coordinates:
                         L1                L2                L3
       atom_frac         0.00000000        0.00000000        0.00000000  Au
       atom_frac         0.20000000        0.00000000        0.00000000  Au

  Structure-dependent array size parameters: 
  | Maximum number of distinct radial functions  :       17
  | Maximum number of basis functions            :       98
  | Number of Kohn-Sham states (occupied + empty):       87
------------------------------------------------------------

------------------------------------------------------------
          Preparing all fixed parts of the calculation.
------------------------------------------------------------
  Determining machine precision:
    2.225073858507201E-308
  Setting up grids for atomic and cluster calculations.

  Creating wave function, potential, and density for free atoms.

  Species: Au

  List of occupied orbitals and eigenvalues:
    n    l              occ      energy [Ha]    energy [eV]
    1    0           2.0000     -3256.435745    -88612.1252
    2    0           2.0000      -533.659058    -14521.6018
    3    0           2.0000      -124.236240     -3380.6401
    4    0           2.0000       -26.847965      -730.5703
    5    0           2.0000        -3.978382      -108.2573
    6    0           1.0000        -0.211402        -5.7525
    2    1           6.0000      -460.388277    -12527.8024
    3    1           6.0000      -103.453078     -2815.1015
    4    1           6.0000       -20.079931      -546.4027
    5    1           6.0000        -2.193861       -59.6980
    3    2          10.0000       -81.368969     -2214.1623
    4    2          10.0000       -11.979307      -325.9735
    5    2          10.0000        -0.252945        -6.8830
    4    3          14.0000        -2.989669       -81.3530

  Creating fixed part of basis set: Ionic, confined, hydrogenic.
 
  Au                   ion:

  List of free ionic orbitals and eigenvalues:
    n    l      energy [Ha]    energy [eV]
    1    0     -3257.305345    -88635.7882
    2    0      -534.468969    -14543.6406
    3    0      -125.037161     -3402.4343
    4    0       -27.646714      -752.3054
    5    0        -4.773414      -129.8912
    2    1      -461.196653    -12549.7994
    3    1      -104.253556     -2836.8836
    4    1       -20.878488      -568.1326
    5    1        -2.984283       -81.2065
    3    2       -82.168946     -2235.9308
    4    2       -12.777596      -347.6961
    5    2        -1.004504       -27.3340
    4    3        -3.787521      -103.0637


  List of ionic basis orbitals and eigenvalues:
    n    l      energy [Ha]    energy [eV]    outer radius [A]
    6    1        -0.536319       -14.5940       5.028469
    6    0        -0.835572       -22.7371       4.730310

 
  Au                   hydrogenic:
 
  List of hydrogenic basis orbitals: 
    n    l      effective z      eigenvalue [eV]  inner max. [A]     outer max. [A]     outer radius [A]   
    3    2         2.500000        -9.2964           1.868046           1.868046           5.090319
 

  Adding cutoff potential to free-atom effective potential.
  Creating atomic-like basis functions for current effective potential.

  Species Au                  :

  List of atomic basis orbitals and eigenvalues:
    n    l      energy [Ha]    energy [eV]    outer radius [A]
    1    0     -3256.435745    -88612.1252       0.120814
    2    0      -533.659058    -14521.6018       0.313501
    3    0      -124.236240     -3380.6401       0.652820
    4    0       -26.847965      -730.5703       1.359400
    5    0        -3.978382      -108.2573       3.318346
    6    0        -0.210948        -5.7402       5.028469
    2    1      -460.388277    -12527.8024       0.329212
    3    1      -103.453078     -2815.1015       0.702504
    4    1       -20.079931      -546.4027       1.536172
    5    1        -2.193861       -59.6980       4.237468
    3    2       -81.368969     -2214.1623       0.755969
    4    2       -11.979307      -325.9735       1.868046
    5    2        -0.252932        -6.8826       4.967370
    4    3        -2.989669       -81.3530       3.159983

  Assembling full basis from fixed parts.
  | Species Au :   atomic orbital   1 s accepted.
  | Species Au :   atomic orbital   2 s accepted.
  | Species Au :   atomic orbital   3 s accepted.
  | Species Au :   atomic orbital   4 s accepted.
  | Species Au :   atomic orbital   5 s accepted.
  | Species Au :    ionic orbital   6 s accepted.
  | Species Au :   atomic orbital   6 s accepted.
  | Species Au :   atomic orbital   2 p accepted.
  | Species Au :   atomic orbital   3 p accepted.
  | Species Au :   atomic orbital   4 p accepted.
  | Species Au :   atomic orbital   5 p accepted.
  | Species Au :    ionic orbital   6 p accepted.
  | Species Au :   atomic orbital   3 d accepted.
  | Species Au :   atomic orbital   4 d accepted.
  | Species Au :   atomic orbital   5 d accepted.
  | Species Au :    hydro orbital   3 d accepted.
  | Species Au :   atomic orbital   4 f accepted.
 
  Basis size parameters after reduction:
  | Total number of radial functions:       17
  | Total number of basis functions :       98
 
  Per-task memory consumption for arrays in subroutine allocate_ext:
  |           6.478840MB.
  Testing on-site integration grid accuracy.
  |  Species  Function  <phi|h_atom|phi> (log., in eV)  <phi|h_atom|phi> (rad., in eV)
           1        1             -88612.1251761857             -88612.1049915403
           1        2             -14521.6018247474             -14521.6014217279
           1        3              -3380.6400865929              -3380.6400494011
           1        4               -730.5702942357               -730.5702865757
           1        5               -108.2572843673               -108.2572822412
           1        6                 -5.1806712003                 -5.1806691208
           1        7                  5.0500005015                  5.0490949458
           1        8             -12527.8024343607             -12527.8024258350
           1        9              -2815.1014718208              -2815.1014593657
           1       10               -546.4027282368               -546.4027231550
           1       11                -59.6979846112                -59.6979832898
           1       12                  0.7324666393                  0.7324344708
           1       13              -2214.1622940116              -2214.1622896607
           1       14               -325.9735323058               -325.9735298285
           1       15                 -6.8827161510                 -6.8827172311
           1       16                  5.9663926033                  5.9659141441
           1       17                -81.3530362282                -81.3530357157

  Preparing densities etc. for the partition functions (integrals / Hartree potential).

  Preparations completed.
  max(cpu_time)          :      0.385 s.
  Wall clock time (cpu1) :      0.385 s.
------------------------------------------------------------

------------------------------------------------------------
          Begin self-consistency loop: Initialization.

          Date     :  20190817, Time     :  154454.096
------------------------------------------------------------

  Initializing index lists of integration centers etc. from given atomic structure:
  Mapping all atomic coordinates to central unit cell.

  Initializing the k-points
          Using symmetry for reducing the k-points
  | k-points reduced from:        3 to        2
  | Number of k-points                             :         2
  The eigenvectors in the calculations are COMPLEX.
  | K-points in task   0:         0
  | K-points in task   1:         1
  | K-points in task   2:         1
  | K-points in task   3:         0
  | K-points in task   4:         0
  | K-points in task   5:         0
  | K-points in task   6:         0
  | K-points in task   7:         0
  | Number of basis functions in the Hamiltonian integrals :       116
  | Number of basis functions in a single unit cell        :        98
  | Number of centers in hartree potential         :        30
  | Number of centers in hartree multipole         :        12
  | Number of centers in electron density summation:         2
  | Number of centers in basis integrals           :        17
  | Number of centers in integrals                 :        17
  | Number of centers in hamiltonian               :         2
  | Consuming          0 KiB for k_phase.
  | Number of super-cells (origin) [n_cells]                     :         125
  | Number of super-cells (after PM_index) [n_cells]             :           3
  | Number of super-cells in hamiltonian [n_cells_in_hamiltonian]:           2
  | Size of matrix packed + index [n_hamiltonian_matrix_size] :        4484

  Initializing relaxation algorithms.
  Finished initialization of distributed Hessian storage.
  | Global dimension:         6
  | BLACS block size:         1
  | Number of workers:        6

  | Estimated reciprocal-space cutoff momentum G_max:         1.90186217 bohr^-1 .
  | Reciprocal lattice points for long-range Hartree potential:    1672
  Partitioning the integration grid into batches with parallel hashing+maxmin method.
  | Number of batches:      944
  | Maximal batch size:     193
  | Minimal batch size:      53
  | Average batch size:      80.784
  | Standard deviation of batch sizes:      26.112

  Integration load balanced across     8 MPI tasks.
  Work distribution over tasks is as follows:
  Task     0 has       9486 integration points.
  Task     1 has       9585 integration points.
  Task     2 has       9562 integration points.
  Task     3 has       9506 integration points.
  Task     4 has       9505 integration points.
  Task     5 has       9526 integration points.
  Task     6 has       9562 integration points.
  Task     7 has       9528 integration points.
  Initializing partition tables, free-atom densities, potentials, etc. across the integration grid (initialize_grid_storage).
  | initialize_grid_storage: Actual outermost partition radius vs. multipole_radius_free
  | (-- VB: in principle, multipole_radius_free should be larger, hence this output)
  | Species        1: Confinement radius =              7.500000000000000 AA, multipole_radius_free =              7.527323409045418 AA.
  | Species        1: outer_partition_radius set to              7.527323409045418 AA .
  | The sparse table of interatomic distances needs          1.10 kbyte instead of         2.31 kbyte of memory.
  | Net number of integration points:    76260
  | of which are non-zero points    :    75016
  | Numerical average free-atom electrostatic potential    :     -0.47027564 eV
  Renormalizing the initial density to the exact electron count on the 3D integration grid.
  | Initial density: Formal number of electrons (from input files) :     158.0000000000
  | Integrated number of electrons on 3D grid     :     158.0001616182
  | Charge integration error                      :       0.0001616182
  | Normalization factor for density and gradient :       0.9999989771
  Renormalizing the free-atom superposition density to the exact electron count on the 3D integration grid.
  | Formal number of electrons (from input files) :     158.0000000000
  | Integrated number of electrons on 3D grid     :     158.0001616182
  | Charge integration error                      :       0.0001616182
  | Normalization factor for density and gradient :       0.9999989771
  Obtaining max. number of non-zero basis functions in each batch (get_n_compute_maxes).
  | Maximal number of non-zero basis functions:       75 in task     0
  | Maximal number of non-zero basis functions:       78 in task     1
  | Maximal number of non-zero basis functions:       75 in task     2
  | Maximal number of non-zero basis functions:       75 in task     3
  | Maximal number of non-zero basis functions:       75 in task     4
  | Maximal number of non-zero basis functions:       75 in task     5
  | Maximal number of non-zero basis functions:       75 in task     6
  | Maximal number of non-zero basis functions:       78 in task     7
  Allocating        0.000 MB for KS_eigenvector_complex
  Integrating Hamiltonian matrix: batch-based integration.
  Time summed over all CPUs for integration: real work        0.266 s, elapsed        0.287 s
  Integrating overlap matrix.
  Time summed over all CPUs for integration: real work        0.101 s, elapsed        0.107 s
  Decreasing sparse matrix size:
   Tolerance:  9.999999824516700E-014
   Hamiltonian matrix
  | Array has     1398 nonzero elements out of     4484 elements
  | Sparsity factor is 0.688
   Overlap matrix
  | Array has     1192 nonzero elements out of     4484 elements
  | Sparsity factor is 0.734
  New size of hamiltonian matrix:        3049

  Updating Kohn-Sham eigenvalues and eigenvectors using ELSI and the (modified) LAPACK eigensolver.

  Obtaining occupation numbers and chemical potential using ELSI.
  | Chemical potential (Fermi level):    -6.04106933 eV
  Writing Kohn-Sham eigenvalues.
  K-point:       1 at    0.000000    0.000000    0.000000 (in units of recip. lattice)

  State    Occupation    Eigenvalue [Ha]    Eigenvalue [eV]
      1       2.00000       -3256.439079       -88612.21589
      2       2.00000       -3256.439079       -88612.21589
      3       2.00000        -533.659986       -14521.62707
      4       2.00000        -533.659986       -14521.62707
      5       2.00000        -460.388889       -12527.81909
      6       2.00000        -460.388889       -12527.81909
      7       2.00000        -460.388888       -12527.81904
      8       2.00000        -460.388888       -12527.81904
      9       2.00000        -460.388888       -12527.81904
     10       2.00000        -460.388888       -12527.81904
     11       2.00000        -124.236930        -3380.65887
     12       2.00000        -124.236930        -3380.65887
     13       2.00000        -103.453709        -2815.11864
     14       2.00000        -103.453709        -2815.11864
     15       2.00000        -103.453694        -2815.11825
     16       2.00000        -103.453694        -2815.11825
     17       2.00000        -103.453694        -2815.11825
     18       2.00000        -103.453694        -2815.11825
     19       2.00000         -81.369594        -2214.17932
     20       2.00000         -81.369594        -2214.17932
     21       2.00000         -81.369591        -2214.17924
     22       2.00000         -81.369591        -2214.17924
     23       2.00000         -81.369591        -2214.17924
     24       2.00000         -81.369591        -2214.17924
     25       2.00000         -81.369583        -2214.17901
     26       2.00000         -81.369583        -2214.17901
     27       2.00000         -81.369583        -2214.17901
     28       2.00000         -81.369583        -2214.17901
     29       2.00000         -26.848640         -730.58866
     30       2.00000         -26.848640         -730.58866
     31       2.00000         -20.080649         -546.42227
     32       2.00000         -20.080649         -546.42227
     33       2.00000         -20.080568         -546.42007
     34       2.00000         -20.080568         -546.42007
     35       2.00000         -20.080568         -546.42007
     36       2.00000         -20.080568         -546.42007
     37       2.00000         -11.980026         -325.99308
     38       2.00000         -11.980026         -325.99308
     39       2.00000         -11.980000         -325.99238
     40       2.00000         -11.980000         -325.99238
     41       2.00000         -11.980000         -325.99238
     42       2.00000         -11.980000         -325.99238
     43       2.00000         -11.979935         -325.99062
     44       2.00000         -11.979935         -325.99062
     45       2.00000         -11.979935         -325.99062
     46       2.00000         -11.979935         -325.99062
     47       2.00000          -3.979291         -108.28200
     48       2.00000          -3.979250         -108.28090
     49       2.00000          -2.990419          -81.37344
     50       2.00000          -2.990412          -81.37324
     51       2.00000          -2.990400          -81.37293
     52       2.00000          -2.990400          -81.37293
     53       2.00000          -2.990397          -81.37285
     54       2.00000          -2.990397          -81.37285
     55       2.00000          -2.990355          -81.37170
     56       2.00000          -2.990355          -81.37170
     57       2.00000          -2.990355          -81.37169
     58       2.00000          -2.990355          -81.37169
     59       2.00000          -2.990293          -81.37000
     60       2.00000          -2.990293          -81.37000
     61       2.00000          -2.990293          -81.37000
     62       2.00000          -2.990293          -81.37000
     63       2.00000          -2.196023          -59.75684
     64       2.00000          -2.194706          -59.72098
     65       2.00000          -2.194706          -59.72098
     66       2.00000          -2.194651          -59.71948
     67       2.00000          -2.194595          -59.71796
     68       2.00000          -2.194595          -59.71796
     69       2.00000          -0.290029           -7.89210
     70       2.00000          -0.267471           -7.27826
     71       2.00000          -0.267471           -7.27826
     72       2.00000          -0.255995           -6.96598
     73       2.00000          -0.255995           -6.96597
     74       2.00000          -0.251748           -6.85041
     75       2.00000          -0.251748           -6.85041
     76       2.00000          -0.243695           -6.63127
     77       2.00000          -0.243695           -6.63127
     78       2.00000          -0.241740           -6.57808
     79       2.00000          -0.237074           -6.45111
     80       0.00000          -0.172719           -4.69991
     81       0.00000          -0.011465           -0.31197
     82       0.00000          -0.005730           -0.15591
     83       0.00000          -0.005730           -0.15591
     84       0.00000           0.054190            1.47459
     85       0.00000           0.054190            1.47459
     86       0.00000           0.130187            3.54256
     87       0.00000           0.175531            4.77643

  What follows are estimated values for band gap, HOMO, LUMO, etc.
  | They are estimated on a discrete k-point grid and not necessarily exact.
  | For converged numbers, create a DOS and/or band structure plot on a denser k-grid.

  Highest occupied state (VBM) at     -6.45111065 eV (relative to internal zero)
  | Occupation number:      2.00000000
  | K-point:       1 at    0.000000    0.000000    0.000000 (in units of recip. lattice)

  Lowest unoccupied state (CBM) at    -4.69991040 eV (relative to internal zero)
  | Occupation number:      0.00000000
  | K-point:       1 at    0.000000    0.000000    0.000000 (in units of recip. lattice)

  ESTIMATED overall HOMO-LUMO gap:      1.75120025 eV between HOMO at k-point 1 and LUMO at k-point 1
  | This appears to be a direct band gap.
  The gap value is above 0.2 eV. Unless you are using a very sparse k-point grid,
  this system is most likely an insulator or a semiconductor.
  Calculating total energy contributions from superposition of free atom densities.

  Total energy components:
  | Sum of eigenvalues            :      -24770.40706876 Ha     -674037.07096946 eV
  | XC energy correction          :        -735.78581997 Ha      -20021.75085685 eV
  | XC potential correction       :         962.41600913 Ha       26188.67207349 eV
  | Free-atom electrostatic energy:      -14825.92091513 Ha     -403433.83458826 eV
  | Hartree energy correction     :           0.00000000 Ha           0.00000000 eV
  | Entropy correction            :           0.00000000 Ha           0.00000000 eV
  | ---------------------------
  | Total energy                  :      -39369.69779473 Ha    -1071303.98434108 eV
  | Total energy, T -> 0          :      -39369.69779473 Ha    -1071303.98434108 eV  <-- do not rely on this value for anything but (periodic) metals
  | Electronic free energy        :      -39369.69779473 Ha    -1071303.98434108 eV

  Derived energy quantities:
  | Kinetic energy                :       44179.83527082 Ha     1202194.48470107 eV
  | Electrostatic energy          :      -82813.74724558 Ha    -2253476.71818530 eV
  | Energy correction for multipole
  | error in Hartree potential    :           0.00000000 Ha           0.00000000 eV
  | Sum of eigenvalues per atom                           :     -337018.53548473 eV
  | Total energy (T->0) per atom                          :     -535651.99217054 eV  <-- do not rely on this value for anything but (periodic) metals
  | Electronic free energy per atom                       :     -535651.99217054 eV
  Initialize hartree_potential_storage
  Max. number of atoms included in rho_multipole:            2

  End scf initialization - timings             :  max(cpu_time)    wall_clock(cpu1)
  | Time for scf. initialization               :        0.190 s           0.191 s
  | Boundary condition initialization          :        0.040 s           0.041 s
  | Relaxation initialization                  :        0.000 s           0.000 s
  | Integration                                :        0.051 s           0.051 s
  | Solution of K.-S. eqns.                    :        0.023 s           0.023 s
  | Grid partitioning                          :        0.044 s           0.044 s
  | Preloading free-atom quantities on grid    :        0.010 s           0.010 s
  | Free-atom superposition energy             :        0.009 s           0.009 s
  | Total energy evaluation                    :        0.001 s           0.000 s

  Partial memory accounting:
  | Current value for overall tracked memory usage:
  |   Minimum:        0.060 MB (on task 0)
  |   Maximum:        0.190 MB (on task 1)
  |   Average:        0.093 MB
  | Peak value for overall tracked memory usage:
  |   Minimum:        0.464 MB (on task 0 after allocating wave)
  |   Maximum:        0.779 MB (on task 1 after allocating eval_tmp)
  |   Average:        0.556 MB
  | Largest tracked array allocation so far:
  |   Minimum:        0.110 MB (H_times_psi on task 4)
  |   Maximum:        0.379 MB (all_coords on task 1)
  |   Average:        0.226 MB
  Note:  These values currently only include a subset of arrays which are explicitly tracked.
  The "true" memory usage will be greater.
------------------------------------------------------------

------------------------------------------------------------
          Begin self-consistency iteration #    1

  Date     :  20190817, Time     :  154454.288
------------------------------------------------------------
  Evaluating new KS density using the density matrix
  Evaluating density matrix
  Time summed over all CPUs for getting density from density matrix: real work        0.257 s, elapsed        0.276 s
  Integration grid: deviation in total charge (<rho> - N_e) =  -2.842171E-14
  Linear mixing of updated and previous charge densities.
  Renormalizing the density to the exact electron count on the 3D integration grid.
  | Formal number of electrons (from input files) :     158.0000000000
  | Integrated number of electrons on 3D grid     :     157.9999060521
  | Charge integration error                      :      -0.0000939479
  | Normalization factor for density and gradient :       1.0000005946

  Evaluating partitioned Hartree potential by multipole expansion.
  | Original multipole sum: apparent total charge =   0.554555E-12
  | Sum of charges compensated after spline to logarithmic grids =   0.117073E-04
  | Analytical far-field extrapolation by fixed multipoles:
  | Hartree multipole sum: apparent total charge =   0.554558E-12
  Summing up the Hartree potential.
  Time summed over all CPUs for potential: real work        0.696 s, elapsed        0.721 s
  | RMS charge density error from multipole expansion :   0.864341E-04
  | Average real-space part of the electrostatic potential :      0.00111546 eV

  Integrating Hamiltonian matrix: batch-based integration.
  Time summed over all CPUs for integration: real work        0.267 s, elapsed        0.288 s

  Updating Kohn-Sham eigenvalues and eigenvectors using ELSI and the (modified) LAPACK eigensolver.

  Obtaining occupation numbers and chemical potential using ELSI.
  | Chemical potential (Fermi level):    -6.01251904 eV
  Writing Kohn-Sham eigenvalues.
  K-point:       1 at    0.000000    0.000000    0.000000 (in units of recip. lattice)

  State    Occupation    Eigenvalue [Ha]    Eigenvalue [eV]
      1       2.00000       -3256.440337       -88612.25011
      2       2.00000       -3256.440337       -88612.25011
      3       2.00000        -533.661313       -14521.66317
      4       2.00000        -533.661313       -14521.66317
      5       2.00000        -460.390225       -12527.85544
      6       2.00000        -460.390225       -12527.85544
      7       2.00000        -460.390225       -12527.85543
      8       2.00000        -460.390225       -12527.85543
      9       2.00000        -460.390204       -12527.85485
     10       2.00000        -460.390204       -12527.85485
     11       2.00000        -124.238100        -3380.69071
     12       2.00000        -124.238100        -3380.69071
     13       2.00000        -103.454921        -2815.15164
     14       2.00000        -103.454921        -2815.15164
     15       2.00000        -103.454921        -2815.15164
     16       2.00000        -103.454921        -2815.15164
     17       2.00000        -103.454758        -2815.14721
     18       2.00000        -103.454758        -2815.14721
     19       2.00000         -81.370860        -2214.21376
     20       2.00000         -81.370860        -2214.21376
     21       2.00000         -81.370860        -2214.21376
     22       2.00000         -81.370860        -2214.21376
     23       2.00000         -81.370744        -2214.21061
     24       2.00000         -81.370744        -2214.21061
     25       2.00000         -81.370744        -2214.21060
     26       2.00000         -81.370744        -2214.21060
     27       2.00000         -81.370723        -2214.21003
     28       2.00000         -81.370723        -2214.21003
     29       2.00000         -26.849566         -730.61386
     30       2.00000         -26.849566         -730.61386
     31       2.00000         -20.081510         -546.44569
     32       2.00000         -20.081510         -546.44568
     33       2.00000         -20.081492         -546.44521
     34       2.00000         -20.081492         -546.44521
     35       2.00000         -20.081492         -546.44521
     36       2.00000         -20.081492         -546.44521
     37       2.00000         -11.980934         -326.01780
     38       2.00000         -11.980934         -326.01780
     39       2.00000         -11.980857         -326.01571
     40       2.00000         -11.980857         -326.01571
     41       2.00000         -11.980857         -326.01571
     42       2.00000         -11.980857         -326.01571
     43       2.00000         -11.980835         -326.01510
     44       2.00000         -11.980835         -326.01510
     45       2.00000         -11.980835         -326.01510
     46       2.00000         -11.980835         -326.01510
     47       2.00000          -3.979717         -108.29360
     48       2.00000          -3.979676         -108.29250
     49       2.00000          -2.991316          -81.39785
     50       2.00000          -2.991309          -81.39765
     51       2.00000          -2.991271          -81.39662
     52       2.00000          -2.991271          -81.39662
     53       2.00000          -2.991268          -81.39654
     54       2.00000          -2.991268          -81.39654
     55       2.00000          -2.991174          -81.39399
     56       2.00000          -2.991174          -81.39399
     57       2.00000          -2.991174          -81.39397
     58       2.00000          -2.991174          -81.39397
     59       2.00000          -2.991116          -81.39242
     60       2.00000          -2.991116          -81.39242
     61       2.00000          -2.991116          -81.39241
     62       2.00000          -2.991116          -81.39241
     63       2.00000          -2.197020          -59.78395
     64       2.00000          -2.195661          -59.74698
     65       2.00000          -2.194549          -59.71673
     66       2.00000          -2.194549          -59.71673
     67       2.00000          -2.194440          -59.71374
     68       2.00000          -2.194440          -59.71374
     69       2.00000          -0.289569           -7.87958
     70       2.00000          -0.267168           -7.27001
     71       2.00000          -0.267168           -7.27001
     72       2.00000          -0.255038           -6.93993
     73       2.00000          -0.255038           -6.93993
     74       2.00000          -0.250832           -6.82549
     75       2.00000          -0.250832           -6.82549
     76       2.00000          -0.243806           -6.63430
     77       2.00000          -0.243806           -6.63430
     78       2.00000          -0.241795           -6.57957
     79       2.00000          -0.235660           -6.41264
     80       0.00000          -0.173459           -4.72006
     81       0.00000          -0.011979           -0.32597
     82       0.00000          -0.004287           -0.11665
     83       0.00000          -0.004287           -0.11665
     84       0.00000           0.054751            1.48984
     85       0.00000           0.054751            1.48984
     86       0.00000           0.129989            3.53718
     87       0.00000           0.176580            4.80499

  What follows are estimated values for band gap, HOMO, LUMO, etc.
  | They are estimated on a discrete k-point grid and not necessarily exact.
  | For converged numbers, create a DOS and/or band structure plot on a denser k-grid.

  Highest occupied state (VBM) at     -6.41263838 eV (relative to internal zero)
  | Occupation number:      2.00000000
  | K-point:       1 at    0.000000    0.000000    0.000000 (in units of recip. lattice)

  Lowest unoccupied state (CBM) at    -4.72006231 eV (relative to internal zero)
  | Occupation number:      0.00000000
  | K-point:       1 at    0.000000    0.000000    0.000000 (in units of recip. lattice)

  ESTIMATED overall HOMO-LUMO gap:      1.69257607 eV between HOMO at k-point 1 and LUMO at k-point 1
  | This appears to be a direct band gap.
  The gap value is above 0.2 eV. Unless you are using a very sparse k-point grid,
  this system is most likely an insulator or a semiconductor.

  Total energy components:
  | Sum of eigenvalues            :      -24770.52450490 Ha     -674040.26656947 eV
  | XC energy correction          :        -735.77777297 Ha      -20021.53188681 eV
  | XC potential correction       :         962.40561790 Ha       26188.38931356 eV
  | Free-atom electrostatic energy:      -14825.92091513 Ha     -403433.83458826 eV
  | Hartree energy correction     :           0.12240654 Ha           3.33085151 eV
  | Entropy correction            :           0.00000000 Ha           0.00000000 eV
  | ---------------------------
  | Total energy                  :      -39369.69516856 Ha    -1071303.91287947 eV
  | Total energy, T -> 0          :      -39369.69516856 Ha    -1071303.91287947 eV  <-- do not rely on this value for anything but (periodic) metals
  | Electronic free energy        :      -39369.69516856 Ha    -1071303.91287947 eV

  Derived energy quantities:
  | Kinetic energy                :       44179.77070749 Ha     1202192.72784342 eV
  | Electrostatic energy          :      -82813.68810308 Ha    -2253475.10883608 eV
  | Energy correction for multipole
  | error in Hartree potential    :          -0.00008813 Ha          -0.00239804 eV
  | Sum of eigenvalues per atom                           :     -337020.13328474 eV
  | Total energy (T->0) per atom                          :     -535651.95643974 eV  <-- do not rely on this value for anything but (periodic) metals
  | Electronic free energy per atom                       :     -535651.95643974 eV

  Self-consistency convergence accuracy:
  | Change of charge density      :  0.8025E-01
  | Change of sum of eigenvalues  : -0.3196E+01 eV
  | Change of total energy        :  0.7146E-01 eV

  End self-consistency iteration #     1       :  max(cpu_time)    wall_clock(cpu1)
  | Time for this iteration                    :        0.194 s           0.194 s
  | Charge density update                      :        0.037 s           0.037 s
  | Density mixing & preconditioning           :        0.018 s           0.018 s
  | Hartree multipole update                   :        0.003 s           0.002 s
  | Hartree multipole summation                :        0.097 s           0.097 s
  | Integration                                :        0.036 s           0.036 s
  | Solution of K.-S. eqns.                    :        0.002 s           0.002 s
  | Total energy evaluation                    :        0.000 s           0.000 s

  Partial memory accounting:
  | Current value for overall tracked memory usage:
  |   Minimum:        0.060 MB (on task 0)
  |   Maximum:        0.190 MB (on task 1)
  |   Average:        0.093 MB
  | Peak value for overall tracked memory usage:
  |   Minimum:        0.766 MB (on task 0 after allocating gradient_basis_wave)
  |   Maximum:        0.926 MB (on task 1 after allocating gradient_basis_wave)
  |   Average:        0.806 MB
  | Largest tracked array allocation so far:
  |   Minimum:        0.331 MB (gradient_basis_wave on task 0)
  |   Maximum:        0.379 MB (all_coords on task 1)
  |   Average:        0.339 MB
  Note:  These values currently only include a subset of arrays which are explicitly tracked.
  The "true" memory usage will be greater.
------------------------------------------------------------

------------------------------------------------------------
          Begin self-consistency iteration #    2

  Date     :  20190817, Time     :  154454.482
------------------------------------------------------------
  Evaluating new KS density using the density matrix
  Evaluating density matrix
  Time summed over all CPUs for getting density from density matrix: real work        0.245 s, elapsed        0.249 s
  Integration grid: deviation in total charge (<rho> - N_e) =   1.136868E-13
  Linear mixing of updated and previous charge densities.
  Renormalizing the density to the exact electron count on the 3D integration grid.
  | Formal number of electrons (from input files) :     158.0000000000
  | Integrated number of electrons on 3D grid     :     157.9999136112
  | Charge integration error                      :      -0.0000863888
  | Normalization factor for density and gradient :       1.0000005468

  Evaluating partitioned Hartree potential by multipole expansion.
  | Original multipole sum: apparent total charge =  -0.318134E-13
  | Sum of charges compensated after spline to logarithmic grids =   0.222569E-04
  | Analytical far-field extrapolation by fixed multipoles:
  | Hartree multipole sum: apparent total charge =  -0.318223E-13
  Summing up the Hartree potential.
  Time summed over all CPUs for potential: real work        0.699 s, elapsed        0.749 s
  | RMS charge density error from multipole expansion :   0.159353E-03
  | Average real-space part of the electrostatic potential :      0.00206931 eV

  Integrating Hamiltonian matrix: batch-based integration.
  Time summed over all CPUs for integration: real work        0.258 s, elapsed        0.264 s

  Updating Kohn-Sham eigenvalues and eigenvectors using ELSI and the (modified) LAPACK eigensolver.

  Obtaining occupation numbers and chemical potential using ELSI.
  | Chemical potential (Fermi level):    -5.98866797 eV
  What follows are estimated values for band gap, HOMO, LUMO, etc.
  | They are estimated on a discrete k-point grid and not necessarily exact.
  | For converged numbers, create a DOS and/or band structure plot on a denser k-grid.

  Highest occupied state (VBM) at     -6.38086739 eV (relative to internal zero)
  | Occupation number:      2.00000000
  | K-point:       1 at    0.000000    0.000000    0.000000 (in units of recip. lattice)

  Lowest unoccupied state (CBM) at    -4.73579158 eV (relative to internal zero)
  | Occupation number:      0.00000000
  | K-point:       1 at    0.000000    0.000000    0.000000 (in units of recip. lattice)

  ESTIMATED overall HOMO-LUMO gap:      1.64507581 eV between HOMO at k-point 1 and LUMO at k-point 1
  | This appears to be a direct band gap.
  The gap value is above 0.2 eV. Unless you are using a very sparse k-point grid,
  this system is most likely an insulator or a semiconductor.

  Checking to see if s.c.f. parameters should be adjusted.
  Kept the default occupation width. Value:   0.010000 eV.

  Total energy components:
  | Sum of eigenvalues            :      -24770.61239348 Ha     -674042.65813957 eV
  | XC energy correction          :        -735.77158299 Ha      -20021.36344888 eV
  | XC potential correction       :         962.39762380 Ha       26188.17178306 eV
  | Free-atom electrostatic energy:      -14825.92091513 Ha     -403433.83458826 eV
  | Hartree energy correction     :           0.21381605 Ha           5.81823086 eV
  | Entropy correction            :           0.00000000 Ha           0.00000000 eV
  | ---------------------------
  | Total energy                  :      -39369.69345175 Ha    -1071303.86616278 eV
  | Total energy, T -> 0          :      -39369.69345175 Ha    -1071303.86616278 eV  <-- do not rely on this value for anything but (periodic) metals
  | Electronic free energy        :      -39369.69345175 Ha    -1071303.86616278 eV

  Derived energy quantities:
  | Kinetic energy                :       44179.72479909 Ha     1202191.47861227 eV
  | Electrostatic energy          :      -82813.64666786 Ha    -2253473.98132617 eV
  | Energy correction for multipole
  | error in Hartree potential    :          -0.00016182 Ha          -0.00440334 eV
  | Sum of eigenvalues per atom                           :     -337021.32906978 eV
  | Total energy (T->0) per atom                          :     -535651.93308139 eV  <-- do not rely on this value for anything but (periodic) metals
  | Electronic free energy per atom                       :     -535651.93308139 eV

  Self-consistency convergence accuracy:
  | Change of charge density      :  0.6641E-01
  | Change of sum of eigenvalues  : -0.2392E+01 eV
  | Change of total energy        :  0.4672E-01 eV

  End self-consistency iteration #     2       :  max(cpu_time)    wall_clock(cpu1)
  | Time for this iteration                    :        0.188 s           0.188 s
  | Charge density update                      :        0.032 s           0.033 s
  | Density mixing & preconditioning           :        0.017 s           0.016 s
  | Hartree multipole update                   :        0.002 s           0.003 s
  | Hartree multipole summation                :        0.100 s           0.100 s
  | Integration                                :        0.033 s           0.033 s
  | Solution of K.-S. eqns.                    :        0.002 s           0.003 s
  | Total energy evaluation                    :        0.000 s           0.000 s

  Partial memory accounting:
  | Current value for overall tracked memory usage:
  |   Minimum:        0.060 MB (on task 0)
  |   Maximum:        0.190 MB (on task 1)
  |   Average:        0.093 MB
  | Peak value for overall tracked memory usage:
  |   Minimum:        0.766 MB (on task 0 after allocating gradient_basis_wave)
  |   Maximum:        0.926 MB (on task 1 after allocating gradient_basis_wave)
  |   Average:        0.806 MB
  | Largest tracked array allocation so far:
  |   Minimum:        0.331 MB (all_coords on task 0)
  |   Maximum:        0.379 MB (all_coords on task 1)
  |   Average:        0.339 MB
  Note:  These values currently only include a subset of arrays which are explicitly tracked.
  The "true" memory usage will be greater.
------------------------------------------------------------

------------------------------------------------------------
          Begin self-consistency iteration #    3

  Date     :  20190817, Time     :  154454.671
------------------------------------------------------------
  Evaluating new KS density using the density matrix
  Evaluating density matrix
  Time summed over all CPUs for getting density from density matrix: real work        0.245 s, elapsed        0.250 s
  Integration grid: deviation in total charge (<rho> - N_e) =  -5.684342E-14
  Switching from linear to Pulay mixing: Initializing Pulay matrix.
  Pulay mixing of updated and previous charge densities.
  Renormalizing the density to the exact electron count on the 3D integration grid.
  | Formal number of electrons (from input files) :     158.0000000000
  | Integrated number of electrons on 3D grid     :     157.9998598307
  | Charge integration error                      :      -0.0001401693
  | Normalization factor for density and gradient :       1.0000008871

  Evaluating partitioned Hartree potential by multipole expansion.
  | Original multipole sum: apparent total charge =   0.205857E-12
  | Sum of charges compensated after spline to logarithmic grids =   0.127220E-03
  | Analytical far-field extrapolation by fixed multipoles:
  | Hartree multipole sum: apparent total charge =   0.205808E-12
  Summing up the Hartree potential.
  Time summed over all CPUs for potential: real work        0.692 s, elapsed        0.721 s
  | RMS charge density error from multipole expansion :   0.618853E-03
  | Average real-space part of the electrostatic potential :      0.00713072 eV

  Integrating Hamiltonian matrix: batch-based integration.
  Time summed over all CPUs for integration: real work        0.259 s, elapsed        0.269 s

  Updating Kohn-Sham eigenvalues and eigenvectors using ELSI and the (modified) LAPACK eigensolver.

  Obtaining occupation numbers and chemical potential using ELSI.
  | Chemical potential (Fermi level):    -5.88510746 eV
  What follows are estimated values for band gap, HOMO, LUMO, etc.
  | They are estimated on a discrete k-point grid and not necessarily exact.
  | For converged numbers, create a DOS and/or band structure plot on a denser k-grid.

  Highest occupied state (VBM) at     -6.27188849 eV (relative to internal zero)
  | Occupation number:      2.00000000
  | K-point:       1 at    0.000000    0.000000    0.000000 (in units of recip. lattice)

  Lowest unoccupied state (CBM) at    -4.81634278 eV (relative to internal zero)
  | Occupation number:      0.00000000
  | K-point:       1 at    0.000000    0.000000    0.000000 (in units of recip. lattice)

  ESTIMATED overall HOMO-LUMO gap:      1.45554571 eV between HOMO at k-point 1 and LUMO at k-point 1
  | This appears to be a direct band gap.
  The gap value is above 0.2 eV. Unless you are using a very sparse k-point grid,
  this system is most likely an insulator or a semiconductor.

  Total energy components:
  | Sum of eigenvalues            :      -24771.61905035 Ha     -674070.05066659 eV
  | XC energy correction          :        -735.73436389 Ha      -20020.35066561 eV
  | XC potential correction       :         962.34845428 Ha       26186.83381246 eV
  | Free-atom electrostatic energy:      -14825.92091513 Ha     -403433.83458826 eV
  | Hartree energy correction     :           1.23560327 Ha          33.62247578 eV
  | Entropy correction            :           0.00000000 Ha           0.00000000 eV
  | ---------------------------
  | Total energy                  :      -39369.69027181 Ha    -1071303.77963222 eV
  | Total energy, T -> 0          :      -39369.69027181 Ha    -1071303.77963222 eV  <-- do not rely on this value for anything but (periodic) metals
  | Electronic free energy        :      -39369.69027181 Ha    -1071303.77963222 eV

  Derived energy quantities:
  | Kinetic energy                :       44179.34474205 Ha     1202181.13673396 eV
  | Electrostatic energy          :      -82813.30064997 Ha    -2253464.56570057 eV
  | Energy correction for multipole
  | error in Hartree potential    :          -0.00068999 Ha          -0.01877567 eV
  | Sum of eigenvalues per atom                           :     -337035.02533330 eV
  | Total energy (T->0) per atom                          :     -535651.88981611 eV  <-- do not rely on this value for anything but (periodic) metals
  | Electronic free energy per atom                       :     -535651.88981611 eV

  Self-consistency convergence accuracy:
  | Change of charge density      :  0.5516E-01
  | Change of sum of eigenvalues  : -0.2739E+02 eV
  | Change of total energy        :  0.8653E-01 eV

  End self-consistency iteration #     3       :  max(cpu_time)    wall_clock(cpu1)
  | Time for this iteration                    :        0.185 s           0.184 s
  | Charge density update                      :        0.032 s           0.032 s
  | Density mixing & preconditioning           :        0.016 s           0.016 s
  | Hartree multipole update                   :        0.003 s           0.002 s
  | Hartree multipole summation                :        0.097 s           0.097 s
  | Integration                                :        0.034 s           0.034 s
  | Solution of K.-S. eqns.                    :        0.002 s           0.003 s
  | Total energy evaluation                    :        0.000 s           0.000 s

  Partial memory accounting:
  | Current value for overall tracked memory usage:
  |   Minimum:        0.061 MB (on task 0)
  |   Maximum:        0.191 MB (on task 1)
  |   Average:        0.093 MB
  | Peak value for overall tracked memory usage:
  |   Minimum:        0.766 MB (on task 0 after allocating gradient_basis_wave)
  |   Maximum:        0.926 MB (on task 1 after allocating gradient_basis_wave)
  |   Average:        0.806 MB
  | Largest tracked array allocation so far:
  |   Minimum:        0.331 MB (all_coords on task 0)
  |   Maximum:        0.379 MB (all_coords on task 1)
  |   Average:        0.339 MB
  Note:  These values currently only include a subset of arrays which are explicitly tracked.
  The "true" memory usage will be greater.
------------------------------------------------------------

------------------------------------------------------------
          Begin self-consistency iteration #    4

  Date     :  20190817, Time     :  154454.856
------------------------------------------------------------
  Evaluating new KS density using the density matrix
  Evaluating density matrix
  Time summed over all CPUs for getting density from density matrix: real work        0.248 s, elapsed        0.252 s
  Integration grid: deviation in total charge (<rho> - N_e) =   1.136868E-13
  Pulay mixing of updated and previous charge densities.
  Renormalizing the density to the exact electron count on the 3D integration grid.
  | Formal number of electrons (from input files) :     158.0000000000
  | Integrated number of electrons on 3D grid     :     157.9998094331
  | Charge integration error                      :      -0.0001905669
  | Normalization factor for density and gradient :       1.0000012061

  Evaluating partitioned Hartree potential by multipole expansion.
  | Original multipole sum: apparent total charge =   0.331473E-12
  | Sum of charges compensated after spline to logarithmic grids =   0.131097E-03
  | Analytical far-field extrapolation by fixed multipoles:
  | Hartree multipole sum: apparent total charge =   0.331504E-12
  Summing up the Hartree potential.
  Time summed over all CPUs for potential: real work        0.698 s, elapsed        0.727 s
  | RMS charge density error from multipole expansion :   0.624645E-03
  | Average real-space part of the electrostatic potential :      0.00726516 eV

  Integrating Hamiltonian matrix: batch-based integration.
  Time summed over all CPUs for integration: real work        0.257 s, elapsed        0.265 s

  Updating Kohn-Sham eigenvalues and eigenvectors using ELSI and the (modified) LAPACK eigensolver.

  Obtaining occupation numbers and chemical potential using ELSI.
  | Chemical potential (Fermi level):    -5.88028760 eV
  What follows are estimated values for band gap, HOMO, LUMO, etc.
  | They are estimated on a discrete k-point grid and not necessarily exact.
  | For converged numbers, create a DOS and/or band structure plot on a denser k-grid.

  Highest occupied state (VBM) at     -6.26465526 eV (relative to internal zero)
  | Occupation number:      2.00000000
  | K-point:       1 at    0.000000    0.000000    0.000000 (in units of recip. lattice)

  Lowest unoccupied state (CBM) at    -4.80640660 eV (relative to internal zero)
  | Occupation number:      0.00000000
  | K-point:       1 at    0.000000    0.000000    0.000000 (in units of recip. lattice)

  ESTIMATED overall HOMO-LUMO gap:      1.45824866 eV between HOMO at k-point 1 and LUMO at k-point 1
  | This appears to be a direct band gap.
  The gap value is above 0.2 eV. Unless you are using a very sparse k-point grid,
  this system is most likely an insulator or a semiconductor.

  Total energy components:
  | Sum of eigenvalues            :      -24771.39876971 Ha     -674064.05652536 eV
  | XC energy correction          :        -735.73998518 Ha      -20020.50362871 eV
  | XC potential correction       :         962.35585262 Ha       26187.03513156 eV
  | Free-atom electrostatic energy:      -14825.92091513 Ha     -403433.83458826 eV
  | Hartree energy correction     :           1.01357166 Ha          27.58068811 eV
  | Entropy correction            :           0.00000000 Ha           0.00000000 eV
  | ---------------------------
  | Total energy                  :      -39369.69024574 Ha    -1071303.77892266 eV
  | Total energy, T -> 0          :      -39369.69024574 Ha    -1071303.77892266 eV  <-- do not rely on this value for anything but (periodic) metals
  | Electronic free energy        :      -39369.69024574 Ha    -1071303.77892266 eV

  Derived energy quantities:
  | Kinetic energy                :       44179.49174391 Ha     1202185.13685802 eV
  | Electrostatic energy          :      -82813.44200447 Ha    -2253468.41215197 eV
  | Energy correction for multipole
  | error in Hartree potential    :          -0.00068878 Ha          -0.01874271 eV
  | Sum of eigenvalues per atom                           :     -337032.02826268 eV
  | Total energy (T->0) per atom                          :     -535651.88946133 eV  <-- do not rely on this value for anything but (periodic) metals
  | Electronic free energy per atom                       :     -535651.88946133 eV

  Self-consistency convergence accuracy:
  | Change of charge density      :  0.8048E-02
  | Change of sum of eigenvalues  :  0.5994E+01 eV
  | Change of total energy        :  0.7096E-03 eV

  End self-consistency iteration #     4       :  max(cpu_time)    wall_clock(cpu1)
  | Time for this iteration                    :        0.186 s           0.186 s
  | Charge density update                      :        0.032 s           0.032 s
  | Density mixing & preconditioning           :        0.017 s           0.017 s
  | Hartree multipole update                   :        0.002 s           0.003 s
  | Hartree multipole summation                :        0.098 s           0.097 s
  | Integration                                :        0.033 s           0.034 s
  | Solution of K.-S. eqns.                    :        0.002 s           0.002 s
  | Total energy evaluation                    :        0.000 s           0.000 s

  Partial memory accounting:
  | Current value for overall tracked memory usage:
  |   Minimum:        0.061 MB (on task 0)
  |   Maximum:        0.191 MB (on task 1)
  |   Average:        0.093 MB
  | Peak value for overall tracked memory usage:
  |   Minimum:        0.766 MB (on task 0 after allocating gradient_basis_wave)
  |   Maximum:        0.927 MB (on task 1 after allocating gradient_basis_wave)
  |   Average:        0.806 MB
  | Largest tracked array allocation so far:
  |   Minimum:        0.331 MB (all_coords on task 0)
  |   Maximum:        0.379 MB (all_coords on task 1)
  |   Average:        0.339 MB
  Note:  These values currently only include a subset of arrays which are explicitly tracked.
  The "true" memory usage will be greater.
------------------------------------------------------------

------------------------------------------------------------
          Begin self-consistency iteration #    5

  Date     :  20190817, Time     :  154455.042
------------------------------------------------------------
  Evaluating new KS density using the density matrix
  Evaluating density matrix
  Time summed over all CPUs for getting density from density matrix: real work        0.249 s, elapsed        0.258 s
  Integration grid: deviation in total charge (<rho> - N_e) =  -8.526513E-14
  Pulay mixing of updated and previous charge densities.
  Renormalizing the density to the exact electron count on the 3D integration grid.
  | Formal number of electrons (from input files) :     158.0000000000
  | Integrated number of electrons on 3D grid     :     157.9996456849
  | Charge integration error                      :      -0.0003543151
  | Normalization factor for density and gradient :       1.0000022425

  Evaluating partitioned Hartree potential by multipole expansion.
  | Original multipole sum: apparent total charge =   0.233631E-12
  | Sum of charges compensated after spline to logarithmic grids =   0.133235E-03
  | Analytical far-field extrapolation by fixed multipoles:
  | Hartree multipole sum: apparent total charge =   0.233632E-12
  Summing up the Hartree potential.
  Time summed over all CPUs for potential: real work        0.697 s, elapsed        0.740 s
  | RMS charge density error from multipole expansion :   0.632103E-03
  | Average real-space part of the electrostatic potential :      0.00741013 eV

  Integrating Hamiltonian matrix: batch-based integration.
  Time summed over all CPUs for integration: real work        0.261 s, elapsed        0.273 s

  Updating Kohn-Sham eigenvalues and eigenvectors using ELSI and the (modified) LAPACK eigensolver.

  Obtaining occupation numbers and chemical potential using ELSI.
  | Chemical potential (Fermi level):    -5.87211984 eV
  What follows are estimated values for band gap, HOMO, LUMO, etc.
  | They are estimated on a discrete k-point grid and not necessarily exact.
  | For converged numbers, create a DOS and/or band structure plot on a denser k-grid.

  Highest occupied state (VBM) at     -6.25234018 eV (relative to internal zero)
  | Occupation number:      2.00000000
  | K-point:       1 at    0.000000    0.000000    0.000000 (in units of recip. lattice)

  Lowest unoccupied state (CBM) at    -4.79831443 eV (relative to internal zero)
  | Occupation number:      0.00000000
  | K-point:       1 at    0.000000    0.000000    0.000000 (in units of recip. lattice)

  ESTIMATED overall HOMO-LUMO gap:      1.45402575 eV between HOMO at k-point 1 and LUMO at k-point 1
  | This appears to be a direct band gap.
  The gap value is above 0.2 eV. Unless you are using a very sparse k-point grid,
  this system is most likely an insulator or a semiconductor.

  Total energy components:
  | Sum of eigenvalues            :      -24771.16818191 Ha     -674057.78191200 eV
  | XC energy correction          :        -735.74538596 Ha      -20020.65059155 eV
  | XC potential correction       :         962.36300625 Ha       26187.22979152 eV
  | Free-atom electrostatic energy:      -14825.92091513 Ha     -403433.83458826 eV
  | Hartree energy correction     :           0.78125742 Ha          21.25909608 eV
  | Entropy correction            :           0.00000000 Ha           0.00000000 eV
  | ---------------------------
  | Total energy                  :      -39369.69021933 Ha    -1071303.77820421 eV
  | Total energy, T -> 0          :      -39369.69021933 Ha    -1071303.77820421 eV  <-- do not rely on this value for anything but (periodic) metals
  | Electronic free energy        :      -39369.69021933 Ha    -1071303.77820421 eV

  Derived energy quantities:
  | Kinetic energy                :       44179.67717547 Ha     1202190.18270762 eV
  | Electrostatic energy          :      -82813.62200884 Ha    -2253473.31032028 eV
  | Energy correction for multipole
  | error in Hartree potential    :          -0.00068905 Ha          -0.01874998 eV
  | Sum of eigenvalues per atom                           :     -337028.89095600 eV
  | Total energy (T->0) per atom                          :     -535651.88910210 eV  <-- do not rely on this value for anything but (periodic) metals
  | Electronic free energy per atom                       :     -535651.88910210 eV

  Self-consistency convergence accuracy:
  | Change of charge density      :  0.5639E-02
  | Change of sum of eigenvalues  :  0.6275E+01 eV
  | Change of total energy        :  0.7185E-03 eV

  End self-consistency iteration #     5       :  max(cpu_time)    wall_clock(cpu1)
  | Time for this iteration                    :        0.189 s           0.189 s
  | Charge density update                      :        0.033 s           0.033 s
  | Density mixing & preconditioning           :        0.016 s           0.017 s
  | Hartree multipole update                   :        0.003 s           0.002 s
  | Hartree multipole summation                :        0.099 s           0.100 s
  | Integration                                :        0.034 s           0.034 s
  | Solution of K.-S. eqns.                    :        0.003 s           0.003 s
  | Total energy evaluation                    :        0.000 s           0.000 s

  Partial memory accounting:
  | Current value for overall tracked memory usage:
  |   Minimum:        0.061 MB (on task 0)
  |   Maximum:        0.191 MB (on task 1)
  |   Average:        0.093 MB
  | Peak value for overall tracked memory usage:
  |   Minimum:        0.766 MB (on task 0 after allocating gradient_basis_wave)
  |   Maximum:        0.927 MB (on task 1 after allocating gradient_basis_wave)
  |   Average:        0.806 MB
  | Largest tracked array allocation so far:
  |   Minimum:        0.331 MB (all_coords on task 0)
  |   Maximum:        0.379 MB (all_coords on task 1)
  |   Average:        0.339 MB
  Note:  These values currently only include a subset of arrays which are explicitly tracked.
  The "true" memory usage will be greater.
------------------------------------------------------------

------------------------------------------------------------
          Begin self-consistency iteration #    6

  Date     :  20190817, Time     :  154455.232
------------------------------------------------------------
  Evaluating new KS density using the density matrix
  Evaluating density matrix
  Time summed over all CPUs for getting density from density matrix: real work        0.247 s, elapsed        0.253 s
  Integration grid: deviation in total charge (<rho> - N_e) =  -2.842171E-14
  Pulay mixing of updated and previous charge densities.
  Renormalizing the density to the exact electron count on the 3D integration grid.
  | Formal number of electrons (from input files) :     158.0000000000
  | Integrated number of electrons on 3D grid     :     158.0007498498
  | Charge integration error                      :       0.0007498498
  | Normalization factor for density and gradient :       0.9999952541

  Evaluating partitioned Hartree potential by multipole expansion.
  | Original multipole sum: apparent total charge =   0.300119E-12
  | Sum of charges compensated after spline to logarithmic grids =   0.134906E-03
  | Analytical far-field extrapolation by fixed multipoles:
[...]
   Multipole                     :  0.166801E+00  0.683829E-09  0.414161E-08
   Pulay + GGA                   : -0.105798E+03 -0.885975E-06 -0.230847E-05
   ----------------------------------------------------------------
   Total forces(   1)            :  0.165245E-03 -0.414606E-06  0.542560E-07
  atom #    2
   Hellmann-Feynman              : -0.105632E+03 -0.468884E-06 -0.235958E-05
   Ionic forces                  :  0.000000E+00  0.000000E+00  0.000000E+00
   Multipole                     : -0.166801E+00 -0.551041E-09 -0.366633E-08
   Pulay + GGA                   :  0.105799E+03  0.727337E-06  0.220745E-05
   ----------------------------------------------------------------
   Total forces(   2)            : -0.160558E-03  0.257903E-06 -0.155795E-06


  Self-consistency convergence accuracy:
  | Change of charge density      :  0.4773E-07
  | Change of sum of eigenvalues  :  0.1026E-03 eV
  | Change of total energy        : -0.5940E-09 eV
  | Change of forces              :  0.1058E+03 eV/A

  Writing Kohn-Sham eigenvalues.
  K-point:       1 at    0.000000    0.000000    0.000000 (in units of recip. lattice)

  State    Occupation    Eigenvalue [Ha]    Eigenvalue [eV]
      1       2.00000       -3256.445348       -88612.38648
      2       2.00000       -3256.445348       -88612.38648
      3       2.00000        -533.667096       -14521.82054
      4       2.00000        -533.667096       -14521.82054
      5       2.00000        -460.396034       -12528.01350
      6       2.00000        -460.396034       -12528.01350
      7       2.00000        -460.396034       -12528.01350
      8       2.00000        -460.396034       -12528.01350
      9       2.00000        -460.395838       -12528.00817
     10       2.00000        -460.395838       -12528.00817
     11       2.00000        -124.243744        -3380.84429
     12       2.00000        -124.243744        -3380.84429
     13       2.00000        -103.460989        -2815.31676
     14       2.00000        -103.460989        -2815.31676
     15       2.00000        -103.460989        -2815.31676
     16       2.00000        -103.460989        -2815.31676
     17       2.00000        -103.459533        -2815.27713
     18       2.00000        -103.459533        -2815.27713
     19       2.00000         -81.377145        -2214.38479
     20       2.00000         -81.377145        -2214.38479
     21       2.00000         -81.377145        -2214.38478
     22       2.00000         -81.377145        -2214.38478
     23       2.00000         -81.376114        -2214.35672
     24       2.00000         -81.376114        -2214.35672
     25       2.00000         -81.376114        -2214.35672
     26       2.00000         -81.376114        -2214.35672
     27       2.00000         -81.375915        -2214.35131
     28       2.00000         -81.375915        -2214.35131
     29       2.00000         -26.855000         -730.76173
     30       2.00000         -26.855000         -730.76173
     31       2.00000         -20.086923         -546.59298
     32       2.00000         -20.086923         -546.59298
     33       2.00000         -20.086923         -546.59298
     34       2.00000         -20.086923         -546.59298
     35       2.00000         -20.086877         -546.59173
     36       2.00000         -20.086877         -546.59173
     37       2.00000         -11.986761         -326.17637
     38       2.00000         -11.986761         -326.17637
     39       2.00000         -11.986178         -326.16051
     40       2.00000         -11.986178         -326.16051
     41       2.00000         -11.986178         -326.16051
     42       2.00000         -11.986178         -326.16051
     43       2.00000         -11.986126         -326.15908
     44       2.00000         -11.986126         -326.15908
     45       2.00000         -11.986126         -326.15908
     46       2.00000         -11.986126         -326.15908
     47       2.00000          -3.984590         -108.42622
     48       2.00000          -3.984129         -108.41367
     49       2.00000          -2.997400          -81.56340
     50       2.00000          -2.997323          -81.56132
     51       2.00000          -2.997048          -81.55382
     52       2.00000          -2.997048          -81.55382
     53       2.00000          -2.997016          -81.55296
     54       2.00000          -2.997016          -81.55296
     55       2.00000          -2.996319          -81.53399
     56       2.00000          -2.996319          -81.53399
     57       2.00000          -2.996314          -81.53384
     58       2.00000          -2.996314          -81.53384
     59       2.00000          -2.995948          -81.52388
     60       2.00000          -2.995948          -81.52388
     61       2.00000          -2.995947          -81.52387
     62       2.00000          -2.995947          -81.52387
     63       2.00000          -2.212528          -60.20596
     64       2.00000          -2.204156          -59.97813
     65       2.00000          -2.194715          -59.72123
     66       2.00000          -2.194715          -59.72123
     67       2.00000          -2.193927          -59.69980
     68       2.00000          -2.193927          -59.69980
     69       2.00000          -0.329871           -8.97625
     70       2.00000          -0.287268           -7.81696
     71       2.00000          -0.287268           -7.81696
     72       2.00000          -0.252801           -6.87905
     73       2.00000          -0.252800           -6.87905
     74       2.00000          -0.241693           -6.57680
     75       2.00000          -0.241693           -6.57679
     76       2.00000          -0.235428           -6.40632
     77       2.00000          -0.234335           -6.37657
     78       2.00000          -0.234335           -6.37657
     79       2.00000          -0.231714           -6.30526
     80       0.00000          -0.160005           -4.35397
     81       0.00000          -0.008410           -0.22884
     82       0.00000          -0.004849           -0.13195
     83       0.00000          -0.004849           -0.13195
     84       0.00000           0.072905            1.98384
     85       0.00000           0.072905            1.98384
     86       0.00000           0.162020            4.40880
     87       0.00000           0.180117            4.90122

  What follows are estimated values for band gap, HOMO, LUMO, etc.
  | They are estimated on a discrete k-point grid and not necessarily exact.
  | For converged numbers, create a DOS and/or band structure plot on a denser k-grid.

  Highest occupied state (VBM) at     -6.30526379 eV (relative to internal zero)
  | Occupation number:      2.00000000
  | K-point:       1 at    0.000000    0.000000    0.000000 (in units of recip. lattice)

  Lowest unoccupied state (CBM) at    -4.35396556 eV (relative to internal zero)
  | Occupation number:      0.00000000
  | K-point:       1 at    0.000000    0.000000    0.000000 (in units of recip. lattice)

  ESTIMATED overall HOMO-LUMO gap:      1.95129824 eV between HOMO at k-point 1 and LUMO at k-point 1
  | This appears to be a direct band gap.
  The gap value is above 0.2 eV. Unless you are using a very sparse k-point grid,
  this system is most likely an insulator or a semiconductor.

  Self-consistency cycle converged.

  End self-consistency iteration #    15       :  max(cpu_time)    wall_clock(cpu1)
  | Time for this iteration                    :        0.512 s           0.513 s
  | Charge density & force component update    :        0.267 s           0.267 s
  | Density mixing                             :        0.003 s           0.003 s
  | Hartree multipole update                   :        0.002 s           0.002 s
  | Hartree multipole summation                :        0.202 s           0.202 s
  | Integration                                :        0.034 s           0.035 s
  | Solution of K.-S. eqns.                    :        0.002 s           0.002 s
  | Total energy evaluation                    :        0.001 s           0.000 s

  Partial memory accounting:
  | Current value for overall tracked memory usage:
  |   Minimum:        0.079 MB (on task 0)
  |   Maximum:        0.340 MB (on task 1)
  |   Average:        0.144 MB
  | Peak value for overall tracked memory usage:
  |   Minimum:        2.513 MB (on task 0 after allocating d_wave)
  |   Maximum:        2.774 MB (on task 1 after allocating d_wave)
  |   Average:        2.590 MB
  | Largest tracked array allocation so far:
  |   Minimum:        0.716 MB (hessian_basis_wave on task 0)
  |   Maximum:        0.743 MB (hessian_basis_wave on task 4)
  |   Average:        0.719 MB
  Note:  These values currently only include a subset of arrays which are explicitly tracked.
  The "true" memory usage will be greater.
------------------------------------------------------------
  Removing unitary transformations (pure translations, rotations) from forces on atoms.
  Atomic forces before filtering:
  | Net force on center of mass :   0.468709E-05 -0.156704E-06 -0.101539E-06 eV/A
  Atomic forces after filtering:
  | Net force on center of mass :   0.000000E+00  0.000000E+00  0.000000E+00 eV/A

  Energy and forces in a compact form:
  | Total energy uncorrected      :         -0.107130432181502E+07 eV
  | Total energy corrected        :         -0.107130432181502E+07 eV  <-- do not rely on this value for anything but (periodic) metals
  | Electronic free energy        :         -0.107130432181502E+07 eV
  Total atomic forces (unitary forces cleaned) [eV/Ang]:
  |    1          0.162901598144939E-03         -0.336254592027417E-06          0.105025616614600E-06
  |    2         -0.162901598144939E-03          0.336254592027417E-06         -0.105025616614600E-06

  ------------------------------------ 
  Start decomposition of the XC Energy 
  ------------------------------------ 
  X and C from original XC functional choice 
  Hartree-Fock Energy :          0.000000000 Ha              0.000000000 eV
  X Energy            :       -726.151218707 Ha         -19759.580017379 eV
  C Energy            :         -9.639922248 Ha           -262.315630828 eV
  Total XC Energy     :       -735.791140955 Ha         -20021.895648207 eV
  ------------------------------------ 
  LDA X and C from self-consistent density 
  X Energy LDA        :       -696.942156579 Ha         -18964.760996923 eV
  C Energy LDA        :        -16.539408695 Ha           -450.060209390 eV
  ------------------------------------ 
  End decomposition of the XC Energy 
  ------------------------------------ 

------------------------------------------------------------
  Relaxation / MD: End force evaluation.       :  max(cpu_time)    wall_clock(cpu1)
  | Time for this force evaluation             :        3.183 s           3.185 s

------------------------------------------------------------
  Geometry optimization: Attempting to predict improved coordinates.

  Removing unitary transformations (pure translations, rotations) from forces on atoms.
  Atomic forces before filtering:
  | Net force on center of mass :   0.000000E+00  0.000000E+00  0.000000E+00 eV/A
  Atomic forces after filtering:
  | Net force on center of mass :   0.000000E+00  0.000000E+00  0.000000E+00 eV/A
  Net remaining forces (excluding translations, rotations) in present geometry:
  || Forces on atoms   || =   0.162902E-03 eV/A.
  Maximum force component is  0.162902E-03 eV/A.
  Present geometry is converged.

------------------------------------------------------------
  Final atomic structure:
                         x [A]             y [A]             z [A]
  lattice_vector        15.00000000        0.00000000        0.00000000
  lattice_vector         0.00000000       12.00000000        0.00000000
  lattice_vector         0.00000000        0.00000000       12.00000000

            atom         0.22419914       -0.00000001       -0.00000003  Au
            atom         2.77580086        0.00000001        0.00000003  Au

  Fractional coordinates:
                         L1                L2                L3
       atom_frac         0.01494661       -0.00000000       -0.00000000  Au
       atom_frac         0.18505339        0.00000000        0.00000000  Au
------------------------------------------------------------
  |------------------------------------------------------
  | Final ELSI Output
  |------------------------------------------------------
  |
  | Physical Properties
  |   Number of electrons       :        0.15800000E+03
  |   Number of states          :                    87
  |
  | Matrix Properties
  |   Matrix format             :           BLACS_DENSE
  |   Number of basis functions :                    98
  |
  | Computational Details
  |   Parallel mode             :           SINGLE_PROC
  |   Solver requested          :                LAPACK
  |   Number of ELSI calls      :                     0
  |
  |------------------------------------------------------
  | ELSI Project (c)  elsi-interchange.org
  |------------------------------------------------------

------------------------------------------------------------------------------
  Final output of selected total energy values:

  The following output summarizes some interesting total energy values
  at the end of a run (AFTER all relaxation, molecular dynamics, etc.).

  | Total energy of the DFT / Hartree-Fock s.c.f. calculation      :       -1071304.321815016 eV
  | Final zero-broadening corrected energy (caution - metals only) :       -1071304.321815016 eV
  | For reference only, the value of 1 Hartree used in FHI-aims is :             27.211384500 eV
  | For reference only, the overall average (free atom contribution
  | + realspace contribution) of the electrostatic potential after
  | s.c.f. convergence is                                          :             -0.454578020 eV

  Before relying on these values, please be sure to understand exactly which
  total energy value is referred to by a given number. Different objects may
  all carry the same name 'total energy'. Definitions:

  Total energy of the DFT / Hartree-Fock s.c.f. calculation:
  | Note that this energy does not include ANY quantities calculated after the
  | s.c.f. cycle, in particular not ANY RPA, MP2, etc. many-body perturbation terms.

  Final zero-broadening corrected energy:
  | For metallic systems only, a broadening of the occupation numbers at the Fermi
  | level can be extrapolated back to zero broadening by an electron-gas inspired
  | formula. For all systems that are not real metals, this value can be
  | meaningless and should be avoided.

------------------------------------------------------------------------------
  Methods described in the following list of references were used in this FHI-aims run.
  If you publish the results, please make sure to cite these reference if they apply.
  FHI-aims is an academic code, and for our developers (often, Ph.D. students
  and postdocs), scientific credit in the community is essential.
  Thank you for helping us!

  For any use of FHI-aims, please cite:

    Volker Blum, Ralf Gehrke, Felix Hanke, Paula Havu, Ville Havu,
    Xinguo Ren, Karsten Reuter, and Matthias Scheffler
    'Ab initio molecular simulations with numeric atom-centered orbitals'
    Computer Physics Communications 180, 2175-2196 (2009)
    http://dx.doi.org/10.1016/j.cpc.2009.06.022


  The provided symmetry information was generated with SPGlib:

    Atsushi Togo, Yusuke Seto, Dimitar Pashov
    SPGlib 1.7.3 obtained from http://spglib.sourceforge.net
    Copyright (C) 2008 Atsushi Togo


  The ELSI infrastructure was used in your run to solve the Kohn-Sham electronic structure.
  Please check out http://elsi-interchange.org to learn more.
  If scalability is important for your project, please acknowledge ELSI by citing:

    V. W-z. Yu, F. Corsetti, A. Garcia, W. P. Huhn, M. Jacquelin, W. Jia,
    B. Lange, L. Lin, J. Lu, W. Mi, A. Seifitokaldani, A. Vazquez-Mayagoitia,
    C. Yang, H. Yang, and V. Blum
    'ELSI: A unified software interface for Kohn-Sham electronic structure solvers'
    Computer Physics Communications 222, 267-285 (2018).
    http://dx.doi.org/10.1016/j.cpc.2017.09.007


  For the real-space grid partitioning and parallelization used in this calculation, please cite:

    Ville Havu, Volker Blum, Paula Havu, and Matthias Scheffler,
    'Efficient O(N) integration for all-electron electronic structure calculation'
    'using numerically tabulated basis functions'
    Journal of Computational Physics 228, 8367-8379 (2009).
    http://dx.doi.org/10.1016/j.jcp.2009.08.008

  Of course, there are many other important community references, e.g., those cited in the
  above references. Our list is limited to references that describe implementations in the
  FHI-aims code. The reason is purely practical (length of this list) - please credit others as well.

 * A warning was issued further up regarding the CPU load.
   Some CPUs do not participate in the eigenvalue solution.
   In corner cases, this may be the correct behavior. Otherwise,
   consider using a scalapack/elpa version of the code for a parallel treatment.

------------------------------------------------------------
          Leaving FHI-aims.
          Date     :  20190817, Time     :  154500.867

          Computational steps:
          | Number of self-consistency cycles          :           30
          | Number of SCF (re)initializations          :            2
          | Number of relaxation steps                 :            1

          Detailed time accounting                     :  max(cpu_time)    wall_clock(cpu1)
          | Total time                                 :        7.174 s           7.205 s
          | Preparation time                           :        0.385 s           0.385 s
          | Boundary condition initalization           :        0.080 s           0.081 s
          | Grid partitioning                          :        0.086 s           0.086 s
          | Preloading free-atom quantities on grid    :        0.020 s           0.020 s
          | Free-atom superposition energy             :        0.017 s           0.017 s
          | Total time for integrations                :        1.071 s           1.072 s
          | Total time for solution of K.-S. equations :        0.094 s           0.094 s
          | Total time for EV reorthonormalization     :        0.001 s           0.000 s
          | Total time for density & force components  :        1.472 s           1.492 s
          | Total time for mixing & preconditioning    :        0.440 s           0.444 s
          | Total time for Hartree multipole update    :        0.074 s           0.074 s
          | Total time for Hartree multipole sum       :        3.077 s           3.079 s
          | Total time for total energy evaluation     :        0.006 s           0.004 s
          | Total time for scaled ZORA corrections     :        0.000 s           0.000 s

          Partial memory accounting:
          | Residual value for overall tracked memory usage across tasks:     0.000000 MB (should be 0.000000 MB)
          | Peak values for overall tracked memory usage:
          |   Minimum:        2.513 MB (on task 0 after allocating d_wave)
          |   Maximum:        2.774 MB (on task 1 after allocating d_wave)
          |   Average:        2.590 MB
          | Largest tracked array allocation:
          |   Minimum:        0.716 MB (hessian_basis_wave on task 0)
          |   Maximum:        0.743 MB (hessian_basis_wave on task 4)
          |   Average:        0.719 MB
          Note:  These values currently only include a subset of arrays which are explicitly tracked.
          The "true" memory usage will be greater.

          Have a nice day.
------------------------------------------------------------
