  MPI-parallelism will be employed.
------------------------------------------------------------
          Invoking FHI-aims ...
          Version 180101-
          Git rev. (modified): fa29f3a Merge branch master of fhiaims.rzberlin.mp[...]
          Compiled on 2018/01/19 at 14:47:46 on host theobook132.

          When using FHI-aims, please cite the following reference:

          Volker Blum, Ralf Gehrke, Felix Hanke, Paula Havu,
          Ville Havu, Xinguo Ren, Karsten Reuter, and Matthias Scheffler,
          'Ab Initio Molecular Simulations with Numeric Atom-Centered Orbitals',
          Computer Physics Communications 180, 2175-2196 (2009)

          For any questions about FHI-aims, please visit the aimsclub website
          with its forums and wiki. Contributions to both the forums and the
          wiki are warmly encouraged - they are for you, and everyone is welcome there.

------------------------------------------------------------



  Date     :  20180216, Time     :  134552.564
  Time zero on CPU 1             :   0.560000000000000E-01  s.
  Internal wall clock time zero  :           288020752.564  s.

  FHI-aims created a unique identifier for this run for later identification
  aims_uuid : D330348F-0D8C-4036-A452-1157BDE88F3F

  Using        8 parallel tasks.
  Task        0 on host theobook132 reporting.
  Task        1 on host theobook132 reporting.
  Task        2 on host theobook132 reporting.
  Task        3 on host theobook132 reporting.
  Task        4 on host theobook132 reporting.
  Task        5 on host theobook132 reporting.
  Task        6 on host theobook132 reporting.
  Task        7 on host theobook132 reporting.

  Performing system and environment tests:
  *** Environment variable OMP_NUM_THREADS is not set
  *** For performance reasons you might want to set it to 1
  | Stacksize not measured: no C compiler
  | Checking for scalapack...
  | No scalapack compiled in.

  Obtaining array dimensions for all initial allocations:
  
  -----------------------------------------------------------------------
  Parsing control.in (first pass over file, find array dimensions only).
  The contents of control.in will be repeated verbatim below
  unless switched off by setting 'verbatim_writeout .false.' .
  in the first line of control.in .
  -----------------------------------------------------------------------
  
  #########################################################################################
  #
  #  Volker Blum, FHI 2008 : Test run input file control.in for simple H2O
  #
  #########################################################################################
  #
  #  Physical model
  #
    xc                 pbe
    vdw_correction_hirshfeld
    spin               none
    relativistic       none
    charge             0.0
  #
  #  SCF convergence
  #
    occupation_type    gaussian 0.01
    mixer              pulay
      n_max_pulay        10
      charge_mix_param   0.5
    sc_accuracy_rho    1E-5
    sc_accuracy_eev    1E-3
    sc_accuracy_etot   1E-6
    sc_iter_limit      60
  #
  #  Eigenvalue solution
  #
   # KS_method	     scalapack_fast
   #   empty_states       3
   #   basis_threshold    1.e-5
  #
  #  Efficiency
  #
  #   communication_type shmem
  #
  #  Relaxation
  #
  #
   # init_hess          Lindh
  # create a better hesse matrix by lindhh-script.
  #  relax_geometry     trm 5.e-3
  # relax_geometry     trm 1.e-2
  #
  #  relax_geometry   bfgs 1.e-2
  #
  # Check below which parameters used!
  compute_forces .true.
  final_forces_cleaned .true.
  ################################################################################
  #
  #  FHI-aims code project
  #  VB, Fritz-Haber Institut, 2009
  #
  #  Suggested "light" defaults for H atom (to be pasted into control.in file)
  #  Be sure to double-check any results obtained with these settings for post-processing,
  #  e.g., with the "tight" defaults and larger basis sets.
  #
  ################################################################################
    species        H
  #     global species definitions
      nucleus             1
      mass                1.00794
  #
      l_hartree           4
  #
      cut_pot             3.5  1.5  1.0
      basis_dep_cutoff    1e-4
  #
      radial_base         24 5.0
      radial_multiplier   1
      angular_grids       specified
        division   0.2421   50
        division   0.3822  110
        division   0.4799  194
        division   0.5341  302
  #      division   0.5626  434
  #      division   0.5922  590
  #      division   0.6542  770
  #      division   0.6868 1202
  #      outer_grid  770
        outer_grid  302
  ################################################################################
  #
  #  Definition of "minimal" basis
  #
  ################################################################################
  #     valence basis states
      valence      1  s   1.
  #     ion occupancy
      ion_occ      1  s   0.5
  ################################################################################
  #
  #  Suggested additional basis functions. For production calculations,
  #  uncomment them one after another (the most important basis functions are
  #  listed first).
  #
  #  Basis constructed for dimers: 0.5 A, 0.7 A, 1.0 A, 1.5 A, 2.5 A
  #
  ################################################################################
  #  "First tier" - improvements: -1014.90 meV to -62.69 meV
       hydro 2 s 2.1
       hydro 2 p 3.5
  #  "Second tier" - improvements: -12.89 meV to -1.83 meV
  #     hydro 1 s 0.85
  #     hydro 2 p 3.7
  #     hydro 2 s 1.2
  #     hydro 3 d 7
  #  "Third tier" - improvements: -0.25 meV to -0.12 meV
  #     hydro 4 f 11.2
  #     hydro 3 p 4.8
  #     hydro 4 d 9
  #     hydro 3 s 3.2
  ################################################################################
  #
  #  FHI-aims code project
  #  VB, Fritz-Haber Institut, 2009
  #
  #  Suggested "light" defaults for C atom (to be pasted into control.in file)
  #  Be sure to double-check any results obtained with these settings for post-processing,
  #  e.g., with the "tight" defaults and larger basis sets.
  #
  ################################################################################
    species        C
  #     global species definitions
      nucleus             6
      mass                12.0107
  #
      l_hartree           4
  #
      cut_pot             3.5  1.5  1.0
      basis_dep_cutoff    1e-4
  #
      radial_base         34 5.0
      radial_multiplier   1
      angular_grids specified
        division   0.3326   50
        division   0.5710  110
        division   0.7727  194
        division   0.8772  302
  #      division   0.9334  434
  #      division   0.9625  590
  #      division   0.9924  770
  #      division   1.0230  974
  #      division   1.4589 1202
  #     outer_grid  974
       outer_grid 302
  ################################################################################
  #
  #  Definition of "minimal" basis
  #
  ################################################################################
  #     valence basis states
      valence      2  s   2.
      valence      2  p   2.
  #     ion occupancy
      ion_occ      2  s   1.
      ion_occ      2  p   1.
  ################################################################################
  #
  #  Suggested additional basis functions. For production calculations,
  #  uncomment them one after another (the most important basis functions are
  #  listed first).
  #
  #  Constructed for dimers: 1.0 A, 1.25 A, 1.5 A, 2.0 A, 3.0 A
  #
  ################################################################################
  #  "First tier" - improvements: -1214.57 meV to -155.61 meV
       hydro 2 p 1.7
       hydro 3 d 6
       hydro 2 s 4.9
  #  "Second tier" - improvements: -67.75 meV to -5.23 meV
  #     hydro 4 f 9.8
  #     hydro 3 p 5.2
  #     hydro 3 s 4.3
  #     hydro 5 g 14.4
  #     hydro 3 d 6.2
  #  "Third tier" - improvements: -2.43 meV to -0.60 meV
  #     hydro 2 p 5.6
  #     hydro 2 s 1.4
  #     hydro 3 d 4.9
  #     hydro 4 f 11.2
  #  "Fourth tier" - improvements: -0.39 meV to -0.18 meV
  #     hydro 2 p 2.1
  #     hydro 5 g 16.4
  #     hydro 4 d 13.2
  #     hydro 3 s 13.6
  #     hydro 4 f 17.6
  #  Further basis functions - improvements: -0.08 meV and below
  #     hydro 3 s 2
  #     hydro 3 p 6
  #     hydro 4 d 20
  ################################################################################
  #
  #  FHI-aims code project
  #  VB, Fritz-Haber Institut, 2009
  #
  #  Suggested "light" defaults for N atom (to be pasted into control.in file)
  #  Be sure to double-check any results obtained with these settings for post-processing,
  #  e.g., with the "tight" defaults and larger basis sets.
  #
  ################################################################################
    species        N
  #     global species definitions
      nucleus             7
      mass                14.0067
  #
      l_hartree           4
  #
      cut_pot             3.5  1.5  1.0
      basis_dep_cutoff    1e-4
  #
      radial_base         35 5.0
      radial_multiplier   1
      angular_grids       specified
        division   0.2599   50
        division   0.4601  110
        division   0.5885  194
        division   0.6503  302
  #      division   0.6939  434
  #      division   0.7396  590
  #      division   0.7632  770
  #      division   0.8122  974
  #      division   1.1604 1202
  #      outer_grid  974
        outer_grid  302
  ################################################################################
  #
  #  Definition of "minimal" basis
  #
  ################################################################################
  #     valence basis states
      valence      2  s   2.
      valence      2  p   3.
  #     ion occupancy
      ion_occ      2  s   1.
      ion_occ      2  p   2.
  ################################################################################
  #
  #  Suggested additional basis functions. For production calculations,
  #  uncomment them one after another (the most important basis functions are
  #  listed first).
  #
  #  Constructed for dimers: 1.0 A, 1.1 A, 1.5 A, 2.0 A, 3.0 A
  #
  ################################################################################
  #  "First tier" - improvements: -1193.42 meV to -220.60 meV
       hydro 2 p 1.8
       hydro 3 d 6.8
       hydro 3 s 5.8
  #  "Second tier" - improvements: -80.21 meV to -6.86 meV
  #     hydro 4 f 10.8
  #     hydro 3 p 5.8
  #     hydro 1 s 0.8
  #     hydro 5 g 16
  #     hydro 3 d 4.9
  #  "Third tier" - improvements: -4.29 meV to -0.53 meV
  #     hydro 3 s 16
  #     ionic 2 p auto
  #     hydro 3 d 6.6
  #     hydro 4 f 11.6
  #  "Fourth tier" - improvements: -0.75 meV to -0.25 meV
  #     hydro 2 p 4.5
  #     hydro 2 s 2.4
  #     hydro 5 g 14.4
  #     hydro 4 d 14.4
  #     hydro 4 f 16.8
  # Further basis functions - -0.21 meV and below
  #     hydro 3 p 14.8
  #     hydro 3 s 4.4
  #     hydro 3 d 19.6
  #     hydro 5 g 12.8
  ################################################################################
  #
  #  FHI-aims code project
  #  VB, Fritz-Haber Institut, 2009
  #
  #  Suggested "light" defaults for O atom (to be pasted into control.in file)
  #  Be sure to double-check any results obtained with these settings for post-processing,
  #  e.g., with the "tight" defaults and larger basis sets.
  #
  ################################################################################
    species        O
  #     global species definitions
      nucleus             8
      mass                15.9994
  #
      l_hartree           4
  #
      cut_pot             3.5  1.5  1.0
      basis_dep_cutoff    1e-4
  #
      radial_base         36 5.0
      radial_multiplier   1
       angular_grids specified
        division   0.2659   50
        division   0.4451  110
        division   0.6052  194
        division   0.7543  302
  #      division   0.8014  434
  #      division   0.8507  590
  #      division   0.8762  770
  #      division   0.9023  974
  #      division   1.2339 1202
  #      outer_grid 974
        outer_grid 302
  ################################################################################
  #
  #  Definition of "minimal" basis
  #
  ################################################################################
  #     valence basis states
      valence      2  s   2.
      valence      2  p   4.
  #     ion occupancy
      ion_occ      2  s   1.
      ion_occ      2  p   3.
  ################################################################################
  #
  #  Suggested additional basis functions. For production calculations,
  #  uncomment them one after another (the most important basis functions are
  #  listed first).
  #
  #  Constructed for dimers: 1.0 A, 1.208 A, 1.5 A, 2.0 A, 3.0 A
  #
  ################################################################################
  #  "First tier" - improvements: -699.05 meV to -159.38 meV
       hydro 2 p 1.8
       hydro 3 d 7.6
       hydro 3 s 6.4
  #  "Second tier" - improvements: -49.91 meV to -5.39 meV
  #     hydro 4 f 11.6
  #     hydro 3 p 6.2
  #     hydro 3 d 5.6
  #     hydro 5 g 17.6
  #     hydro 1 s 0.75
  #  "Third tier" - improvements: -2.83 meV to -0.50 meV
  #     ionic 2 p auto
  #     hydro 4 f 10.8
  #     hydro 4 d 4.7
  #     hydro 2 s 6.8
  #  "Fourth tier" - improvements: -0.40 meV to -0.12 meV
  #     hydro 3 p 5
  #     hydro 3 s 3.3
  #     hydro 5 g 15.6
  #     hydro 4 f 17.6
  #     hydro 4 d 14
  # Further basis functions - -0.08 meV and below
  #     hydro 3 s 2.1
  #     hydro 4 d 11.6
  #     hydro 3 p 16
  #     hydro 2 s 17.2
  ################################################################################
  #
  #  FHI-aims code project
  #  VB, Fritz-Haber Institut, 2009
  #
  #  Suggested "light" defaults for Na atom (to be pasted into control.in file)
  #  Be sure to double-check any results obtained with these settings for post-processing,
  #  e.g., with the "tight" defaults and larger basis sets.
  #
  ################################################################################
    species        Na
  #     global species definitions
      nucleus             11
      mass                22.98976928
  #
      l_hartree           4
  #
      cut_pot             4.0          1.5  1.0
      basis_dep_cutoff    1e-4
  #
      radial_base         40 5.5
      radial_multiplier   1
      angular_grids       specified
        division   0.5925  110
        division   0.7843  194
        division   1.0201  302
  #      division   1.1879  434
  #      division   1.3799  590
  #      division   1.4503  770
  #      division   7.0005  974
  #      outer_grid  974
        outer_grid  302
  ################################################################################
  #
  #  Definition of "minimal" basis
  #
  ################################################################################
  #     valence basis states
      valence      3  s   1.
      valence      2  p   6.
  #     ion occupancy
      ion_occ      2  s   2.
      ion_occ      2  p   6.
  ################################################################################
  #
  #  Suggested additional basis functions. For production calculations,
  #  uncomment them one after another (the most important basis functions are
  #  listed first).
  #
  #  Constructed for dimers: 2.0 A, 2.5 A, 3.0 A, 3.75 A, 4.5 A
  #
  ################################################################################
  #  "First tier" - improvements: -60.09 meV to -10.02 meV
       hydro 2 p 1.2
       hydro 3 s 1.8
       hydro 3 d 3.8
  #  "Second tier" - improvements: -2.94 meV to -1.27 meV
  #     hydro 4 p 3.1
  #     hydro 3 s 10
  #     hydro 4 f 6.2
  #     hydro 4 d 1.3
  #  "Third tier" - improvements: -0.83 meV to -0.07 meV
  #     hydro 3 d 7.8
  #     hydro 3 p 2.3
  #     hydro 5 g 9.6
  #     hydro 4 p 0.85
  #     hydro 5 f 1.8
  #     hydro 2 s 0.6
  #  Further basis functions that fell out of the optimization - noise level...
  #     hydro 5 g 0.1
  #     hydro 4 d 3.4
  #     hydro 4 s 0.1
  
  
  -----------------------------------------------------------------------
  Completed first pass over input file control.in .
  -----------------------------------------------------------------------
  
  
  -----------------------------------------------------------------------
  Parsing geometry.in (first pass over file, find array dimensions only).
  The contents of geometry.in will be repeated verbatim below
  unless switched off by setting 'verbatim_writeout .false.' .
  in the first line of geometry.in .
  -----------------------------------------------------------------------
  
  #=======================================#
  # iterations/iteration0077/aims-chain-node-0.72727/geometry.in
  #=======================================#
  atom -2.0272778628975305 -3.2010865585192967 -0.7472789619515150 C
  atom -1.1060912965590912 -2.1389649893642200 -0.1547565150578396 C
  atom -0.7408469010422042 -2.1614176641678009 1.0236674073184064 O
  atom -2.3612007366101451 -3.8592126086000138 0.0607614277481047 H
  atom -2.9060056798008453 -2.7527298537357989 -1.2335264064451321 H
  atom -1.4953335845759113 -3.8048937824951259 -1.4971074753453242 H
  atom -0.7379708418567986 -1.1619316862656812 -1.0452913451106904 N
  atom 0.0239163629622479 0.0678559003227741 -0.7755172154345789 C
  atom -0.3172542991808996 0.7305469190084448 0.5626065264317790 C
  atom 1.5423877233456367 -0.1042846104850838 -1.0323283256719353 C
  atom 2.0501376610879185 0.3345467335449333 -2.0686310088684747 O
  atom -0.9738587385384204 -1.3190809345796808 -2.0197647660833766 H
  atom -0.2659399711614276 0.7616435532121010 -1.5771569135891350 H
  atom -1.3936692667417849 0.9435825456907672 0.6093814900391485 H
  atom -0.0686741108547488 0.1066870003983650 1.4273532134953282 H
  atom 0.2255801136792396 1.6817645858480563 0.6354310919501327 H
  atom 2.2681046139514289 -0.7147662652450313 -0.0564661639007734 N
  atom 3.7136973940138955 -0.8485794938440355 -0.1808518965932335 C
  atom 1.7819565844882299 -1.1327785194768718 0.7334815003117544 H
  atom 4.1370718014032652 -1.1119363670574909 0.7946494795649386 H
  atom 3.9978662902772188 -1.6152794774539634 -0.9182985785909233 H
  atom 4.1386187070452696 0.1080343341236105 -0.5144526273076994 H
  
  -----------------------------------------------------------------------
  Completed first pass over input file geometry.in .
  -----------------------------------------------------------------------
  

  Basic array size parameters:
  | Number of species                 :        5
  | Number of atoms                   :       22
  | Max. basis fn. angular momentum   :        2
  | Max. atomic/ionic basis occupied n:        3
  | Max. number of basis fn. types    :        2
  | Max. radial fns per species/type  :        4
  | Max. logarithmic grid size        :     1327
  | Max. radial integration grid size :       40
  | Max. angular integration grid size:      302
  | Max. angular grid division number :        8
  | Radial grid for Hartree potential :     1327
  | Number of spin channels           :        1

------------------------------------------------------------
          Reading file control.in.
------------------------------------------------------------
  XC: Using PBE gradient-corrected functionals.
  Spin treatment: No spin polarisation.
  Non-relativistic treatment of kinetic energy.
  Charge =   0.000000E+00: Neutral system requested explicitly.
  Occupation type: Gaussian broadening, width =   0.100000E-01 eV.
  Using pulay charge density mixing.
  Pulay mixing - number of memorized iterations:   10
  Charge density mixing - mixing parameter:     0.5000
  Convergence accuracy of self-consistent charge density:  0.1000E-04
  Convergence accuracy of sum of eigenvalues:  0.1000E-02
  Convergence accuracy of total energy:  0.1000E-05
  Maximum number of s.-c. iterations  :    60
  Forces will be computed.
  Cleaning forces before final output.
 
  Reading configuration options for species H                   .
  | Found nuclear charge :   1.0000
  | Found atomic mass :    1.00794000000000      amu
  | Found l_max for Hartree potential  :   4
  | Found cutoff potl. onset [A], width [A], scale factor :    3.50000    1.50000    1.00000
  | Threshold for basis-dependent cutoff potential is   0.100000E-03
  | Found data for basic radial integration grid :    24 points, outermost radius =    5.000 A
  | Found multiplier for basic radial grid :   1
  | Found angular grid specification: user-specified.
  | Specified grid contains     5 separate shells.
  | Check grid settings after all constraints further below.
  | Found free-atom valence shell :  1 s   1.000
  | No ionic wave fns used. Skipping ion_occ.
  | Found hydrogenic basis function :  2 s   2.100
  | Found hydrogenic basis function :  2 p   3.500
  Species H                   : Missing cutoff potential type.
  Defaulting to exp(1/x)/(1-x)^2 type cutoff potential.
  Species H : No 'logarithmic' tag. Using default grid for free atom:
  | Default logarithmic grid data [bohr] : 0.1000E-03 0.1000E+03 0.1012E+01
  Species H : On-site basis accuracy parameter (for Gram-Schmidt orthonormalisation) not specified.
  Using default value basis_acc =  0.1000000E-03.
  Species H                   : Using default innermost maximum threshold i_radial=  2 for radial functions.
  Species H                   : Default cutoff onset for free atom density etc. : 0.35000000E+01 AA.
  Species H                   : Basic radial grid will be enhanced according to radial_multiplier =   1, to contain    24 grid points.
 
  Reading configuration options for species C                   .
  | Found nuclear charge :   6.0000
  | Found atomic mass :    12.0107000000000      amu
  | Found l_max for Hartree potential  :   4
  | Found cutoff potl. onset [A], width [A], scale factor :    3.50000    1.50000    1.00000
  | Threshold for basis-dependent cutoff potential is   0.100000E-03
  | Found data for basic radial integration grid :    34 points, outermost radius =    5.000 A
  | Found multiplier for basic radial grid :   1
  | Found angular grid specification: user-specified.
  | Specified grid contains     5 separate shells.
  | Check grid settings after all constraints further below.
  | Found free-atom valence shell :  2 s   2.000
  | Found free-atom valence shell :  2 p   2.000
  | No ionic wave fns used. Skipping ion_occ.
  | No ionic wave fns used. Skipping ion_occ.
  | Found hydrogenic basis function :  2 p   1.700
  | Found hydrogenic basis function :  3 d   6.000
  | Found hydrogenic basis function :  2 s   4.900
  Species C                   : Missing cutoff potential type.
  Defaulting to exp(1/x)/(1-x)^2 type cutoff potential.
  Species C : No 'logarithmic' tag. Using default grid for free atom:
  | Default logarithmic grid data [bohr] : 0.1000E-03 0.1000E+03 0.1012E+01
  Species C : On-site basis accuracy parameter (for Gram-Schmidt orthonormalisation) not specified.
  Using default value basis_acc =  0.1000000E-03.
  Species C                   : Using default innermost maximum threshold i_radial=  2 for radial functions.
  Species C                   : Default cutoff onset for free atom density etc. : 0.35000000E+01 AA.
  Species C                   : Basic radial grid will be enhanced according to radial_multiplier =   1, to contain    34 grid points.
 
  Reading configuration options for species N                   .
  | Found nuclear charge :   7.0000
  | Found atomic mass :    14.0067000000000      amu
  | Found l_max for Hartree potential  :   4
  | Found cutoff potl. onset [A], width [A], scale factor :    3.50000    1.50000    1.00000
  | Threshold for basis-dependent cutoff potential is   0.100000E-03
  | Found data for basic radial integration grid :    35 points, outermost radius =    5.000 A
  | Found multiplier for basic radial grid :   1
  | Found angular grid specification: user-specified.
  | Specified grid contains     5 separate shells.
  | Check grid settings after all constraints further below.
  | Found free-atom valence shell :  2 s   2.000
  | Found free-atom valence shell :  2 p   3.000
  | No ionic wave fns used. Skipping ion_occ.
  | No ionic wave fns used. Skipping ion_occ.
  | Found hydrogenic basis function :  2 p   1.800
  | Found hydrogenic basis function :  3 d   6.800
  | Found hydrogenic basis function :  3 s   5.800
  Species N                   : Missing cutoff potential type.
  Defaulting to exp(1/x)/(1-x)^2 type cutoff potential.
  Species N : No 'logarithmic' tag. Using default grid for free atom:
  | Default logarithmic grid data [bohr] : 0.1000E-03 0.1000E+03 0.1012E+01
  Species N : On-site basis accuracy parameter (for Gram-Schmidt orthonormalisation) not specified.
  Using default value basis_acc =  0.1000000E-03.
  Species N                   : Using default innermost maximum threshold i_radial=  2 for radial functions.
  Species N                   : Default cutoff onset for free atom density etc. : 0.35000000E+01 AA.
  Species N                   : Basic radial grid will be enhanced according to radial_multiplier =   1, to contain    35 grid points.
 
  Reading configuration options for species O                   .
  | Found nuclear charge :   8.0000
  | Found atomic mass :    15.9994000000000      amu
  | Found l_max for Hartree potential  :   4
  | Found cutoff potl. onset [A], width [A], scale factor :    3.50000    1.50000    1.00000
  | Threshold for basis-dependent cutoff potential is   0.100000E-03
  | Found data for basic radial integration grid :    36 points, outermost radius =    5.000 A
  | Found multiplier for basic radial grid :   1
  | Found angular grid specification: user-specified.
  | Specified grid contains     5 separate shells.
  | Check grid settings after all constraints further below.
  | Found free-atom valence shell :  2 s   2.000
  | Found free-atom valence shell :  2 p   4.000
  | No ionic wave fns used. Skipping ion_occ.
  | No ionic wave fns used. Skipping ion_occ.
  | Found hydrogenic basis function :  2 p   1.800
  | Found hydrogenic basis function :  3 d   7.600
  | Found hydrogenic basis function :  3 s   6.400
  Species O                   : Missing cutoff potential type.
  Defaulting to exp(1/x)/(1-x)^2 type cutoff potential.
  Species O : No 'logarithmic' tag. Using default grid for free atom:
  | Default logarithmic grid data [bohr] : 0.1000E-03 0.1000E+03 0.1012E+01
  Species O : On-site basis accuracy parameter (for Gram-Schmidt orthonormalisation) not specified.
  Using default value basis_acc =  0.1000000E-03.
  Species O                   : Using default innermost maximum threshold i_radial=  2 for radial functions.
  Species O                   : Default cutoff onset for free atom density etc. : 0.35000000E+01 AA.
  Species O                   : Basic radial grid will be enhanced according to radial_multiplier =   1, to contain    36 grid points.
 
  Reading configuration options for species Na                  .
  | Found nuclear charge :  11.0000
  | Found atomic mass :    22.9897692800000      amu
  | Found l_max for Hartree potential  :   4
  | Found cutoff potl. onset [A], width [A], scale factor :    4.00000    1.50000    1.00000
  | Threshold for basis-dependent cutoff potential is   0.100000E-03
  | Found data for basic radial integration grid :    40 points, outermost radius =    5.500 A
  | Found multiplier for basic radial grid :   1
  | Found angular grid specification: user-specified.
  | Specified grid contains     4 separate shells.
  | Check grid settings after all constraints further below.
  | Found free-atom valence shell :  3 s   1.000
  | Found free-atom valence shell :  2 p   6.000
  | No ionic wave fns used. Skipping ion_occ.
  | No ionic wave fns used. Skipping ion_occ.
  | Found hydrogenic basis function :  2 p   1.200
  | Found hydrogenic basis function :  3 s   1.800
  | Found hydrogenic basis function :  3 d   3.800
  Species Na                  : Missing cutoff potential type.
  Defaulting to exp(1/x)/(1-x)^2 type cutoff potential.
  Species Na: No 'logarithmic' tag. Using default grid for free atom:
  | Default logarithmic grid data [bohr] : 0.1000E-03 0.1000E+03 0.1012E+01
  Species Na: On-site basis accuracy parameter (for Gram-Schmidt orthonormalisation) not specified.
  Using default value basis_acc =  0.1000000E-03.
  Species Na                  : Using default innermost maximum threshold i_radial=  2 for radial functions.
  Species Na                  : Default cutoff onset for free atom density etc. : 0.40000000E+01 AA.
  Species Na                  : Basic radial grid will be enhanced according to radial_multiplier =   1, to contain    40 grid points.
 
  Finished reading input file 'control.in'. Consistency checks are next.
 
  MPI_IN_PLACE appears to work with this MPI implementation.
  | Keeping use_mpi_in_place .true. (see manual).
  Target number of points in a grid batch is not set. Defaulting to  100
  Method for grid partitioning is not set. Defaulting to parallel hash+maxmin partitioning.
  Batch size limit is not set. Defaulting to    200
  By default, will store active basis functions for each batch.
  If in need of memory, prune_basis_once .false. can be used to disable this option.
  communication_type for Hartree potential was not specified.
  Defaulting to calc_hartree .
  Pulay mixer: Number of initial linear mixing iterations not set.
  Defaulting to    0 iterations.
  Work space size for distributed Hartree potential not set.
  Defaulting to   0.200000E+03 MB.
  Algorithm-dependent basis array size parameters:
  | n_max_pulay                         :       10
  Presetting        40 iterations before the initial mixing cycle
  is restarted anyway using the sc_init_iter criterion / keyword.
  Presetting a factor      1.000 between actual scf density residual
  and density convergence criterion sc_accuracy_rho below which sc_init_iter
  takes no effect.
  Geometry relaxation not requested: no relaxation will be performed.
  Force calculation: scf convergence accuracy of forces not set.
  Defaulting to 'sc_accuracy_forces not_checked'.
  Handling of forces: Unphysical translation and rotation will be removed from forces.
  No accuracy limit for integral partition fn. given. Defaulting to  0.1000E-14.
  No threshold value for u(r) in integrations given. Defaulting to  0.1000E-05.
  No accuracy for occupation numbers given. Defaulting to  0.1000E-12.
  No threshold value for occupation numbers given. Defaulting to  0.0000E+00.
  No accuracy for fermi level given. Defaulting to  0.1000E-19.
  Maximum # of iterations to find E_F not set. Defaulting to  200.
  Preferred method for the eigenvalue solver ('KS_method') not specified in 'control.in'.
  Calling BLACS routine to test compilation state
  The best choice would be 'elsi', but your version of FHI-aims is compiled without ScaLAPACK support.
  Defaulting to 'lapack_fast' instead (serial solution, time will not improve with more CPUs).
  Will not use alltoall communication since running on < 1024 CPUs.
  Threshold for basis singularities not set.
  Default threshold for basis singularities:  0.1000E-04
  partition_type (choice of integration weights) for integrals was not specified.
  | Using a version of the partition function of Stratmann and coworkers ('stratmann_smoother').
  | At each grid point, the set of atoms used to build the partition table is smoothly restricted to
  | only those atoms whose free-atom density would be non-zero at that grid point.
  Partitioning for Hartree potential was not defined. Using partition_type for integrals.
  | Adjusted default value of keyword multip_moments_threshold to:       0.10000000E-11
  | This value may affect high angular momentum components of the Hartree potential in periodic systems.
  No q(lm)/r^(l+1) cutoff set for long-range Hartree potential.
  | Using default value of  0.100000E-09 .
  | Verify using the multipole_threshold keyword.
  Defaulting to new monopole extrapolation.
  Density update method: automatic selection selected.
------------------------------------------------------------


------------------------------------------------------------
          Reading geometry description geometry.in.
------------------------------------------------------------
  Input structure read successfully.
  The structure contains       22 atoms,  and a total of         78.000 electrons.

  Input geometry:
  | No unit cell requested.
  | Atomic structure:
  |       Atom                x [A]            y [A]            z [A]
  |    1: Species C            -2.02727786       -3.20108656       -0.74727896
  |    2: Species C            -1.10609130       -2.13896499       -0.15475652
  |    3: Species O            -0.74084690       -2.16141766        1.02366741
  |    4: Species H            -2.36120074       -3.85921261        0.06076143
  |    5: Species H            -2.90600568       -2.75272985       -1.23352641
  |    6: Species H            -1.49533358       -3.80489378       -1.49710748
  |    7: Species N            -0.73797084       -1.16193169       -1.04529135
  |    8: Species C             0.02391636        0.06785590       -0.77551722
  |    9: Species C            -0.31725430        0.73054692        0.56260653
  |   10: Species C             1.54238772       -0.10428461       -1.03232833
  |   11: Species O             2.05013766        0.33454673       -2.06863101
  |   12: Species H            -0.97385874       -1.31908093       -2.01976477
  |   13: Species H            -0.26593997        0.76164355       -1.57715691
  |   14: Species H            -1.39366927        0.94358255        0.60938149
  |   15: Species H            -0.06867411        0.10668700        1.42735321
  |   16: Species H             0.22558011        1.68176459        0.63543109
  |   17: Species N             2.26810461       -0.71476627       -0.05646616
  |   18: Species C             3.71369739       -0.84857949       -0.18085190
  |   19: Species H             1.78195658       -1.13277852        0.73348150
  |   20: Species H             4.13707180       -1.11193637        0.79464948
  |   21: Species H             3.99786629       -1.61527948       -0.91829858
  |   22: Species H             4.13861871        0.10803433       -0.51445263
  |

  | The smallest distance between any two atoms is         1.01485833 AA.
  |
  | The first atom of this pair is atom number                      7 .
  | The second atom of this pair is atom number                    12 .

  Number of empty states per atom not set in control.in - providing a guess from actual geometry.
  | Total number of empty states used during s.c.f. cycle:       48
  If you use a very high smearing, use empty_states (per atom!) in control.in to increase this value.

  Structure-dependent array size parameters: 
  | Maximum number of distinct radial functions  :       28
  | Maximum number of basis functions            :      200
  | Number of Kohn-Sham states (occupied + empty):       87
------------------------------------------------------------

------------------------------------------------------------
          Preparing all fixed parts of the calculation.
------------------------------------------------------------
  Determining machine precision:
    2.225073858507201E-308
  Setting up grids for atomic and cluster calculations.

  Creating wave function, potential, and density for free atoms.

  Species: H

  List of occupied orbitals and eigenvalues:
    n    l              occ      energy [Ha]    energy [eV]
    1    0           1.0000        -0.237589        -6.4651


  Species: C

  List of occupied orbitals and eigenvalues:
    n    l              occ      energy [Ha]    energy [eV]
    1    0           2.0000       -10.038835      -273.1706
    2    0           2.0000        -0.502696       -13.6791
    2    1           2.0000        -0.191971        -5.2238


  Species: N

  List of occupied orbitals and eigenvalues:
    n    l              occ      energy [Ha]    energy [eV]
    1    0           2.0000       -14.128000      -384.4424
    2    0           2.0000        -0.681077       -18.5330
    2    1           3.0000        -0.259788        -7.0692


  Species: O

  List of occupied orbitals and eigenvalues:
    n    l              occ      energy [Ha]    energy [eV]
    1    0           2.0000       -18.898188      -514.2459
    2    0           2.0000        -0.878505       -23.9053
    2    1           4.0000        -0.331779        -9.0282


  Species: Na

  List of occupied orbitals and eigenvalues:
    n    l              occ      energy [Ha]    energy [eV]
    1    0           2.0000       -37.908205     -1031.5347
    2    0           2.0000        -2.061650       -56.1004
    3    0           1.0000        -0.086939        -2.3657
    2    1           6.0000        -1.037965       -28.2445

  Creating fixed part of basis set: Ionic, confined, hydrogenic.
 
  H                    hydrogenic:
 
  List of hydrogenic basis orbitals: 
    n    l      effective z      eigenvalue [eV]  inner max. [A]     outer max. [A]     outer radius [A]   
    2    0         2.100000       -14.9728           0.193243           1.317208           4.583499
    2    1         3.500000       -41.6669           0.602369           0.602369           3.723403
 
 
  C                    hydrogenic:
 
  List of hydrogenic basis orbitals: 
    n    l      effective z      eigenvalue [eV]  inner max. [A]     outer max. [A]     outer radius [A]   
    2    1         1.700000        -9.7616           1.230570           1.230570           4.607917
    3    2         6.000000       -54.4224           0.792453           0.792453           3.883070
    2    0         4.900000       -81.6679           0.082559           0.562749           3.078220
 
 
  N                    hydrogenic:
 
  List of hydrogenic basis orbitals: 
    n    l      effective z      eigenvalue [eV]  inner max. [A]     outer max. [A]     outer radius [A]   
    2    1         1.800000       -10.9749           1.177451           1.177451           4.573712
    3    2         6.800000       -69.9026           0.704619           0.704619           3.538137
    3    0         5.800000       -50.8545           0.067388           1.191934           4.250239
 
 
  O                    hydrogenic:
 
  List of hydrogenic basis orbitals: 
    n    l      effective z      eigenvalue [eV]  inner max. [A]     outer max. [A]     outer radius [A]   
    2    1         1.800000       -10.9749           1.164242           1.164242           4.578029
    3    2         7.600000       -87.3180           0.624125           0.624125           3.251020
    3    0         6.400000       -61.9207           0.061167           1.081902           4.001998
 
 
  Na                   hydrogenic:
 
  List of hydrogenic basis orbitals: 
    n    l      effective z      eigenvalue [eV]  inner max. [A]     outer max. [A]     outer radius [A]   
    2    1         1.200000        -4.7043           1.699681           1.699681           5.107393
    3    0         1.800000        -2.7647           0.215330           3.132057           5.107393
    3    2         3.800000       -21.8265           1.252092           1.252092           5.045336
 

  Adding cutoff potential to free-atom effective potential.
  Creating atomic-like basis functions for current effective potential.

  Species H                   :

  List of atomic basis orbitals and eigenvalues:
    n    l      energy [Ha]    energy [eV]    outer radius [A]
    1    0        -0.237589        -6.4651       4.527807


  Species C                   :

  List of atomic basis orbitals and eigenvalues:
    n    l      energy [Ha]    energy [eV]    outer radius [A]
    1    0       -10.038835      -273.1706       1.934409
    2    0        -0.502696       -13.6791       4.496620
    2    1        -0.191971        -5.2238       4.551928


  Species N                   :

  List of atomic basis orbitals and eigenvalues:
    n    l      energy [Ha]    energy [eV]    outer radius [A]
    1    0       -14.128000      -384.4424       1.637919
    2    0        -0.681077       -18.5330       4.463241
    2    1        -0.259788        -7.0692       4.518138


  Species O                   :

  List of atomic basis orbitals and eigenvalues:
    n    l      energy [Ha]    energy [eV]    outer radius [A]
    1    0       -18.898188      -514.2459       1.415765
    2    0        -0.878505       -23.9053       4.413171
    2    1        -0.331779        -9.0282       4.522403


  Species Na                  :

  List of atomic basis orbitals and eigenvalues:
    n    l      energy [Ha]    energy [eV]    outer radius [A]
    1    0       -37.908205     -1031.5347       1.017136
    2    0        -2.061650       -56.1004       4.251681
    3    0        -0.086939        -2.3657       5.107393
    2    1        -1.037965       -28.2445       4.746176

  Assembling full basis from fixed parts.
  | Species H :   atomic orbital   1 s accepted.
  | Species H :    hydro orbital   2 s accepted.
  | Species H :    hydro orbital   2 p accepted.
  | Species C :   atomic orbital   1 s accepted.
  | Species C :    hydro orbital   2 s accepted.
  | Species C :   atomic orbital   2 s accepted.
  | Species C :   atomic orbital   2 p accepted.
  | Species C :    hydro orbital   2 p accepted.
  | Species C :    hydro orbital   3 d accepted.
  | Species N :   atomic orbital   1 s accepted.
  | Species N :    hydro orbital   3 s accepted.
  | Species N :   atomic orbital   2 s accepted.
  | Species N :   atomic orbital   2 p accepted.
  | Species N :    hydro orbital   2 p accepted.
  | Species N :    hydro orbital   3 d accepted.
  | Species O :   atomic orbital   1 s accepted.
  | Species O :    hydro orbital   3 s accepted.
  | Species O :   atomic orbital   2 s accepted.
  | Species O :   atomic orbital   2 p accepted.
  | Species O :    hydro orbital   2 p accepted.
  | Species O :    hydro orbital   3 d accepted.
  | Species Na :   atomic orbital   1 s accepted.
  | Species Na :   atomic orbital   2 s accepted.
  | Species Na :   atomic orbital   3 s accepted.
  | Species Na :    hydro orbital   3 s accepted.
  | Species Na :   atomic orbital   2 p accepted.
  | Species Na :    hydro orbital   2 p accepted.
  | Species Na :    hydro orbital   3 d accepted.
 
  Basis size parameters after reduction:
  | Total number of radial functions:       28
  | Total number of basis functions :      200
 
  Per-task memory consumption for arrays in subroutine allocate_ext:
  |           7.142412MB.
  Testing on-site integration grid accuracy.
  |  Species  Function  <phi|h_atom|phi> (log., in eV)  <phi|h_atom|phi> (rad., in eV)
           1        1                 -6.4663192853                 -6.4651273558
           1        2                 13.7111246313                 13.7170609718
           1        3                 25.2673269279                 25.2674696378
           2        4               -273.1705927641               -273.1705631568
           2        5                -10.7109323383                -10.7107120029
           2        6                 17.4381822266                 17.4352413244
           2        7                 -5.2255326521                 -5.2270484734
           2        8                  8.6835629259                  8.6603288385
           2        9                 27.4952418996                 27.4953360207
           3       10               -384.4424306495               -384.4423701208
           3       11                 12.5842251816                 12.5842222903
           3       12                -15.7264628251                -15.7264433455
           3       13                 -7.0696854293                 -7.0701769954
           3       14                  8.8090390882                  8.7901077751
           3       15                 35.9586762123                 35.9588528632
           4       16               -514.2458688638               -514.2457643834
           4       17                 15.1795651126                 15.1795290741
           4       18                -21.5359799773                -21.5360846186
           4       19                 -9.0283069236                 -9.0284644067
           4       20                  8.3027758564                  8.2834874195
           4       21                 45.8339351984                 45.8338762259
           5       22              -1031.5347301569              -1031.5343700005
           5       23                -56.1003590737                -56.1003577733
           5       24                 -2.3872449526                 -2.3874266514
           5       25                  4.8089581560                  4.7916273983
           5       26                -28.2444627299                -28.2444626864
           5       27                  0.6487953582                  0.6484930494
           5       28                 10.4219557667                 10.4220291668

  Preparing densities etc. for the partition functions (integrals / Hartree potential).

  Preparations completed.
  max(cpu_time)          :      0.304 s.
  Wall clock time (cpu1) :      0.311 s.
------------------------------------------------------------

------------------------------------------------------------
          Begin self-consistency loop: Initialization.

          Date     :  20180216, Time     :  134552.906
------------------------------------------------------------

  Initializing index lists of integration centers etc. from given atomic structure:
  | Number of centers in hartree potential         :        22
  | Number of centers in hartree multipole         :        22
  | Number of centers in electron density summation:        22
  | Number of centers in basis integrals           :        22
  | Number of centers in integrals                 :        22
  | Number of centers in hamiltonian               :        22
  Partitioning the integration grid into batches with parallel hashing+maxmin method.
  | Number of batches:     1203
  | Maximal batch size:     172
  | Minimal batch size:      51
  | Average batch size:      97.194
  | Standard deviation of batch sizes:      31.802

  Integration load balanced across     8 MPI tasks.
  Work distribution over tasks is as follows:
  Task     0 has      14615 integration points.
  Task     1 has      14699 integration points.
  Task     2 has      14627 integration points.
  Task     3 has      14596 integration points.
  Task     4 has      14608 integration points.
  Task     5 has      14609 integration points.
  Task     6 has      14587 integration points.
  Task     7 has      14583 integration points.
  Initializing partition tables, free-atom densities, potentials, etc. across the integration grid (initialize_grid_storage).
  | initialize_grid_storage: Actual outermost partition radius vs. multipole_radius_free
  | (-- VB: in principle, multipole_radius_free should be larger, hence this output)
  | Species        1: Confinement radius =              4.999999999999999 AA, multipole_radius_free =              5.054417573612229 AA.
  | Species        1: outer_partition_radius set to              5.054417573612229 AA .
  | Species        2: Confinement radius =              4.999999999999999 AA, multipole_radius_free =              5.019602836301480 AA.
  | Species        2: outer_partition_radius set to              5.019602836301480 AA .
  | Species        3: Confinement radius =              4.999999999999999 AA, multipole_radius_free =              5.043624274424571 AA.
  | Species        3: outer_partition_radius set to              5.043624274424571 AA .
  | Species        4: Confinement radius =              4.999999999999999 AA, multipole_radius_free =              5.048384829883283 AA.
  | Species        4: outer_partition_radius set to              5.048384829883283 AA .
  | Species        5: Confinement radius =              5.500000000000000 AA, multipole_radius_free =              5.563704032673898 AA.
  | Species        5: outer_partition_radius set to              5.563704032673898 AA .
  | Original list of interatomic distances with          22 x         22 entries is created.
  | Net number of integration points:   116924
  | of which are non-zero points    :    99404
  Renormalizing the initial density to the exact electron count on the 3D integration grid.
  | Initial density: Formal number of electrons (from input files) :      78.0000000000
  | Integrated number of electrons on 3D grid     :      77.9999273462
  | Charge integration error                      :      -0.0000726538
  | Normalization factor for density and gradient :       1.0000009315
  Obtaining max. number of non-zero basis functions in each batch (get_n_compute_maxes).
  | Maximal number of non-zero basis functions:      197 in task     0
  | Maximal number of non-zero basis functions:      197 in task     1
  | Maximal number of non-zero basis functions:      196 in task     2
  | Maximal number of non-zero basis functions:      195 in task     3
  | Maximal number of non-zero basis functions:      196 in task     4
  | Maximal number of non-zero basis functions:      195 in task     5
  | Maximal number of non-zero basis functions:      194 in task     6
  | Maximal number of non-zero basis functions:      196 in task     7
  Selecting the method for density update.
  Loop over occupied states selected for charge density update.
  Allocating        0.139 MB for KS_eigenvector
  Integrating Hamiltonian matrix: batch-based integration.
  Time summed over all CPUs for integration: real work        4.663 s, elapsed        4.706 s
  Integrating overlap matrix.
  Time summed over all CPUs for integration: real work        1.968 s, elapsed        1.994 s

  Updating Kohn-Sham eigenvalues, eigenvectors, occupation numbers, and Fermi level.
  Solving generalized eigenproblem
  Updating Kohn-Sham eigenvalues and eigenfunctions.
  Transforming overlap matrix and checking for singularities.
  Overlap matrix is nonsingular:
  | Lowest eigenvalue:  0.282858E-02
  Solving real generalised eigenvalue problem by standard LAPACK (fast)

  Obtaining occupation numbers and chemical potential using ELSI.
  | Chemical potential (Fermi level):    -9.66935986eV
  Writing Kohn-Sham eigenvalues.

  State    Occupation    Eigenvalue [Ha]    Eigenvalue [eV]
      1       2.00000         -18.970495         -516.21344
      2       2.00000         -18.970256         -516.20693
      3       2.00000         -14.250651         -387.77995
      4       2.00000         -14.247525         -387.69489
      5       2.00000         -10.165667         -276.62188
      6       2.00000         -10.164829         -276.59906
      7       2.00000         -10.161351         -276.50444
      8       2.00000         -10.141265         -275.95786
      9       2.00000         -10.129537         -275.63873
     10       2.00000         -10.128722         -275.61655
     11       2.00000          -1.124864          -30.60910
     12       2.00000          -1.121382          -30.51436
     13       2.00000          -1.009672          -27.47457
     14       2.00000          -1.001157          -27.24286
     15       2.00000          -0.881500          -23.98684
     16       2.00000          -0.834921          -22.71936
     17       2.00000          -0.811529          -22.08284
     18       2.00000          -0.760586          -20.69660
     19       2.00000          -0.688002          -18.72147
     20       2.00000          -0.668316          -18.18579
     21       2.00000          -0.636218          -17.31237
     22       2.00000          -0.618157          -16.82090
     23       2.00000          -0.589634          -16.04477
     24       2.00000          -0.578467          -15.74089
     25       2.00000          -0.556937          -15.15502
     26       2.00000          -0.553030          -15.04871
     27       2.00000          -0.546992          -14.88441
     28       2.00000          -0.542214          -14.75440
     29       2.00000          -0.528179          -14.37247
     30       2.00000          -0.522861          -14.22776
     31       2.00000          -0.512803          -13.95409
     32       2.00000          -0.508433          -13.83517
     33       2.00000          -0.488824          -13.30157
     34       2.00000          -0.479024          -13.03490
     35       2.00000          -0.471921          -12.84162
     36       2.00000          -0.410511          -11.17058
     37       2.00000          -0.396130          -10.77923
     38       2.00000          -0.380974          -10.36683
     39       2.00000          -0.372616          -10.13940
     40       0.00000          -0.163417           -4.44679
     41       0.00000          -0.148443           -4.03933
     42       0.00000          -0.062476           -1.70007
     43       0.00000          -0.043088           -1.17248
     44       0.00000          -0.021076           -0.57352
     45       0.00000          -0.015055           -0.40967
     46       0.00000          -0.013430           -0.36546
     47       0.00000          -0.004961           -0.13499
     48       0.00000           0.002685            0.07305
     49       0.00000           0.009864            0.26840
     50       0.00000           0.014396            0.39174
     51       0.00000           0.021245            0.57811
     52       0.00000           0.032360            0.88056
     53       0.00000           0.035622            0.96934
     54       0.00000           0.039325            1.07010
     55       0.00000           0.047177            1.28376
     56       0.00000           0.062160            1.69147
     57       0.00000           0.084292            2.29371
     58       0.00000           0.089814            2.44396
     59       0.00000           0.108031            2.93968
     60       0.00000           0.131848            3.58777
     61       0.00000           0.166836            4.53985
     62       0.00000           0.185337            5.04328
     63       0.00000           0.192877            5.24845
     64       0.00000           0.202063            5.49841
     65       0.00000           0.217465            5.91752
     66       0.00000           0.226777            6.17091
     67       0.00000           0.234133            6.37108
     68       0.00000           0.250145            6.80680
     69       0.00000           0.257586            7.00927
     70       0.00000           0.267154            7.26962
     71       0.00000           0.273574            7.44434
     72       0.00000           0.284972            7.75448
     73       0.00000           0.289695            7.88301
     74       0.00000           0.320854            8.73089
     75       0.00000           0.350838            9.54679
     76       0.00000           0.355663            9.67807
     77       0.00000           0.390140           10.61626
     78       0.00000           0.407766           11.09589
     79       0.00000           0.421179           11.46086
     80       0.00000           0.433214           11.78835
     81       0.00000           0.460076           12.51929
     82       0.00000           0.466775           12.70161
     83       0.00000           0.475283           12.93312
     84       0.00000           0.502615           13.67685
     85       0.00000           0.523700           14.25060
     86       0.00000           0.542583           14.76443
     87       0.00000           0.560157           15.24264

  Highest occupied state (VBM) at    -10.13940484 eV
  | Occupation number:      2.00000000

  Lowest unoccupied state (CBM) at    -4.44679041 eV
  | Occupation number:      0.00000000

  Overall HOMO-LUMO gap:      5.69261443 eV.
  Calculating total energy contributions from superposition of free atom densities.

  Total energy components:
  | Sum of eigenvalues            :        -291.85230421 Ha       -7941.70526713 eV
  | XC energy correction          :         -66.04799651 Ha       -1797.25742849 eV
  | XC potential correction       :          84.89202280 Ha        2310.02947327 eV
  | Free-atom electrostatic energy:        -222.88714187 Ha       -6065.06771749 eV
  | Hartree energy correction     :           0.00000000 Ha           0.00000000 eV
  | vdW energy correction         :           0.00000000 Ha           0.00000000 eV
  | Entropy correction            :           0.00000000 Ha           0.00000000 eV
  | ---------------------------
  | Total energy                  :        -495.89541980 Ha      -13494.00093984 eV
  | Total energy, T -> 0          :        -495.89541980 Ha      -13494.00093984 eV  <-- do not rely on this value for anything but (periodic) metals
  | Electronic free energy        :        -495.89541980 Ha      -13494.00093984 eV

  Derived energy quantities:
  | Kinetic energy                :         490.32340185 Ha       13342.37861707 eV
  | Electrostatic energy          :        -920.17082513 Ha      -25039.12212842 eV
  | Energy correction for multipole
  | error in Hartree potential    :           0.00000000 Ha           0.00000000 eV
  | Sum of eigenvalues per atom                           :        -360.98660305 eV
  | Total energy (T->0) per atom                          :        -613.36367908 eV  <-- do not rely on this value for anything but (periodic) metals
  | Electronic free energy per atom                       :        -613.36367908 eV
  Initialize hartree_potential_storage
  Max. number of atoms included in rho_multipole:           22

  End scf initialization - timings             :  max(cpu_time)    wall_clock(cpu1)
  | Time for scf. initialization               :        1.420 s           1.422 s
  | Boundary condition initialization          :        0.004 s           0.000 s
  | Integration                                :        0.832 s           0.829 s
  | Solution of K.-S. eqns.                    :        0.044 s           0.044 s
  | Grid partitioning                          :        0.144 s           0.142 s
  | Preloading free-atom quantities on grid    :        0.012 s           0.009 s
  | Free-atom superposition energy             :        0.064 s           0.063 s
  | Total energy evaluation                    :        0.000 s           0.001 s

  Partial memory accounting:
  | Current value for overall tracked memory usage on task 0  :           0.782 MB
  | Peak value for overall tracked memory usage on task 0     :           1.590 MB after allocating wave
  | Largest tracked array allocation on task 0 so far         :           0.320 MB  when allocating ovlp
  Note:  These values currently only include a subset of arrays which are explicitly tracked.
  The "true" memory usage will be greater.
------------------------------------------------------------

------------------------------------------------------------
          Begin self-consistency iteration #    1

  Date     :  20180216, Time     :  134554.329
------------------------------------------------------------
  Evaluating new KS density.
  Integration grid: deviation in total charge (<rho> - N_e) =   1.421085E-14
  Pulay mixing of updated and previous charge densities.

  Evaluating partitioned Hartree potential by multipole expansion.
  | Analytical far-field extrapolation by fixed multipoles:
  | Hartree multipole sum: apparent total charge =  -0.490686E-03
  Summing up the Hartree potential.
  Time summed over all CPUs for potential: real work        4.614 s, elapsed        4.647 s
  | RMS charge density error from multipole expansion :   0.203209E-01

  Integrating Hamiltonian matrix: batch-based integration.
  Time summed over all CPUs for integration: real work        4.651 s, elapsed        4.704 s

  Updating Kohn-Sham eigenvalues, eigenvectors, occupation numbers, and Fermi level.
  Solving generalized eigenproblem
  Updating Kohn-Sham eigenvalues and eigenfunctions.
  Solving real generalised eigenvalue problem by standard LAPACK (fast)

  Obtaining occupation numbers and chemical potential using ELSI.
  | Chemical potential (Fermi level):    -2.76740458eV
  Writing Kohn-Sham eigenvalues.

  State    Occupation    Eigenvalue [Ha]    Eigenvalue [eV]
      1       2.00000         -18.611279         -506.43868
      2       2.00000         -18.603838         -506.23618
      3       2.00000         -13.988362         -380.64269
      4       2.00000         -13.971889         -380.19445
      5       2.00000         -10.057114         -273.66800
      6       2.00000         -10.045473         -273.35122
      7       2.00000          -9.960813         -271.04752
      8       2.00000          -9.875411         -268.72361
      9       2.00000          -9.848977         -268.00430
     10       2.00000          -9.829793         -267.48228
     11       2.00000          -0.958698          -26.08750
     12       2.00000          -0.949026          -25.82431
     13       2.00000          -0.866805          -23.58698
     14       2.00000          -0.848940          -23.10083
     15       2.00000          -0.740289          -20.14429
     16       2.00000          -0.688517          -18.73550
     17       2.00000          -0.662232          -18.02026
     18       2.00000          -0.621368          -16.90827
     19       2.00000          -0.559442          -15.22318
     20       2.00000          -0.541106          -14.72424
     21       2.00000          -0.511040          -13.90610
     22       2.00000          -0.483698          -13.16209
     23       2.00000          -0.443650          -12.07233
     24       2.00000          -0.432103          -11.75813
     25       2.00000          -0.420721          -11.44841
     26       2.00000          -0.417145          -11.35109
     27       2.00000          -0.395891          -10.77274
     28       2.00000          -0.394098          -10.72394
     29       2.00000          -0.383143          -10.42586
     30       2.00000          -0.375500          -10.21788
     31       2.00000          -0.359622           -9.78581
     32       2.00000          -0.354871           -9.65652
     33       2.00000          -0.348910           -9.49433
     34       2.00000          -0.338030           -9.19827
     35       2.00000          -0.334224           -9.09471
     36       2.00000          -0.243128           -6.61584
     37       2.00000          -0.223394           -6.07886
     38       2.00000          -0.207922           -5.65785
     39       2.00000          -0.199925           -5.44024
     40       0.00000          -0.046817           -1.27396
     41       0.00000          -0.033404           -0.90898
     42       0.00000           0.000384            0.01044
     43       0.00000           0.028394            0.77264
     44       0.00000           0.051822            1.41015
     45       0.00000           0.056547            1.53872
     46       0.00000           0.075657            2.05873
     47       0.00000           0.089705            2.44098
     48       0.00000           0.096019            2.61282
     49       0.00000           0.104652            2.84773
     50       0.00000           0.111394            3.03118
     51       0.00000           0.116384            3.16698
     52       0.00000           0.122121            3.32308
     53       0.00000           0.127142            3.45970
     54       0.00000           0.130471            3.55030
     55       0.00000           0.136442            3.71278
     56       0.00000           0.150928            4.10695
     57       0.00000           0.173877            4.73143
     58       0.00000           0.193165            5.25628
     59       0.00000           0.212382            5.77921
     60       0.00000           0.215496            5.86396
     61       0.00000           0.258920            7.04556
     62       0.00000           0.263405            7.16761
     63       0.00000           0.276570            7.52586
     64       0.00000           0.291867            7.94209
     65       0.00000           0.316504            8.61250
     66       0.00000           0.322961            8.78821
     67       0.00000           0.336526            9.15733
     68       0.00000           0.344644            9.37824
     69       0.00000           0.353652            9.62337
     70       0.00000           0.362391            9.86117
     71       0.00000           0.371425           10.10698
     72       0.00000           0.382848           10.41783
     73       0.00000           0.398923           10.85524
     74       0.00000           0.433867           11.80611
     75       0.00000           0.450993           12.27214
     76       0.00000           0.464291           12.63401
     77       0.00000           0.504046           13.71580
     78       0.00000           0.509443           13.86265
     79       0.00000           0.516432           14.05282
     80       0.00000           0.525008           14.28619
     81       0.00000           0.554243           15.08171
     82       0.00000           0.566472           15.41448
     83       0.00000           0.577001           15.70101
     84       0.00000           0.605006           16.46306
     85       0.00000           0.618612           16.83329
     86       0.00000           0.646538           17.59318
     87       0.00000           0.650722           17.70704

  Highest occupied state (VBM) at     -5.44023640 eV
  | Occupation number:      2.00000000

  Lowest unoccupied state (CBM) at    -1.27396174 eV
  | Occupation number:      0.00000000

  Overall HOMO-LUMO gap:      4.16627466 eV.

  Total energy components:
  | Sum of eigenvalues            :        -278.19277602 Ha       -7570.01059347 eV
  | XC energy correction          :         -67.36153729 Ha       -1833.00069162 eV
  | XC potential correction       :          86.59695316 Ha        2356.42298896 eV
  | Free-atom electrostatic energy:        -222.88714187 Ha       -6065.06771749 eV
  | Hartree energy correction     :         -13.67176872 Ha        -372.02775538 eV
  | vdW energy correction         :           0.00000000 Ha           0.00000000 eV
  | Entropy correction            :           0.00000000 Ha           0.00000000 eV
  | ---------------------------
  | Total energy                  :        -495.51627074 Ha      -13483.68376900 eV
  | Total energy, T -> 0          :        -495.51627074 Ha      -13483.68376900 eV  <-- do not rely on this value for anything but (periodic) metals
  | Electronic free energy        :        -495.51627074 Ha      -13483.68376900 eV

  Derived energy quantities:
  | Kinetic energy                :         496.47326628 Ha       13509.72494259 eV
  | Electrostatic energy          :        -924.62799972 Ha      -25160.40801997 eV
  | Energy correction for multipole
  | error in Hartree potential    :           0.06042329 Ha           1.64420141 eV
  | Sum of eigenvalues per atom                           :        -344.09139061 eV
  | Total energy (T->0) per atom                          :        -612.89471677 eV  <-- do not rely on this value for anything but (periodic) metals
  | Electronic free energy per atom                       :        -612.89471677 eV

  Self-consistency convergence accuracy:
  | Change of charge density      :  0.7271E+00
  | Change of sum of eigenvalues  :  0.3717E+03 eV
  | Change of total energy        :  0.1032E+02 eV

  End self-consistency iteration #     1       :  max(cpu_time)    wall_clock(cpu1)
  | Time for this iteration                    :        1.772 s           1.769 s
  | Charge density update                      :        0.580 s           0.577 s
  | Density mixing                             :        0.004 s           0.003 s
  | Hartree multipole update                   :        0.020 s           0.019 s
  | Hartree multipole summation                :        0.576 s           0.575 s
  | Integration                                :        0.584 s           0.582 s
  | Solution of K.-S. eqns.                    :        0.012 s           0.008 s
  | Total energy evaluation                    :        0.004 s           0.000 s

  Partial memory accounting:
  | Current value for overall tracked memory usage on task 0  :           0.782 MB
  | Peak value for overall tracked memory usage on task 0     :           1.910 MB after allocating wave
  | Largest tracked array allocation on task 0 so far         :           0.813 MB  when allocating gradient_basis_wave
  Note:  These values currently only include a subset of arrays which are explicitly tracked.
  The "true" memory usage will be greater.
------------------------------------------------------------

------------------------------------------------------------
          Begin self-consistency iteration #    2

  Date     :  20180216, Time     :  134556.098
------------------------------------------------------------
  Evaluating new KS density.
  Integration grid: deviation in total charge (<rho> - N_e) =   4.263256E-14
  Pulay mixing of updated and previous charge densities.

  Evaluating partitioned Hartree potential by multipole expansion.
  | Analytical far-field extrapolation by fixed multipoles:
  | Hartree multipole sum: apparent total charge =  -0.547789E-03
  Summing up the Hartree potential.
  Time summed over all CPUs for potential: real work        4.732 s, elapsed        5.257 s
  | RMS charge density error from multipole expansion :   0.259836E-01

  Integrating Hamiltonian matrix: batch-based integration.
  Time summed over all CPUs for integration: real work        4.627 s, elapsed        4.683 s

  Updating Kohn-Sham eigenvalues, eigenvectors, occupation numbers, and Fermi level.
  Solving generalized eigenproblem
  Updating Kohn-Sham eigenvalues and eigenfunctions.
  Solving real generalised eigenvalue problem by standard LAPACK (fast)

  Obtaining occupation numbers and chemical potential using ELSI.
  | Chemical potential (Fermi level):    -2.55546882eV
  Highest occupied state (VBM) at     -6.16714053 eV
  | Occupation number:      2.00000000

  Lowest unoccupied state (CBM) at    -1.22311297 eV
  | Occupation number:      0.00000000

  Overall HOMO-LUMO gap:      4.94402755 eV.

  Checking to see if s.c.f. parameters should be adjusted.

  Total energy components:
  | Sum of eigenvalues            :        -278.83019418 Ha       -7587.35562411 eV
  | XC energy correction          :         -67.28166589 Ha       -1830.82728042 eV
  | XC potential correction       :          86.48642363 Ha        2353.41532734 eV
  | Free-atom electrostatic energy:        -222.88714187 Ha       -6065.06771749 eV
  | Hartree energy correction     :         -12.96177794 Ha        -352.70792330 eV
  | vdW energy correction         :           0.00000000 Ha           0.00000000 eV
  | Entropy correction            :           0.00000000 Ha           0.00000000 eV
  | ---------------------------
  | Total energy                  :        -495.47435626 Ha      -13482.54321798 eV
  | Total energy, T -> 0          :        -495.47435626 Ha      -13482.54321798 eV  <-- do not rely on this value for anything but (periodic) metals
  | Electronic free energy        :        -495.47435626 Ha      -13482.54321798 eV

  Derived energy quantities:
  | Kinetic energy                :         494.65824920 Ha       13460.33581495 eV
  | Electrostatic energy          :        -922.85093956 Ha      -25112.05175251 eV
  | Energy correction for multipole
  | error in Hartree potential    :           0.07153037 Ha           1.94644047 eV
  | Sum of eigenvalues per atom                           :        -344.87980110 eV
  | Total energy (T->0) per atom                          :        -612.84287354 eV  <-- do not rely on this value for anything but (periodic) metals
  | Electronic free energy per atom                       :        -612.84287354 eV

  Self-consistency convergence accuracy:
  | Change of charge density      :  0.3979E+00
  | Change of sum of eigenvalues  : -0.1735E+02 eV
  | Change of total energy        :  0.1141E+01 eV

  End self-consistency iteration #     2       :  max(cpu_time)    wall_clock(cpu1)
  | Time for this iteration                    :        1.840 s           1.838 s
  | Charge density update                      :        0.576 s           0.574 s
  | Density mixing                             :        0.008 s           0.006 s
  | Hartree multipole update                   :        0.020 s           0.019 s
  | Hartree multipole summation                :        0.652 s           0.650 s
  | Integration                                :        0.580 s           0.579 s
  | Solution of K.-S. eqns.                    :        0.008 s           0.009 s
  | Total energy evaluation                    :        0.000 s           0.001 s

  Partial memory accounting:
  | Current value for overall tracked memory usage on task 0  :           0.783 MB
  | Peak value for overall tracked memory usage on task 0     :           1.911 MB after allocating wave
  | Largest tracked array allocation on task 0 so far         :           0.813 MB  when allocating gradient_basis_wave
  Note:  These values currently only include a subset of arrays which are explicitly tracked.
  The "true" memory usage will be greater.
------------------------------------------------------------

------------------------------------------------------------
          Begin self-consistency iteration #    3

  Date     :  20180216, Time     :  134557.938
------------------------------------------------------------
  Evaluating new KS density.
  Integration grid: deviation in total charge (<rho> - N_e) =   2.842171E-14
  Pulay mixing of updated and previous charge densities.

  Evaluating partitioned Hartree potential by multipole expansion.
  | Analytical far-field extrapolation by fixed multipoles:
  | Hartree multipole sum: apparent total charge =  -0.637558E-03
  Summing up the Hartree potential.
  Time summed over all CPUs for potential: real work        4.589 s, elapsed        4.617 s
  | RMS charge density error from multipole expansion :   0.324795E-01

  Integrating Hamiltonian matrix: batch-based integration.
  Time summed over all CPUs for integration: real work        4.628 s, elapsed        4.685 s

  Updating Kohn-Sham eigenvalues, eigenvectors, occupation numbers, and Fermi level.
  Solving generalized eigenproblem
  Updating Kohn-Sham eigenvalues and eigenfunctions.
  Solving real generalised eigenvalue problem by standard LAPACK (fast)

  Obtaining occupation numbers and chemical potential using ELSI.
  | Chemical potential (Fermi level):    -2.37885601eV
  Highest occupied state (VBM) at     -5.45083699 eV
  | Occupation number:      2.00000000

  Lowest unoccupied state (CBM) at    -1.00124598 eV
  | Occupation number:      0.00000000

  Overall HOMO-LUMO gap:      4.44959101 eV.

  Total energy components:
  | Sum of eigenvalues            :        -278.32279343 Ha       -7573.54854719 eV
  | XC energy correction          :         -67.41905779 Ha       -1834.56590421 eV
  | XC potential correction       :          86.66084617 Ha        2358.16160611 eV
  | Free-atom electrostatic energy:        -222.88714187 Ha       -6065.06771749 eV
  | Hartree energy correction     :         -13.49975771 Ha        -367.34709769 eV
  | vdW energy correction         :           0.00000000 Ha           0.00000000 eV
  | Entropy correction            :           0.00000000 Ha           0.00000000 eV
  | ---------------------------
  | Total energy                  :        -495.46790464 Ha      -13482.36766047 eV
  | Total energy, T -> 0          :        -495.46790464 Ha      -13482.36766047 eV  <-- do not rely on this value for anything but (periodic) metals
  | Electronic free energy        :        -495.46790464 Ha      -13482.36766047 eV

  Derived energy quantities:
  | Kinetic energy                :         494.14048764 Ha       13446.24680632 eV
  | Electrostatic energy          :        -922.18933449 Ha      -25094.04856258 eV
  | Energy correction for multipole
  | error in Hartree potential    :           0.08611090 Ha           2.34319684 eV
  | Sum of eigenvalues per atom                           :        -344.25220669 eV
  | Total energy (T->0) per atom                          :        -612.83489366 eV  <-- do not rely on this value for anything but (periodic) metals
  | Electronic free energy per atom                       :        -612.83489366 eV

  Self-consistency convergence accuracy:
  | Change of charge density      :  0.1747E+00
  | Change of sum of eigenvalues  :  0.1381E+02 eV
  | Change of total energy        :  0.1756E+00 eV

  End self-consistency iteration #     3       :  max(cpu_time)    wall_clock(cpu1)
  | Time for this iteration                    :        1.760 s           1.760 s
  | Charge density update                      :        0.576 s           0.572 s
  | Density mixing                             :        0.012 s           0.009 s
  | Hartree multipole update                   :        0.020 s           0.019 s
  | Hartree multipole summation                :        0.572 s           0.571 s
  | Integration                                :        0.580 s           0.579 s
  | Solution of K.-S. eqns.                    :        0.012 s           0.009 s
  | Total energy evaluation                    :        0.000 s           0.001 s

  Partial memory accounting:
  | Current value for overall tracked memory usage on task 0  :           0.783 MB
  | Peak value for overall tracked memory usage on task 0     :           1.911 MB after allocating wave
  | Largest tracked array allocation on task 0 so far         :           0.813 MB  when allocating gradient_basis_wave
  Note:  These values currently only include a subset of arrays which are explicitly tracked.
  The "true" memory usage will be greater.
------------------------------------------------------------

------------------------------------------------------------
          Begin self-consistency iteration #    4

  Date     :  20180216, Time     :  134559.699
------------------------------------------------------------
  Evaluating new KS density.
  Integration grid: deviation in total charge (<rho> - N_e) =   1.421085E-14
  Pulay mixing of updated and previous charge densities.

  Evaluating partitioned Hartree potential by multipole expansion.
  | Analytical far-field extrapolation by fixed multipoles:
  | Hartree multipole sum: apparent total charge =  -0.676039E-03
  Summing up the Hartree potential.
  Time summed over all CPUs for potential: real work        4.592 s, elapsed        4.622 s
  | RMS charge density error from multipole expansion :   0.351053E-01

  Integrating Hamiltonian matrix: batch-based integration.
  Time summed over all CPUs for integration: real work        4.632 s, elapsed        4.684 s

  Updating Kohn-Sham eigenvalues, eigenvectors, occupation numbers, and Fermi level.
  Solving generalized eigenproblem
  Updating Kohn-Sham eigenvalues and eigenfunctions.
  Solving real generalised eigenvalue problem by standard LAPACK (fast)

  Obtaining occupation numbers and chemical potential using ELSI.
  | Chemical potential (Fermi level):    -2.20373750eV
  Highest occupied state (VBM) at     -5.56910933 eV
  | Occupation number:      2.00000000

  Lowest unoccupied state (CBM) at    -0.92675019 eV
  | Occupation number:      0.00000000

  Overall HOMO-LUMO gap:      4.64235914 eV.

  Total energy components:
  | Sum of eigenvalues            :        -277.86288525 Ha       -7561.03380879 eV
[...]
   Van der Waals                 :  0.513820E-03 -0.609104E-02 -0.395605E-02
   ----------------------------------------------------------------
   Total forces(   3)            :  0.872648E-01 -0.270500E-01 -0.391977E-02
  atom #    4
   Hellmann-Feynman              :  0.390937E-01  0.148037E-01  0.280627E-01
   Ionic forces                  :  0.000000E+00  0.000000E+00  0.000000E+00
   Multipole                     : -0.903785E-01 -0.130532E+00  0.416335E-01
   Pulay + GGA                   :  0.735285E-01  0.108914E+00 -0.612528E-01
   Van der Waals                 :  0.435227E-03  0.224121E-02 -0.320843E-02
   ----------------------------------------------------------------
   Total forces(   4)            :  0.226789E-01 -0.457301E-02  0.523489E-02
  atom #    5
   Hellmann-Feynman              :  0.927201E-01  0.857427E-01  0.970854E-02
   Ionic forces                  :  0.000000E+00  0.000000E+00  0.000000E+00
   Multipole                     : -0.119643E+00 -0.298200E-01 -0.574631E-01
   Pulay + GGA                   :  0.660016E-01 -0.482448E-01  0.568947E-01
   Van der Waals                 : -0.566550E-02 -0.367085E-02  0.358375E-02
   ----------------------------------------------------------------
   Total forces(   5)            :  0.334127E-01  0.400709E-02  0.127238E-01
  atom #    6
   Hellmann-Feynman              :  0.687957E-01  0.642909E-01 -0.644951E-02
   Ionic forces                  :  0.000000E+00  0.000000E+00  0.000000E+00
   Multipole                     : -0.625977E-02 -0.102526E+00 -0.737872E-01
   Pulay + GGA                   : -0.517336E-01  0.396047E-01  0.816220E-01
   Van der Waals                 : -0.296830E-03 -0.720385E-02  0.156972E-02
   ----------------------------------------------------------------
   Total forces(   6)            :  0.105055E-01 -0.583449E-02  0.295502E-02
  atom #    7
   Hellmann-Feynman              : -0.999881E+00 -0.632050E+00  0.162870E+01
   Ionic forces                  :  0.000000E+00  0.000000E+00  0.000000E+00
   Multipole                     : -0.643830E-01  0.370816E+00 -0.442054E+00
   Pulay + GGA                   :  0.102193E+01  0.282812E+00 -0.120281E+01
   Van der Waals                 :  0.519526E-02  0.860849E-03 -0.861792E-02
   ----------------------------------------------------------------
   Total forces(   7)            : -0.371389E-01  0.224393E-01 -0.247864E-01
  atom #    8
   Hellmann-Feynman              :  0.162049E+01  0.249791E+01 -0.221974E+00
   Ionic forces                  :  0.000000E+00  0.000000E+00  0.000000E+00
   Multipole                     : -0.302261E+00  0.229462E+00  0.810462E-01
   Pulay + GGA                   : -0.133687E+01 -0.271221E+01  0.147066E+00
   Van der Waals                 :  0.274004E-02 -0.101450E-02 -0.824024E-02
   ----------------------------------------------------------------
   Total forces(   8)            : -0.159063E-01  0.141516E-01 -0.210146E-02
  atom #    9
   Hellmann-Feynman              :  0.163529E+00 -0.298195E+00  0.300656E+00
   Ionic forces                  :  0.000000E+00  0.000000E+00  0.000000E+00
   Multipole                     : -0.191719E+00  0.455484E+00  0.681965E+00
   Pulay + GGA                   :  0.194688E-01 -0.149817E+00 -0.967317E+00
   Van der Waals                 : -0.683126E-02  0.234704E-01 -0.261489E-02
   ----------------------------------------------------------------
   Total forces(   9)            : -0.155529E-01  0.309412E-01  0.126889E-01
  atom #   10
   Hellmann-Feynman              : -0.176012E+01  0.412967E-01  0.670852E+00
   Ionic forces                  :  0.000000E+00  0.000000E+00  0.000000E+00
   Multipole                     : -0.278147E-01  0.162137E+00 -0.167794E+00
   Pulay + GGA                   :  0.178357E+01 -0.187377E+00 -0.491814E+00
   Van der Waals                 :  0.164307E-02 -0.761739E-03 -0.519543E-02
   ----------------------------------------------------------------
   Total forces(  10)            : -0.272144E-02  0.152952E-01  0.604829E-02
  atom #   11
   Hellmann-Feynman              :  0.525628E+01  0.500035E+01 -0.119500E+02
   Ionic forces                  :  0.000000E+00  0.000000E+00  0.000000E+00
   Multipole                     :  0.368048E+00  0.364600E+00 -0.808221E+00
   Pulay + GGA                   : -0.559480E+01 -0.535949E+01  0.127626E+02
   Van der Waals                 : -0.170801E-01 -0.364791E-03  0.353366E-02
   ----------------------------------------------------------------
   Total forces(  11)            :  0.124470E-01  0.509334E-02  0.796007E-02
  atom #   12
   Hellmann-Feynman              : -0.106128E+00  0.861427E-02 -0.109451E+00
   Ionic forces                  :  0.000000E+00  0.000000E+00  0.000000E+00
   Multipole                     : -0.433025E-01 -0.401828E-01 -0.134643E+00
   Pulay + GGA                   :  0.724850E-01  0.525315E-01  0.202994E+00
   Van der Waals                 :  0.613997E-02  0.911470E-02  0.324633E-02
   ----------------------------------------------------------------
   Total forces(  12)            : -0.708052E-01  0.300776E-01 -0.378536E-01
  atom #   13
   Hellmann-Feynman              : -0.387750E-01 -0.117891E+00  0.241349E-01
   Ionic forces                  :  0.000000E+00  0.000000E+00  0.000000E+00
   Multipole                     : -0.741634E-01  0.163629E+00 -0.119627E+00
   Pulay + GGA                   :  0.997860E-01 -0.360320E-01  0.841048E-01
   Van der Waals                 :  0.299460E-02 -0.808220E-02  0.283109E-03
   ----------------------------------------------------------------
   Total forces(  13)            : -0.101578E-01  0.162414E-02 -0.111038E-01
  atom #   14
   Hellmann-Feynman              : -0.234614E-01 -0.213875E-01 -0.740375E-01
   Ionic forces                  :  0.000000E+00  0.000000E+00  0.000000E+00
   Multipole                     : -0.110378E+00  0.673976E-01  0.560050E-01
   Pulay + GGA                   :  0.110528E+00 -0.399872E-01  0.786479E-02
   Van der Waals                 :  0.212349E-02 -0.313902E-02  0.482898E-02
   ----------------------------------------------------------------
   Total forces(  14)            : -0.211875E-01  0.288392E-02 -0.533874E-02
  atom #   15
   Hellmann-Feynman              :  0.103319E+00  0.241081E-01 -0.668152E-01
   Ionic forces                  :  0.000000E+00  0.000000E+00  0.000000E+00
   Multipole                     :  0.112748E-01 -0.292702E-01  0.124625E+00
   Pulay + GGA                   : -0.102371E+00 -0.157486E-02 -0.872744E-01
   Van der Waals                 : -0.469694E-02  0.127349E-01  0.148074E-01
   ----------------------------------------------------------------
   Total forces(  15)            :  0.752581E-02  0.599800E-02 -0.146569E-01
  atom #   16
   Hellmann-Feynman              :  0.391614E-01  0.575852E-03 -0.846382E-01
   Ionic forces                  :  0.000000E+00  0.000000E+00  0.000000E+00
   Multipole                     :  0.238072E-01  0.124206E+00  0.645481E-01
   Pulay + GGA                   : -0.522151E-01 -0.921272E-01  0.587584E-02
   Van der Waals                 :  0.239071E-02 -0.637464E-02  0.302439E-02
   ----------------------------------------------------------------
   Total forces(  16)            :  0.131442E-01  0.262796E-01 -0.111898E-01
  atom #   17
   Hellmann-Feynman              : -0.147667E+01  0.168571E+01 -0.729478E+00
   Ionic forces                  :  0.000000E+00  0.000000E+00  0.000000E+00
   Multipole                     :  0.532101E+00 -0.383135E+00  0.459461E+00
   Pulay + GGA                   :  0.936815E+00 -0.130852E+01  0.280881E+00
   Van der Waals                 : -0.171353E-02 -0.757622E-02 -0.277844E-02
   ----------------------------------------------------------------
   Total forces(  17)            : -0.946744E-02 -0.135200E-01  0.808644E-02
  atom #   18
   Hellmann-Feynman              :  0.273742E+01  0.157049E-01 -0.384346E+00
   Ionic forces                  :  0.000000E+00  0.000000E+00  0.000000E+00
   Multipole                     :  0.514234E+00 -0.124502E+00  0.917132E-01
   Pulay + GGA                   : -0.326291E+01  0.936832E-01  0.303740E+00
   Van der Waals                 : -0.123649E-01  0.236637E-03  0.382827E-02
   ----------------------------------------------------------------
   Total forces(  18)            : -0.236161E-01 -0.148772E-01  0.149357E-01
  atom #   19
   Hellmann-Feynman              : -0.305067E-01 -0.373573E-01  0.741798E-01
   Ionic forces                  :  0.000000E+00  0.000000E+00  0.000000E+00
   Multipole                     : -0.769961E-01 -0.442271E-01  0.974700E-01
   Pulay + GGA                   :  0.792636E-01  0.646618E-01 -0.180066E+00
   Van der Waals                 :  0.938390E-02 -0.133726E-02 -0.373009E-02
   ----------------------------------------------------------------
   Total forces(  19)            : -0.188554E-01 -0.182598E-01 -0.121463E-01
  atom #   20
   Hellmann-Feynman              : -0.153289E+00 -0.291542E-01  0.213927E-01
   Ionic forces                  :  0.000000E+00  0.000000E+00  0.000000E+00
   Multipole                     :  0.139391E+00 -0.209962E-01  0.916820E-01
   Pulay + GGA                   : -0.556488E-02  0.303941E-01 -0.950550E-01
   Van der Waals                 : -0.184173E-02  0.207652E-02 -0.289898E-02
   ----------------------------------------------------------------
   Total forces(  20)            : -0.213056E-01 -0.176797E-01  0.151207E-01
  atom #   21
   Hellmann-Feynman              : -0.492412E-01 -0.251950E-01  0.426059E-01
   Ionic forces                  :  0.000000E+00  0.000000E+00  0.000000E+00
   Multipole                     :  0.732090E-01 -0.847663E-01 -0.704906E-01
   Pulay + GGA                   : -0.556994E-01  0.934510E-01  0.408906E-01
   Van der Waals                 :  0.474632E-02 -0.470079E-02  0.514424E-03
   ----------------------------------------------------------------
   Total forces(  21)            : -0.269854E-01 -0.212111E-01  0.135203E-01
  atom #   22
   Hellmann-Feynman              : -0.409103E-01 -0.442315E-01  0.454221E-01
   Ionic forces                  :  0.000000E+00  0.000000E+00  0.000000E+00
   Multipole                     :  0.113735E+00  0.103742E+00 -0.217717E-01
   Pulay + GGA                   : -0.808892E-01 -0.867850E-01 -0.213934E-01
   Van der Waals                 :  0.369647E-02 -0.282009E-03  0.479880E-02
   ----------------------------------------------------------------
   Total forces(  22)            : -0.436776E-02 -0.275567E-01  0.705581E-02

  Timings for VdW correction (Tkatchenko-Scheffler 2009 or later):
  | CPU time:        0.144 s, Wall clock time:        0.148 s.
  Removing unitary transformations (pure translations, rotations) from forces on atoms.
  Atomic forces before filtering:
  | Net force on center of mass :  -0.580631E-02 -0.322274E-02  0.845153E-03 eV/A
  | Net torque on center of mass:  -0.141790E-02 -0.710005E-02  0.693299E-02 eV
  Atomic forces after filtering:
  | Net force on center of mass :   0.432077E-16 -0.223008E-16  0.000000E+00 eV/A
  | Net torque on center of mass:  -0.302402E-16  0.885079E-17 -0.191767E-15 eV

  Energy and forces in a compact form:
  | Total energy uncorrected      :         -0.134824174631665E+05 eV
  | Total energy corrected        :         -0.134824174631665E+05 eV  <-- do not rely on this value for anything but (periodic) metals
  | Electronic free energy        :         -0.134824174631665E+05 eV
  Total atomic forces (unitary forces cleaned) [eV/Ang]:
  |   1          0.227440591391025E-01          0.651782156239013E-02          0.162643502253859E-01
  |   2          0.629105454075386E-01         -0.175007429070569E-01          0.139077579003311E-02
  |   3          0.875680625929944E-01         -0.269106176437578E-01         -0.393104964194401E-02
  |   4          0.228480700216011E-01         -0.432596023380296E-02          0.525943437045691E-02
  |   5          0.335446383718543E-01          0.432994765845325E-02          0.128288891603118E-01
  |   6          0.105759386547782E-01         -0.556040538353857E-02          0.292561239987397E-02
  |   7         -0.369276066569694E-01          0.226629646968433E-01         -0.247571128375268E-01
  |   8         -0.156256328613242E-01          0.143321118366226E-01         -0.207137774438606E-02
  |   9         -0.151575043014916E-01          0.310815657787261E-01          0.127681364613322E-01
  |  10         -0.246472280913300E-02          0.154221618453317E-01          0.597284715452395E-02
  |  11          0.126550271120887E-01          0.524113516158725E-02          0.786959435665996E-02
  |  12         -0.706637601802394E-01          0.303510126990135E-01         -0.378153678690310E-01
  |  13         -0.989991183770024E-02          0.184961821252879E-02         -0.110265853201644E-01
  |  14         -0.207800285781344E-01          0.306775826836322E-02         -0.518096813459095E-02
  |  15          0.795099146342915E-02          0.609254366828351E-02         -0.146192516817400E-01
  |  16          0.135844926874467E-01          0.263940521548736E-01         -0.111069658271958E-01
  |  17         -0.917317877362895E-02         -0.134635578933844E-01          0.793900059283551E-02
  |  18         -0.233355888267393E-01         -0.148766017445937E-01          0.146890207155143E-01
  |  19         -0.185275216793017E-01         -0.182150466932720E-01         -0.122793006608750E-01
  |  20         -0.209728651998774E-01         -0.177368675621024E-01          0.148357916611569E-01
  |  21         -0.267850127393795E-01         -0.211924134267176E-01          0.132239129584897E-01
  |  22         -0.406849100691467E-02         -0.275604800547905E-01          0.682061387087979E-02

  ------------------------------------ 
  Start decomposition of the XC Energy 
  ------------------------------------ 
  X and C from original XC functional choice 
  Hartree-Fock Energy :          0.000000000 Ha              0.000000000 eV
  X Energy            :        -64.844763677 Ha          -1764.515797237 eV
  C Energy            :         -2.587576695 Ha            -70.411544377 eV
  Total XC Energy     :        -67.432340373 Ha          -1834.927341613 eV
  ------------------------------------ 
  LDA X and C from self-consistent density 
  X Energy LDA        :        -58.823890240 Ha          -1600.679495102 eV
  C Energy LDA        :         -5.050154507 Ha           -137.421696061 eV
  ------------------------------------ 
  End decomposition of the XC Energy 
  ------------------------------------ 

------------------------------------------------------------

------------------------------------------------------------------------------
  Final output of selected total energy values:

  The following output summarizes some interesting total energy values
  at the end of a run (AFTER all relaxation, molecular dynamics, etc.).

  | Total energy of the DFT / Hartree-Fock s.c.f. calculation      :         -13482.417463166 eV
  | Final zero-broadening corrected energy (caution - metals only) :         -13482.417463166 eV
  | For reference only, the value of 1 Hartree used in FHI-aims is :             27.211384500 eV

  Before relying on these values, please be sure to understand exactly which
  total energy value is referred to by a given number. Different objects may
  all carry the same name 'total energy'. Definitions:

  Total energy of the DFT / Hartree-Fock s.c.f. calculation:
  | Note that this energy does not include ANY quantities calculated after the
  | s.c.f. cycle, in particular not ANY RPA, MP2, etc. many-body perturbation terms.

  Final zero-broadening corrected energy:
  | For metallic systems only, a broadening of the occupation numbers at the Fermi
  | level can be extrapolated back to zero broadening by an electron-gas inspired
  | formula. For all systems that are not real metals, this value can be
  | meaningless and should be avoided.

------------------------------------------------------------------------------
  Methods described in the following list of references were used in this FHI-aims run.
  If you publish the results, please make sure to cite these reference if they apply.
  FHI-aims is an academic code, and for our developers (often, Ph.D. students
  and postdocs), scientific credit in the community is essential.
  Thank you for helping us!

  For any use of FHI-aims, please cite:

    Volker Blum, Ralf Gehrke, Felix Hanke, Paula Havu, Ville Havu,
    Xinguo Ren, Karsten Reuter, and Matthias Scheffler
    'Ab initio molecular simulations with numeric atom-centered orbitals'
    Computer Physics Communications 180, 2175-2196 (2009)
    http://dx.doi.org/10.1016/j.cpc.2009.06.022


  For the real-space grid partitioning and parallelization used in this calculation, please cite:

    Ville Havu, Volker Blum, Paula Havu, and Matthias Scheffler,
    'Efficient O(N) integration for all-electron electronic structure calculation'
    'using numerically tabulated basis functions'
    Journal of Computational Physics 228, 8367-8379 (2009).
    http://dx.doi.org/10.1016/j.jcp.2009.08.008

  Of course, there are many other important community references, e.g., those cited in the
  above references. Our list is limited to references that describe implementations in the
  FHI-aims code. The reason is purely practical (length of this list) - please credit others as well.

------------------------------------------------------------
          Leaving FHI-aims.
          Date     :  20180216, Time     :  134622.535

          Computational steps:
          | Number of self-consistency cycles          :           14
          | Number of SCF (re)initializations          :            1

          Detailed time accounting                     :  max(cpu_time)    wall_clock(cpu1)
          | Total time                                 :       29.956 s          29.971 s
          | Preparation time                           :        0.304 s           0.311 s
          | Boundary condition initalization           :        0.004 s           0.000 s
          | Grid partitioning                          :        0.144 s           0.142 s
          | Preloading free-atom quantities on grid    :        0.012 s           0.009 s
          | Free-atom superposition energy             :        0.064 s           0.063 s
          | Total time for integrations                :        8.968 s           8.956 s
          | Total time for solution of K.-S. equations :        0.196 s           0.166 s
          | Total time for density & force components  :        9.392 s           9.374 s
          | Total time for mixing                      :        0.324 s           0.303 s
          | Total time for Hartree multipole update    :        0.284 s           0.268 s
          | Total time for Hartree multipole sum       :        9.812 s           9.795 s
          | Total time for total energy evaluation     :        0.012 s           0.017 s
          | Total time for vdW correction              :        0.144 s           0.148 s

          Partial memory accounting:
          | Residual value for overall tracked memory usage across tasks :           0.000 MB (should be 0.000 MB)
          | Peak values for overall tracked memory usage (after allocating hessian_basis_wave):
          |   Minimum:        3.728 MB (on task 7)
          |   Maximum:        3.769 MB (on task 1)
          |   Average:        3.752 MB
          | Largest tracked array allocation (hessian_basis_wave):
          |   Minimum:        1.602 MB (on task 7)
          |   Maximum:        1.626 MB (on task 1)
          |   Average:        1.616 MB
          Note:  These values currently only include a subset of arrays which are explicitly tracked.
          The "true" memory usage will be greater.

          Have a nice day.
------------------------------------------------------------
