  MPI-parallelism will be employed.
------------------------------------------------------------
          Invoking FHI-aims ...
          Version 180101-
          Git rev. (modified): fa29f3a Merge branch master of fhiaims.rzberlin.mp[...]
          Compiled on 2018/01/19 at 14:47:46 on host theobook132.

          When using FHI-aims, please cite the following reference:

          Volker Blum, Ralf Gehrke, Felix Hanke, Paula Havu,
          Ville Havu, Xinguo Ren, Karsten Reuter, and Matthias Scheffler,
          'Ab Initio Molecular Simulations with Numeric Atom-Centered Orbitals',
          Computer Physics Communications 180, 2175-2196 (2009)

          For any questions about FHI-aims, please visit the aimsclub website
          with its forums and wiki. Contributions to both the forums and the
          wiki are warmly encouraged - they are for you, and everyone is welcome there.

------------------------------------------------------------



  Date     :  20180215, Time     :  214239.464
  Time zero on CPU 1             :   0.440000000000000E-01  s.
  Internal wall clock time zero  :           287962959.464  s.

  FHI-aims created a unique identifier for this run for later identification
  aims_uuid : 3E5E8EC2-4A1A-4CCA-AB79-17875904C0D0

  Using        8 parallel tasks.
  Task        0 on host theobook132 reporting.
  Task        1 on host theobook132 reporting.
  Task        2 on host theobook132 reporting.
  Task        3 on host theobook132 reporting.
  Task        4 on host theobook132 reporting.
  Task        5 on host theobook132 reporting.
  Task        6 on host theobook132 reporting.
  Task        7 on host theobook132 reporting.

  Performing system and environment tests:
  *** Environment variable OMP_NUM_THREADS is not set
  *** For performance reasons you might want to set it to 1
  | Stacksize not measured: no C compiler
  | Checking for scalapack...
  | No scalapack compiled in.

  Obtaining array dimensions for all initial allocations:
  
  -----------------------------------------------------------------------
  Parsing control.in (first pass over file, find array dimensions only).
  The contents of control.in will be repeated verbatim below
  unless switched off by setting 'verbatim_writeout .false.' .
  in the first line of control.in .
  -----------------------------------------------------------------------
  
  ################################################################################
  #
  #		Control.in generated by mkcontrol
  #
  ################################################################################
  xc			pbe
  vdw_correction_hirshfeld
  relativistic		none
  sc_accuracy_rho		1E-5
  sc_accuracy_eev		1E-3
  sc_accuracy_etot	1E-6
  sc_iter_limit		1000	
  
  compute_forces .true.
  final_forces_cleaned .true.
  
  ################################################################################
  #
  #  FHI-aims code project
  #  VB, Fritz-Haber Institut, 2009
  #
  #  Suggested "light" defaults for H atom (to be pasted into control.in file)
  #  Be sure to double-check any results obtained with these settings for post-processing,
  #  e.g., with the "tight" defaults and larger basis sets.
  #
  ################################################################################
    species        H
  #     global species definitions
      nucleus             1
      mass                1.00794
  #
      l_hartree           4
  #
      cut_pot             3.5  1.5  1.0
      basis_dep_cutoff    1e-4
  #
      radial_base         24 5.0
      radial_multiplier   1
      angular_grids       specified
        division   0.2421   50
        division   0.3822  110
        division   0.4799  194
        division   0.5341  302
  #      division   0.5626  434
  #      division   0.5922  590
  #      division   0.6542  770
  #      division   0.6868 1202
  #      outer_grid  770
        outer_grid  302
  ################################################################################
  #
  #  Definition of "minimal" basis
  #
  ################################################################################
  #     valence basis states
      valence      1  s   1.
  #     ion occupancy
      ion_occ      1  s   0.5
  ################################################################################
  #
  #  Suggested additional basis functions. For production calculations,
  #  uncomment them one after another (the most important basis functions are
  #  listed first).
  #
  #  Basis constructed for dimers: 0.5 A, 0.7 A, 1.0 A, 1.5 A, 2.5 A
  #
  ################################################################################
  #  "First tier" - improvements: -1014.90 meV to -62.69 meV
       hydro 2 s 2.1
       hydro 2 p 3.5
  #  "Second tier" - improvements: -12.89 meV to -1.83 meV
  #     hydro 1 s 0.85
  #     hydro 2 p 3.7
  #     hydro 2 s 1.2
  #     hydro 3 d 7
  #  "Third tier" - improvements: -0.25 meV to -0.12 meV
  #     hydro 4 f 11.2
  #     hydro 3 p 4.8
  #     hydro 4 d 9
  #     hydro 3 s 3.2
  
  ################################################################################
  #
  #  FHI-aims code project
  #  VB, Fritz-Haber Institut, 2009
  #
  #  Suggested "light" defaults for C atom (to be pasted into control.in file)
  #  Be sure to double-check any results obtained with these settings forpost-processing,
  #  e.g., with the "tight" defaults and larger basis sets.
  #
  ################################################################################
    species        C
  #     global species definitions
      nucleus             6
      mass                12.0107
  #
      l_hartree           4
  #
      cut_pot             3.5  1.5  1.0
      basis_dep_cutoff    1e-4
  #
      radial_base         34 5.0
      radial_multiplier   1
      angular_grids specified
        division   0.3326   50
        division   0.5710  110
        division   0.7727  194
        division   0.8772  302
  #      division   0.9334  434
  #      division   0.9625  590
  #      division   0.9924  770
  #      division   1.0230  974
  #      division   1.4589 1202
  #     outer_grid  974
       outer_grid 302
  ################################################################################
  #
  #  Definition of "minimal" basis
  #
  ################################################################################
  #     valence basis states
      valence      2  s   2.
      valence      2  p   2.
  #     ion occupancy
      ion_occ      2  s   1.
      ion_occ      2  p   1.
  ################################################################################
  #
  #  Suggested additional basis functions. For production calculations,
  #  uncomment them one after another (the most important basis functions are
  #  listed first).
  #
  #  Constructed for dimers: 1.0 A, 1.25 A, 1.5 A, 2.0 A, 3.0 A
  #
  ################################################################################
  #  "First tier" - improvements: -1214.57 meV to -155.61 meV
       hydro 2 p 1.7
       hydro 3 d 6
       hydro 2 s 4.9
  #  "Second tier" - improvements: -67.75 meV to -5.23 meV
  #     hydro 4 f 9.8
  #     hydro 3 p 5.2
  #     hydro 3 s 4.3
  #     hydro 5 g 14.4
  #     hydro 3 d 6.2
  #  "Third tier" - improvements: -2.43 meV to -0.60 meV
  #     hydro 2 p 5.6
  #     hydro 2 s 1.4
  #     hydro 3 d 4.9
  #     hydro 4 f 11.2
  #  "Fourth tier" - improvements: -0.39 meV to -0.18 meV
  #     hydro 2 p 2.1
  #     hydro 5 g 16.4
  #     hydro 4 d 13.2
  #     hydro 3 s 13.6
  #     hydro 4 f 17.6
  #  Further basis functions - improvements: -0.08 meV and below
  #     hydro 3 s 2
  #     hydro 3 p 6
  #     hydro 4 d 20
  
  -----------------------------------------------------------------------
  Completed first pass over input file control.in .
  -----------------------------------------------------------------------
  
  
  -----------------------------------------------------------------------
  Parsing geometry.in (first pass over file, find array dimensions only).
  The contents of geometry.in will be repeated verbatim below
  unless switched off by setting 'verbatim_writeout .false.' .
  in the first line of geometry.in .
  -----------------------------------------------------------------------
  
  #=======================================#
  # iterations/iteration0037/aims-chain-node-0.20046/geometry.in
  #=======================================#
  atom -1.7588281001186159 -0.8755028999839962 -0.0008901471107869 C
  atom -0.6550935756643806 0.1409521066503820 -0.0119800469366920 C
  atom 0.6550935691915796 -0.1409520921324049 -0.0119802776895721 C
  atom 1.7588280951649455 0.8755029013513311 -0.0008906247217651 C
  atom -1.3946446386346203 -1.8706706568794003 -0.2929592938620967 H
  atom -2.5696663946209797 -0.5930538623135252 -0.6893250894955881 H
  atom -2.2137710437299396 -0.9651173827271373 0.9997525980428970 H
  atom -0.9619428926156638 1.1947743810732190 -0.0045965976849949 H
  atom 0.9619428967390365 -1.1947743664200425 -0.0045970670113868 H
  atom 1.3946443799561341 1.8706708544452477 -0.2929587869232348 H
  atom 2.2137719026867479 0.9651166929447275 0.9997517896015840 H
  atom 2.5696658016457450 0.5930543239915994 -0.6893264562083656 H
  
  -----------------------------------------------------------------------
  Completed first pass over input file geometry.in .
  -----------------------------------------------------------------------
  

  Basic array size parameters:
  | Number of species                 :        2
  | Number of atoms                   :       12
  | Max. basis fn. angular momentum   :        2
  | Max. atomic/ionic basis occupied n:        2
  | Max. number of basis fn. types    :        2
  | Max. radial fns per species/type  :        3
  | Max. logarithmic grid size        :     1277
  | Max. radial integration grid size :       34
  | Max. angular integration grid size:      302
  | Max. angular grid division number :        8
  | Radial grid for Hartree potential :     1277
  | Number of spin channels           :        1

------------------------------------------------------------
          Reading file control.in.
------------------------------------------------------------
  XC: Using PBE gradient-corrected functionals.
  Non-relativistic treatment of kinetic energy.
  Convergence accuracy of self-consistent charge density:  0.1000E-04
  Convergence accuracy of sum of eigenvalues:  0.1000E-02
  Convergence accuracy of total energy:  0.1000E-05
  Maximum number of s.-c. iterations  :  1000
  Forces will be computed.
  Cleaning forces before final output.
 
  Reading configuration options for species H                   .
  | Found nuclear charge :   1.0000
  | Found atomic mass :    1.00794000000000      amu
  | Found l_max for Hartree potential  :   4
  | Found cutoff potl. onset [A], width [A], scale factor :    3.50000    1.50000    1.00000
  | Threshold for basis-dependent cutoff potential is   0.100000E-03
  | Found data for basic radial integration grid :    24 points, outermost radius =    5.000 A
  | Found multiplier for basic radial grid :   1
  | Found angular grid specification: user-specified.
  | Specified grid contains     5 separate shells.
  | Check grid settings after all constraints further below.
  | Found free-atom valence shell :  1 s   1.000
  | No ionic wave fns used. Skipping ion_occ.
  | Found hydrogenic basis function :  2 s   2.100
  | Found hydrogenic basis function :  2 p   3.500
  Species H                   : Missing cutoff potential type.
  Defaulting to exp(1/x)/(1-x)^2 type cutoff potential.
  Species H : No 'logarithmic' tag. Using default grid for free atom:
  | Default logarithmic grid data [bohr] : 0.1000E-03 0.1000E+03 0.1012E+01
  Species H : On-site basis accuracy parameter (for Gram-Schmidt orthonormalisation) not specified.
  Using default value basis_acc =  0.1000000E-03.
  Species H                   : Using default innermost maximum threshold i_radial=  2 for radial functions.
  Species H                   : Default cutoff onset for free atom density etc. : 0.35000000E+01 AA.
  Species H                   : Basic radial grid will be enhanced according to radial_multiplier =   1, to contain    24 grid points.
 
  Reading configuration options for species C                   .
  | Found nuclear charge :   6.0000
  | Found atomic mass :    12.0107000000000      amu
  | Found l_max for Hartree potential  :   4
  | Found cutoff potl. onset [A], width [A], scale factor :    3.50000    1.50000    1.00000
  | Threshold for basis-dependent cutoff potential is   0.100000E-03
  | Found data for basic radial integration grid :    34 points, outermost radius =    5.000 A
  | Found multiplier for basic radial grid :   1
  | Found angular grid specification: user-specified.
  | Specified grid contains     5 separate shells.
  | Check grid settings after all constraints further below.
  | Found free-atom valence shell :  2 s   2.000
  | Found free-atom valence shell :  2 p   2.000
  | No ionic wave fns used. Skipping ion_occ.
  | No ionic wave fns used. Skipping ion_occ.
  | Found hydrogenic basis function :  2 p   1.700
  | Found hydrogenic basis function :  3 d   6.000
  | Found hydrogenic basis function :  2 s   4.900
  Species C                   : Missing cutoff potential type.
  Defaulting to exp(1/x)/(1-x)^2 type cutoff potential.
  Species C : No 'logarithmic' tag. Using default grid for free atom:
  | Default logarithmic grid data [bohr] : 0.1000E-03 0.1000E+03 0.1012E+01
  Species C : On-site basis accuracy parameter (for Gram-Schmidt orthonormalisation) not specified.
  Using default value basis_acc =  0.1000000E-03.
  Species C                   : Using default innermost maximum threshold i_radial=  2 for radial functions.
  Species C                   : Default cutoff onset for free atom density etc. : 0.35000000E+01 AA.
  Species C                   : Basic radial grid will be enhanced according to radial_multiplier =   1, to contain    34 grid points.
 
  Finished reading input file 'control.in'. Consistency checks are next.
 
  MPI_IN_PLACE appears to work with this MPI implementation.
  | Keeping use_mpi_in_place .true. (see manual).
  Target number of points in a grid batch is not set. Defaulting to  100
  Method for grid partitioning is not set. Defaulting to parallel hash+maxmin partitioning.
  Batch size limit is not set. Defaulting to    200
  By default, will store active basis functions for each batch.
  If in need of memory, prune_basis_once .false. can be used to disable this option.
  communication_type for Hartree potential was not specified.
  Defaulting to calc_hartree .
  Defaulting to Pulay charge density mixer.
  Pulay mixer: Number of relevant iterations not set.
  Defaulting to    8 iterations.
  Pulay mixer: Number of initial linear mixing iterations not set.
  Defaulting to    0 iterations.
  Work space size for distributed Hartree potential not set.
  Defaulting to   0.200000E+03 MB.
  Mixing parameter for charge density mixing has not been set.
  Using default: charge_mix_param =     0.0500.
  The mixing parameter will be adjusted in iteration number     2 of the first full s.c.f. cycle only.
  Algorithm-dependent basis array size parameters:
  | n_max_pulay                         :        8
  Presetting        40 iterations before the initial mixing cycle
  is restarted anyway using the sc_init_iter criterion / keyword.
  Presetting a factor      1.000 between actual scf density residual
  and density convergence criterion sc_accuracy_rho below which sc_init_iter
  takes no effect.
  Geometry relaxation not requested: no relaxation will be performed.
  Force calculation: scf convergence accuracy of forces not set.
  Defaulting to 'sc_accuracy_forces not_checked'.
  Handling of forces: Unphysical translation and rotation will be removed from forces.
  No accuracy limit for integral partition fn. given. Defaulting to  0.1000E-14.
  No threshold value for u(r) in integrations given. Defaulting to  0.1000E-05.
  No occupation type (smearing scheme) given. Defaulting to Gaussian broadening, width =  0.1000E-01 eV.
  The width will be adjusted in iteration number     2 of the first full s.c.f. cycle only.
  S.C.F. convergence parameters will be adjusted in iteration number     2 of the first full s.c.f. cycle only.
  No accuracy for occupation numbers given. Defaulting to  0.1000E-12.
  No threshold value for occupation numbers given. Defaulting to  0.0000E+00.
  No accuracy for fermi level given. Defaulting to  0.1000E-19.
  Maximum # of iterations to find E_F not set. Defaulting to  200.
  Preferred method for the eigenvalue solver ('KS_method') not specified in 'control.in'.
  Calling BLACS routine to test compilation state
  The best choice would be 'elsi', but your version of FHI-aims is compiled without ScaLAPACK support.
  Defaulting to 'lapack_fast' instead (serial solution, time will not improve with more CPUs).
  Will not use alltoall communication since running on < 1024 CPUs.
  Threshold for basis singularities not set.
  Default threshold for basis singularities:  0.1000E-04
  partition_type (choice of integration weights) for integrals was not specified.
  | Using a version of the partition function of Stratmann and coworkers ('stratmann_smoother').
  | At each grid point, the set of atoms used to build the partition table is smoothly restricted to
  | only those atoms whose free-atom density would be non-zero at that grid point.
  Partitioning for Hartree potential was not defined. Using partition_type for integrals.
  | Adjusted default value of keyword multip_moments_threshold to:       0.10000000E-11
  | This value may affect high angular momentum components of the Hartree potential in periodic systems.
  Spin handling was not defined in control.in. Defaulting to unpolarized case.
  No q(lm)/r^(l+1) cutoff set for long-range Hartree potential.
  | Using default value of  0.100000E-09 .
  | Verify using the multipole_threshold keyword.
  Defaulting to new monopole extrapolation.
  Density update method: automatic selection selected.
------------------------------------------------------------


------------------------------------------------------------
          Reading geometry description geometry.in.
------------------------------------------------------------
  Input structure read successfully.
  The structure contains       12 atoms,  and a total of         32.000 electrons.

  Input geometry:
  | No unit cell requested.
  | Atomic structure:
  |       Atom                x [A]            y [A]            z [A]
  |    1: Species C            -1.75882810       -0.87550290       -0.00089015
  |    2: Species C            -0.65509358        0.14095211       -0.01198005
  |    3: Species C             0.65509357       -0.14095209       -0.01198028
  |    4: Species C             1.75882810        0.87550290       -0.00089062
  |    5: Species H            -1.39464464       -1.87067066       -0.29295929
  |    6: Species H            -2.56966639       -0.59305386       -0.68932509
  |    7: Species H            -2.21377104       -0.96511738        0.99975260
  |    8: Species H            -0.96194289        1.19477438       -0.00459660
  |    9: Species H             0.96194290       -1.19477437       -0.00459707
  |   10: Species H             1.39464438        1.87067085       -0.29295879
  |   11: Species H             2.21377190        0.96511669        0.99975179
  |   12: Species H             2.56966580        0.59305432       -0.68932646
  |

  | The smallest distance between any two atoms is         1.09761214 AA.
  |
  | The first atom of this pair is atom number                      2 .
  | The second atom of this pair is atom number                     8 .

  Number of empty states per atom not set in control.in - providing a guess from actual geometry.
  | Total number of empty states used during s.c.f. cycle:       24
  If you use a very high smearing, use empty_states (per atom!) in control.in to increase this value.

  Structure-dependent array size parameters: 
  | Maximum number of distinct radial functions  :        9
  | Maximum number of basis functions            :       96
  | Number of Kohn-Sham states (occupied + empty):       40
------------------------------------------------------------

------------------------------------------------------------
          Preparing all fixed parts of the calculation.
------------------------------------------------------------
  Determining machine precision:
    2.225073858507201E-308
  Setting up grids for atomic and cluster calculations.

  Creating wave function, potential, and density for free atoms.

  Species: H

  List of occupied orbitals and eigenvalues:
    n    l              occ      energy [Ha]    energy [eV]
    1    0           1.0000        -0.237589        -6.4651


  Species: C

  List of occupied orbitals and eigenvalues:
    n    l              occ      energy [Ha]    energy [eV]
    1    0           2.0000       -10.038835      -273.1706
    2    0           2.0000        -0.502696       -13.6791
    2    1           2.0000        -0.191971        -5.2238

  Creating fixed part of basis set: Ionic, confined, hydrogenic.
 
  H                    hydrogenic:
 
  List of hydrogenic basis orbitals: 
    n    l      effective z      eigenvalue [eV]  inner max. [A]     outer max. [A]     outer radius [A]   
    2    0         2.100000       -14.9728           0.193243           1.317208           4.583499
    2    1         3.500000       -41.6669           0.602369           0.602369           3.723403
 
 
  C                    hydrogenic:
 
  List of hydrogenic basis orbitals: 
    n    l      effective z      eigenvalue [eV]  inner max. [A]     outer max. [A]     outer radius [A]   
    2    1         1.700000        -9.7616           1.230570           1.230570           4.607917
    3    2         6.000000       -54.4224           0.792453           0.792453           3.883070
    2    0         4.900000       -81.6679           0.082559           0.562749           3.078220
 

  Adding cutoff potential to free-atom effective potential.
  Creating atomic-like basis functions for current effective potential.

  Species H                   :

  List of atomic basis orbitals and eigenvalues:
    n    l      energy [Ha]    energy [eV]    outer radius [A]
    1    0        -0.237589        -6.4651       4.527807


  Species C                   :

  List of atomic basis orbitals and eigenvalues:
    n    l      energy [Ha]    energy [eV]    outer radius [A]
    1    0       -10.038835      -273.1706       1.934409
    2    0        -0.502696       -13.6791       4.496620
    2    1        -0.191971        -5.2238       4.551928

  Assembling full basis from fixed parts.
  | Species H :   atomic orbital   1 s accepted.
  | Species H :    hydro orbital   2 s accepted.
  | Species H :    hydro orbital   2 p accepted.
  | Species C :   atomic orbital   1 s accepted.
  | Species C :    hydro orbital   2 s accepted.
  | Species C :   atomic orbital   2 s accepted.
  | Species C :   atomic orbital   2 p accepted.
  | Species C :    hydro orbital   2 p accepted.
  | Species C :    hydro orbital   3 d accepted.
 
  Basis size parameters after reduction:
  | Total number of radial functions:        9
  | Total number of basis functions :       96
 
  Per-task memory consumption for arrays in subroutine allocate_ext:
  |           2.209696MB.
  Testing on-site integration grid accuracy.
  |  Species  Function  <phi|h_atom|phi> (log., in eV)  <phi|h_atom|phi> (rad., in eV)
           1        1                 -6.4663192853                 -6.4651273558
           1        2                 13.7111246313                 13.7170609718
           1        3                 25.2673269279                 25.2674696378
           2        4               -273.1705927641               -273.1705631568
           2        5                -10.7109323383                -10.7107120029
           2        6                 17.4381822266                 17.4352413244
           2        7                 -5.2255326521                 -5.2270484734
           2        8                  8.6835629259                  8.6603288385
           2        9                 27.4952418996                 27.4953360207

  Preparing densities etc. for the partition functions (integrals / Hartree potential).

  Preparations completed.
  max(cpu_time)          :      0.128 s.
  Wall clock time (cpu1) :      0.128 s.
------------------------------------------------------------

------------------------------------------------------------
          Begin self-consistency loop: Initialization.

          Date     :  20180215, Time     :  214239.611
------------------------------------------------------------

  Initializing index lists of integration centers etc. from given atomic structure:
  | Number of centers in hartree potential         :        12
  | Number of centers in hartree multipole         :        12
  | Number of centers in electron density summation:        12
  | Number of centers in basis integrals           :        12
  | Number of centers in integrals                 :        12
  | Number of centers in hamiltonian               :        12
  Partitioning the integration grid into batches with parallel hashing+maxmin method.
  | Number of batches:      750
  | Maximal batch size:     187
  | Minimal batch size:      49
  | Average batch size:      81.259
  | Standard deviation of batch sizes:      24.928

  Integration load balanced across     8 MPI tasks.
  Work distribution over tasks is as follows:
  Task     0 has       7640 integration points.
  Task     1 has       7646 integration points.
  Task     2 has       7597 integration points.
  Task     3 has       7624 integration points.
  Task     4 has       7620 integration points.
  Task     5 has       7582 integration points.
  Task     6 has       7596 integration points.
  Task     7 has       7639 integration points.
  Initializing partition tables, free-atom densities, potentials, etc. across the integration grid (initialize_grid_storage).
  | initialize_grid_storage: Actual outermost partition radius vs. multipole_radius_free
  | (-- VB: in principle, multipole_radius_free should be larger, hence this output)
  | Species        1: Confinement radius =              4.999999999999999 AA, multipole_radius_free =              5.054417573612229 AA.
  | Species        1: outer_partition_radius set to              5.054417573612229 AA .
  | Species        2: Confinement radius =              4.999999999999999 AA, multipole_radius_free =              5.019602836301480 AA.
  | Species        2: outer_partition_radius set to              5.019602836301480 AA .
  | Original list of interatomic distances with          12 x         12 entries is created.
  | Net number of integration points:    60944
  | of which are non-zero points    :    52345
  Renormalizing the initial density to the exact electron count on the 3D integration grid.
  | Initial density: Formal number of electrons (from input files) :      32.0000000000
  | Integrated number of electrons on 3D grid     :      32.0000086492
  | Charge integration error                      :       0.0000086492
  | Normalization factor for density and gradient :       0.9999997297
  Obtaining max. number of non-zero basis functions in each batch (get_n_compute_maxes).
  | Maximal number of non-zero basis functions:       96 in task     0
  | Maximal number of non-zero basis functions:       96 in task     1
  | Maximal number of non-zero basis functions:       96 in task     2
  | Maximal number of non-zero basis functions:       96 in task     3
  | Maximal number of non-zero basis functions:       96 in task     4
  | Maximal number of non-zero basis functions:       96 in task     5
  | Maximal number of non-zero basis functions:       96 in task     6
  | Maximal number of non-zero basis functions:       96 in task     7
  Selecting the method for density update.
  Loop over occupied states selected for charge density update.
  Allocating        0.031 MB for KS_eigenvector
  Integrating Hamiltonian matrix: batch-based integration.
  Time summed over all CPUs for integration: real work        1.263 s, elapsed        1.313 s
  Integrating overlap matrix.
  Time summed over all CPUs for integration: real work        0.478 s, elapsed        0.496 s

  Updating Kohn-Sham eigenvalues, eigenvectors, occupation numbers, and Fermi level.
  Solving generalized eigenproblem
  Updating Kohn-Sham eigenvalues and eigenfunctions.
  Transforming overlap matrix and checking for singularities.
  Overlap matrix is nonsingular:
  | Lowest eigenvalue:  0.321987E-02
  Solving real generalised eigenvalue problem by standard LAPACK (fast)

  Obtaining occupation numbers and chemical potential using ELSI.
  | Chemical potential (Fermi level):    -8.47340660eV
  Writing Kohn-Sham eigenvalues.

  State    Occupation    Eigenvalue [Ha]    Eigenvalue [eV]
      1       2.00000         -10.166611         -276.64757
      2       2.00000         -10.166611         -276.64757
      3       2.00000         -10.151578         -276.23848
      4       2.00000         -10.150921         -276.22062
      5       2.00000          -0.928885          -25.27624
      6       2.00000          -0.855505          -23.27946
      7       2.00000          -0.784486          -21.34694
      8       2.00000          -0.668235          -18.18359
      9       2.00000          -0.592797          -16.13082
     10       2.00000          -0.585141          -15.92250
     11       2.00000          -0.546563          -14.87273
     12       2.00000          -0.534383          -14.54129
     13       2.00000          -0.518040          -14.09657
     14       2.00000          -0.511482          -13.91813
     15       2.00000          -0.476922          -12.97770
     16       2.00000          -0.385872          -10.50010
     17       0.00000          -0.178565           -4.85900
     18       0.00000          -0.034690           -0.94396
     19       0.00000          -0.030254           -0.82325
     20       0.00000          -0.020731           -0.56411
     21       0.00000           0.015578            0.42391
     22       0.00000           0.020966            0.57052
     23       0.00000           0.024793            0.67464
     24       0.00000           0.027987            0.76157
     25       0.00000           0.033488            0.91126
     26       0.00000           0.040145            1.09240
     27       0.00000           0.134289            3.65418
     28       0.00000           0.187115            5.09167
     29       0.00000           0.190734            5.19013
     30       0.00000           0.202266            5.50394
     31       0.00000           0.227068            6.17882
     32       0.00000           0.228606            6.22068
     33       0.00000           0.240900            6.55522
     34       0.00000           0.289242            7.87068
     35       0.00000           0.355706            9.67925
     36       0.00000           0.366042            9.96050
     37       0.00000           0.386721           10.52321
     38       0.00000           0.437810           11.91340
     39       0.00000           0.507317           13.80481
     40       0.00000           0.523796           14.25322

  Highest occupied state (VBM) at    -10.50010417 eV
  | Occupation number:      2.00000000

  Lowest unoccupied state (CBM) at    -4.85900072 eV
  | Occupation number:      0.00000000

  Overall HOMO-LUMO gap:      5.64110345 eV.
  Calculating total energy contributions from superposition of free atom densities.

  Total energy components:
  | Sum of eigenvalues            :         -96.04805876 Ha       -2613.60065743 eV
  | XC energy correction          :         -23.65822705 Ha        -643.77311283 eV
  | XC potential correction       :          30.39088057 Ha         826.97793660 eV
  | Free-atom electrostatic energy:         -68.01284706 Ha       -1850.72373242 eV
  | Hartree energy correction     :           0.00000000 Ha           0.00000000 eV
  | vdW energy correction         :           0.00000000 Ha           0.00000000 eV
  | Entropy correction            :           0.00000000 Ha           0.00000000 eV
  | ---------------------------
  | Total energy                  :        -157.32825230 Ha       -4281.11956608 eV
  | Total energy, T -> 0          :        -157.32825230 Ha       -4281.11956608 eV  <-- do not rely on this value for anything but (periodic) metals
  | Electronic free energy        :        -157.32825230 Ha       -4281.11956608 eV

  Derived energy quantities:
  | Kinetic energy                :         154.19086936 Ha        4195.74703258 eV
  | Electrostatic energy          :        -287.86089461 Ha       -7833.09348583 eV
  | Energy correction for multipole
  | error in Hartree potential    :           0.00000000 Ha           0.00000000 eV
  | Sum of eigenvalues per atom                           :        -217.80005479 eV
  | Total energy (T->0) per atom                          :        -356.75996384 eV  <-- do not rely on this value for anything but (periodic) metals
  | Electronic free energy per atom                       :        -356.75996384 eV
  Initialize hartree_potential_storage
  Max. number of atoms included in rho_multipole:           12

  End scf initialization - timings             :  max(cpu_time)    wall_clock(cpu1)
  | Time for scf. initialization               :        0.416 s           0.414 s
  | Boundary condition initialization          :        0.000 s           0.000 s
  | Integration                                :        0.240 s           0.237 s
  | Solution of K.-S. eqns.                    :        0.012 s           0.011 s
  | Grid partitioning                          :        0.060 s           0.060 s
  | Preloading free-atom quantities on grid    :        0.004 s           0.003 s
  | Free-atom superposition energy             :        0.024 s           0.022 s
  | Total energy evaluation                    :        0.000 s           0.001 s

  Partial memory accounting:
  | Current value for overall tracked memory usage on task 0  :           0.179 MB
  | Peak value for overall tracked memory usage on task 0     :           0.612 MB after allocating wave
  | Largest tracked array allocation on task 0 so far         :           0.144 MB  when allocating H_times_psi
  Note:  These values currently only include a subset of arrays which are explicitly tracked.
  The "true" memory usage will be greater.
------------------------------------------------------------

------------------------------------------------------------
          Begin self-consistency iteration #    1

  Date     :  20180215, Time     :  214240.026
------------------------------------------------------------
  Evaluating new KS density.
  Integration grid: deviation in total charge (<rho> - N_e) =   2.842171E-14
  Pulay mixing of updated and previous charge densities.

  Evaluating partitioned Hartree potential by multipole expansion.
  | Analytical far-field extrapolation by fixed multipoles:
  | Hartree multipole sum: apparent total charge =  -0.224078E-04
  Summing up the Hartree potential.
  Time summed over all CPUs for potential: real work        1.278 s, elapsed        1.290 s
  | RMS charge density error from multipole expansion :   0.133482E-02

  Integrating Hamiltonian matrix: batch-based integration.
  Time summed over all CPUs for integration: real work        1.264 s, elapsed        1.298 s

  Updating Kohn-Sham eigenvalues, eigenvectors, occupation numbers, and Fermi level.
  Solving generalized eigenproblem
  Updating Kohn-Sham eigenvalues and eigenfunctions.
  Solving real generalised eigenvalue problem by standard LAPACK (fast)

  Obtaining occupation numbers and chemical potential using ELSI.
  | Chemical potential (Fermi level):    -8.08730135eV
  Writing Kohn-Sham eigenvalues.

  State    Occupation    Eigenvalue [Ha]    Eigenvalue [eV]
      1       2.00000         -10.131987         -275.70540
      2       2.00000         -10.131987         -275.70540
      3       2.00000         -10.122055         -275.43513
      4       2.00000         -10.121398         -275.41726
      5       2.00000          -0.908535          -24.72248
      6       2.00000          -0.836573          -22.76431
      7       2.00000          -0.765165          -20.82121
      8       2.00000          -0.652028          -17.74258
      9       2.00000          -0.574072          -15.62129
     10       2.00000          -0.566922          -15.42674
     11       2.00000          -0.530124          -14.42541
     12       2.00000          -0.518097          -14.09815
     13       2.00000          -0.499254          -13.58539
     14       2.00000          -0.494998          -13.46959
     15       2.00000          -0.460786          -12.53863
     16       2.00000          -0.368701          -10.03288
     17       0.00000          -0.162200           -4.41370
     18       0.00000          -0.023034           -0.62678
     19       0.00000          -0.021487           -0.58468
     20       0.00000          -0.012642           -0.34400
     21       0.00000           0.025550            0.69526
     22       0.00000           0.034203            0.93071
     23       0.00000           0.037074            1.00884
     24       0.00000           0.038222            1.04007
     25       0.00000           0.043866            1.19367
     26       0.00000           0.050669            1.37877
     27       0.00000           0.146466            3.98554
     28       0.00000           0.197761            5.38134
     29       0.00000           0.200594            5.45844
     30       0.00000           0.213502            5.80970
     31       0.00000           0.237511            6.46299
     32       0.00000           0.242445            6.59725
     33       0.00000           0.253258            6.89150
     34       0.00000           0.302064            8.21958
     35       0.00000           0.368104           10.01661
     36       0.00000           0.376299           10.23962
     37       0.00000           0.398204           10.83569
     38       0.00000           0.450089           12.24756
     39       0.00000           0.518951           14.12137
     40       0.00000           0.536253           14.59220

  Highest occupied state (VBM) at    -10.03287571 eV
  | Occupation number:      2.00000000

  Lowest unoccupied state (CBM) at    -4.41369983 eV
  | Occupation number:      0.00000000

  Overall HOMO-LUMO gap:      5.61917588 eV.

  Total energy components:
  | Sum of eigenvalues            :         -95.36536771 Ha       -2595.02368878 eV
  | XC energy correction          :         -23.71877059 Ha        -645.42058638 eV
  | XC potential correction       :          30.46935497 Ha         829.11333345 eV
  | Free-atom electrostatic energy:         -68.01284706 Ha       -1850.72373242 eV
  | Hartree energy correction     :          -0.65135818 Ha         -17.72435779 eV
  | vdW energy correction         :           0.00000000 Ha           0.00000000 eV
  | Entropy correction            :           0.00000000 Ha           0.00000000 eV
  | ---------------------------
  | Total energy                  :        -157.27898858 Ha       -4279.77903193 eV
  | Total energy, T -> 0          :        -157.27898858 Ha       -4279.77903193 eV  <-- do not rely on this value for anything but (periodic) metals
  | Electronic free energy        :        -157.27898858 Ha       -4279.77903193 eV

  Derived energy quantities:
  | Kinetic energy                :         154.51838797 Ha        4204.65926736 eV
  | Electrostatic energy          :        -288.07860596 Ha       -7839.01771290 eV
  | Energy correction for multipole
  | error in Hartree potential    :           0.00229911 Ha           0.06256199 eV
  | Sum of eigenvalues per atom                           :        -216.25197407 eV
  | Total energy (T->0) per atom                          :        -356.64825266 eV  <-- do not rely on this value for anything but (periodic) metals
  | Electronic free energy per atom                       :        -356.64825266 eV

  Self-consistency convergence accuracy:
  | Change of charge density      :  0.4881E+00
  | Change of sum of eigenvalues  :  0.1858E+02 eV
  | Change of total energy        :  0.1341E+01 eV

  End self-consistency iteration #     1       :  max(cpu_time)    wall_clock(cpu1)
  | Time for this iteration                    :        0.520 s           0.518 s
  | Charge density update                      :        0.164 s           0.162 s
  | Density mixing                             :        0.004 s           0.001 s
  | Hartree multipole update                   :        0.012 s           0.011 s
  | Hartree multipole summation                :        0.172 s           0.169 s
  | Integration                                :        0.172 s           0.170 s
  | Solution of K.-S. eqns.                    :        0.004 s           0.002 s
  | Total energy evaluation                    :        0.004 s           0.000 s

  Partial memory accounting:
  | Current value for overall tracked memory usage on task 0  :           0.179 MB
  | Peak value for overall tracked memory usage on task 0     :           0.754 MB after allocating gradient_basis_wave
  | Largest tracked array allocation on task 0 so far         :           0.431 MB  when allocating gradient_basis_wave
  Note:  These values currently only include a subset of arrays which are explicitly tracked.
  The "true" memory usage will be greater.
------------------------------------------------------------

------------------------------------------------------------
          Begin self-consistency iteration #    2

  Date     :  20180215, Time     :  214240.545
------------------------------------------------------------
  Evaluating new KS density.
  Integration grid: deviation in total charge (<rho> - N_e) =  -3.552714E-15
  Pulay mixing of updated and previous charge densities.

  Evaluating partitioned Hartree potential by multipole expansion.
  | Analytical far-field extrapolation by fixed multipoles:
  | Hartree multipole sum: apparent total charge =  -0.294444E-03
  Summing up the Hartree potential.
  Time summed over all CPUs for potential: real work        1.278 s, elapsed        1.312 s
  | RMS charge density error from multipole expansion :   0.131263E-01

  Integrating Hamiltonian matrix: batch-based integration.
  Time summed over all CPUs for integration: real work        1.260 s, elapsed        1.290 s

  Updating Kohn-Sham eigenvalues, eigenvectors, occupation numbers, and Fermi level.
  Solving generalized eigenproblem
  Updating Kohn-Sham eigenvalues and eigenfunctions.
  Solving real generalised eigenvalue problem by standard LAPACK (fast)

  Obtaining occupation numbers and chemical potential using ELSI.
  | Chemical potential (Fermi level):    -4.71944412eV
  Highest occupied state (VBM) at     -6.17423531 eV
  | Occupation number:      2.00000000

  Lowest unoccupied state (CBM) at    -0.77950774 eV
  | Occupation number:      0.00000000

  Overall HOMO-LUMO gap:      5.39472757 eV.

  Checking to see if s.c.f. parameters should be adjusted.
  The system likely has a gap. Increased the default Pulay mixing parameter (charge_mix_param). Value:   0.200000 .
  Kept the default occupation width. Value:   0.010000 eV.

  Total energy components:
  | Sum of eigenvalues            :         -89.65046200 Ha       -2439.51319198 eV
  | XC energy correction          :         -24.27637403 Ha        -660.59374801 eV
  | XC potential correction       :          31.19175780 Ha         848.77091472 eV
  | Free-atom electrostatic energy:         -68.01284706 Ha       -1850.72373242 eV
  | Hartree energy correction     :          -6.32844402 Ha        -172.20572348 eV
  | vdW energy correction         :           0.00000000 Ha           0.00000000 eV
  | Entropy correction            :           0.00000000 Ha           0.00000000 eV
  | ---------------------------
  | Total energy                  :        -157.07636931 Ha       -4274.26548117 eV
  | Total energy, T -> 0          :        -157.07636931 Ha       -4274.26548117 eV  <-- do not rely on this value for anything but (periodic) metals
  | Electronic free energy        :        -157.07636931 Ha       -4274.26548117 eV

  Derived energy quantities:
  | Kinetic energy                :         156.94163307 Ha        4270.59912160 eV
  | Electrostatic energy          :        -289.74162835 Ha       -7884.27085476 eV
  | Energy correction for multipole
  | error in Hartree potential    :           0.02180385 Ha           0.59331300 eV
  | Sum of eigenvalues per atom                           :        -203.29276600 eV
  | Total energy (T->0) per atom                          :        -356.18879010 eV  <-- do not rely on this value for anything but (periodic) metals
  | Electronic free energy per atom                       :        -356.18879010 eV

  Self-consistency convergence accuracy:
  | Change of charge density      :  0.4491E+00
  | Change of sum of eigenvalues  :  0.1555E+03 eV
  | Change of total energy        :  0.5514E+01 eV

  End self-consistency iteration #     2       :  max(cpu_time)    wall_clock(cpu1)
  | Time for this iteration                    :        0.520 s           0.518 s
  | Charge density update                      :        0.160 s           0.160 s
  | Density mixing                             :        0.004 s           0.003 s
  | Hartree multipole update                   :        0.012 s           0.010 s
  | Hartree multipole summation                :        0.172 s           0.172 s
  | Integration                                :        0.172 s           0.169 s
  | Solution of K.-S. eqns.                    :        0.004 s           0.002 s
  | Total energy evaluation                    :        0.000 s           0.000 s

  Partial memory accounting:
  | Current value for overall tracked memory usage on task 0  :           0.180 MB
  | Peak value for overall tracked memory usage on task 0     :           0.754 MB after allocating gradient_basis_wave
  | Largest tracked array allocation on task 0 so far         :           0.431 MB  when allocating gradient_basis_wave
  Note:  These values currently only include a subset of arrays which are explicitly tracked.
  The "true" memory usage will be greater.
------------------------------------------------------------

------------------------------------------------------------
          Begin self-consistency iteration #    3

  Date     :  20180215, Time     :  214241.064
------------------------------------------------------------
  Evaluating new KS density.
  Integration grid: deviation in total charge (<rho> - N_e) =  -3.552714E-15
  Pulay mixing of updated and previous charge densities.

  Evaluating partitioned Hartree potential by multipole expansion.
  | Analytical far-field extrapolation by fixed multipoles:
  | Hartree multipole sum: apparent total charge =  -0.285073E-03
  Summing up the Hartree potential.
  Time summed over all CPUs for potential: real work        1.276 s, elapsed        1.287 s
  | RMS charge density error from multipole expansion :   0.162240E-01

  Integrating Hamiltonian matrix: batch-based integration.
  Time summed over all CPUs for integration: real work        1.254 s, elapsed        1.285 s

  Updating Kohn-Sham eigenvalues, eigenvectors, occupation numbers, and Fermi level.
  Solving generalized eigenproblem
  Updating Kohn-Sham eigenvalues and eigenfunctions.
  Solving real generalised eigenvalue problem by standard LAPACK (fast)

  Obtaining occupation numbers and chemical potential using ELSI.
  | Chemical potential (Fermi level):    -5.11310659eV
  Highest occupied state (VBM) at     -6.86303133 eV
  | Occupation number:      2.00000000

  Lowest unoccupied state (CBM) at    -1.43600659 eV
  | Occupation number:      0.00000000

  Overall HOMO-LUMO gap:      5.42702474 eV.

  Total energy components:
  | Sum of eigenvalues            :         -90.62178884 Ha       -2465.94434014 eV
  | XC energy correction          :         -24.22883056 Ha        -659.30002447 eV
  | XC potential correction       :          31.12655423 Ha         846.99663530 eV
  | Free-atom electrostatic energy:         -68.01284706 Ha       -1850.72373242 eV
  | Hartree energy correction     :          -5.33452666 Ha        -145.15985599 eV
  | vdW energy correction         :           0.00000000 Ha           0.00000000 eV
  | Entropy correction            :           0.00000000 Ha           0.00000000 eV
  | ---------------------------
  | Total energy                  :        -157.07143889 Ha       -4274.13131772 eV
  | Total energy, T -> 0          :        -157.07143889 Ha       -4274.13131772 eV  <-- do not rely on this value for anything but (periodic) metals
  | Electronic free energy        :        -157.07143889 Ha       -4274.13131772 eV

  Derived energy quantities:
  | Kinetic energy                :         156.27262390 Ha        4252.39445580 eV
  | Electrostatic energy          :        -289.11523223 Ha       -7867.22574906 eV
  | Energy correction for multipole
  | error in Hartree potential    :           0.02612817 Ha           0.71098363 eV
  | Sum of eigenvalues per atom                           :        -205.49536168 eV
  | Total energy (T->0) per atom                          :        -356.17760981 eV  <-- do not rely on this value for anything but (periodic) metals
  | Electronic free energy per atom                       :        -356.17760981 eV

  Self-consistency convergence accuracy:
  | Change of charge density      :  0.2094E+00
  | Change of sum of eigenvalues  : -0.2643E+02 eV
  | Change of total energy        :  0.1342E+00 eV

  End self-consistency iteration #     3       :  max(cpu_time)    wall_clock(cpu1)
  | Time for this iteration                    :        0.520 s           0.516 s
  | Charge density update                      :        0.164 s           0.160 s
  | Density mixing                             :        0.004 s           0.005 s
  | Hartree multipole update                   :        0.012 s           0.011 s
  | Hartree multipole summation                :        0.172 s           0.168 s
  | Integration                                :        0.168 s           0.169 s
  | Solution of K.-S. eqns.                    :        0.004 s           0.002 s
  | Total energy evaluation                    :        0.000 s           0.001 s

  Partial memory accounting:
  | Current value for overall tracked memory usage on task 0  :           0.180 MB
  | Peak value for overall tracked memory usage on task 0     :           0.754 MB after allocating gradient_basis_wave
  | Largest tracked array allocation on task 0 so far         :           0.431 MB  when allocating gradient_basis_wave
  Note:  These values currently only include a subset of arrays which are explicitly tracked.
  The "true" memory usage will be greater.
------------------------------------------------------------

------------------------------------------------------------
          Begin self-consistency iteration #    4

  Date     :  20180215, Time     :  214241.581
------------------------------------------------------------
  Evaluating new KS density.
  Integration grid: deviation in total charge (<rho> - N_e) =  -1.421085E-14
  Pulay mixing of updated and previous charge densities.

  Evaluating partitioned Hartree potential by multipole expansion.
  | Analytical far-field extrapolation by fixed multipoles:
  | Hartree multipole sum: apparent total charge =  -0.365691E-03
  Summing up the Hartree potential.
  Time summed over all CPUs for potential: real work        1.276 s, elapsed        1.288 s
  | RMS charge density error from multipole expansion :   0.221060E-01

  Integrating Hamiltonian matrix: batch-based integration.
  Time summed over all CPUs for integration: real work        1.255 s, elapsed        1.284 s

  Updating Kohn-Sham eigenvalues, eigenvectors, occupation numbers, and Fermi level.
  Solving generalized eigenproblem
  Updating Kohn-Sham eigenvalues and eigenfunctions.
  Solving real generalised eigenvalue problem by standard LAPACK (fast)

  Obtaining occupation numbers and chemical potential using ELSI.
  | Chemical potential (Fermi level):    -4.37331434eV
  Highest occupied state (VBM) at     -6.19771574 eV
  | Occupation number:      2.00000000

  Lowest unoccupied state (CBM) at    -0.81863182 eV
  | Occupation number:      0.00000000

  Overall HOMO-LUMO gap:      5.37908392 eV.

  Total energy components:
  | Sum of eigenvalues            :         -89.68233609 Ha       -2440.38053032 eV
  | XC energy correction          :         -24.37095898 Ha        -663.16753533 eV
  | XC potential correction       :          31.30828586 Ha         851.94180446 eV
  | Free-atom electrostatic energy:         -68.01284706 Ha       -1850.72373242 eV
  | Hartree energy correction     :          -6.30256311 Ha        -171.50146810 eV
  | vdW energy correction         :           0.00000000 Ha           0.00000000 eV
  | Entropy correction            :           0.00000000 Ha           0.00000000 eV
  | ---------------------------
  | Total energy                  :        -157.06041939 Ha       -4273.83146172 eV
  | Total energy, T -> 0          :        -157.06041939 Ha       -4273.83146172 eV  <-- do not rely on this value for anything but (periodic) metals
  | Electronic free energy        :        -157.06041939 Ha       -4273.83146172 eV

  Derived energy quantities:
  | Kinetic energy                :         156.34822972 Ha        4254.45179487 eV
  | Electrostatic energy          :        -289.03769014 Ha       -7865.11572126 eV
  | Energy correction for multipole
  | error in Hartree potential    :           0.03400051 Ha           0.92520101 eV
  | Sum of eigenvalues per atom                           :        -203.36504419 eV
  | Total energy (T->0) per atom                          :        -356.15262181 eV  <-- do not rely on this value for anything but (periodic) metals
  | Electronic free energy per atom                       :        -356.15262181 eV

  Self-consistency convergence accuracy:
  | Change of charge density      :  0.1278E+00
  | Change of sum of eigenvalues  :  0.2556E+02 eV
  | Change of total energy        :  0.2999E+00 eV

  End self-consistency iteration #     4       :  max(cpu_time)    wall_clock(cpu1)
  | Time for this iteration                    :        0.524 s           0.522 s
  | Charge density update                      :        0.164 s           0.161 s
  | Density mixing                             :        0.008 s           0.006 s
  | Hartree multipole update                   :        0.016 s           0.015 s
  | Hartree multipole summation                :        0.172 s           0.169 s
  | Integration                                :        0.172 s           0.168 s
  | Solution of K.-S. eqns.                    :        0.004 s           0.002 s
  | Total energy evaluation                    :        0.000 s           0.001 s

  Partial memory accounting:
  | Current value for overall tracked memory usage on task 0  :           0.180 MB
  | Peak value for overall tracked memory usage on task 0     :           0.754 MB after allocating gradient_basis_wave
  | Largest tracked array allocation on task 0 so far         :           0.431 MB  when allocating gradient_basis_wave
  Note:  These values currently only include a subset of arrays which are explicitly tracked.
  The "true" memory usage will be greater.
------------------------------------------------------------

------------------------------------------------------------
          Begin self-consistency iteration #    5

  Date     :  20180215, Time     :  214242.104
------------------------------------------------------------
  Evaluating new KS density.
  Integration grid: deviation in total charge (<rho> - N_e) =  -1.421085E-14
  Pulay mixing of updated and previous charge densities.

  Evaluating partitioned Hartree potential by multipole expansion.
  | Analytical far-field extrapolation by fixed multipoles:
  | Hartree multipole sum: apparent total charge =  -0.391528E-03
  Summing up the Hartree potential.
  Time summed over all CPUs for potential: real work        1.270 s, elapsed        1.281 s
  | RMS charge density error from multipole expansion :   0.226305E-01

  Integrating Hamiltonian matrix: batch-based integration.
  Time summed over all CPUs for integration: real work        1.262 s, elapsed        1.299 s

  Updating Kohn-Sham eigenvalues, eigenvectors, occupation numbers, and Fermi level.
  Solving generalized eigenproblem
  Updating Kohn-Sham eigenvalues and eigenfunctions.
  Solving real generalised eigenvalue problem by standard LAPACK (fast)

  Obtaining occupation numbers and chemical potential using ELSI.
  | Chemical potential (Fermi level):    -4.19780748eV
  Highest occupied state (VBM) at     -5.95666089 eV
  | Occupation number:      2.00000000

  Lowest unoccupied state (CBM) at    -0.58084870 eV
  | Occupation number:      0.00000000

  Overall HOMO-LUMO gap:      5.37581218 eV.

  Total energy components:
  | Sum of eigenvalues            :         -89.44727933 Ha       -2433.98431031 eV
  | XC energy correction          :         -24.39093744 Ha        -663.71117700 eV
  | XC potential correction       :          31.33427914 Ha         852.64911780 eV
  | Free-atom electrostatic energy:         -68.01284706 Ha       -1850.72373242 eV
  | Hartree energy correction     :          -6.54257257 Ha        -178.03245794 eV
  | vdW energy correction         :           0.00000000 Ha           0.00000000 eV
  | Entropy correction            :           0.00000000 Ha           0.00000000 eV
  | ---------------------------
  | Total energy                  :        -157.05935727 Ha       -4273.80255987 eV
  | Total energy, T -> 0          :        -157.05935727 Ha       -4273.80255987 eV  <-- do not rely on this value for anything but (periodic) metals
  | Electronic free energy        :        -157.05935727 Ha       -4273.80255987 eV

  Derived energy quantities:
  | Kinetic energy                :         156.33218758 Ha        4254.01526595 eV
  | Electrostatic energy          :        -289.00060740 Ha       -7864.10664882 eV
  | Energy correction for multipole
  | error in Hartree potential    :           0.03349652 Ha           0.91148661 eV
  | Sum of eigenvalues per atom                           :        -202.83202586 eV
  | Total energy (T->0) per atom                          :        -356.15021332 eV  <-- do not rely on this value for anything but (periodic) metals
  | Electronic free energy per atom                       :        -356.15021332 eV

  Self-consistency convergence accuracy:
  | Change of charge density      :  0.3090E-01
  | Change of sum of eigenvalues  :  0.6396E+01 eV
  | Change of total energy        :  0.2890E-01 eV

  End self-consistency iteration #     5       :  max(cpu_time)    wall_clock(cpu1)
  | Time for this iteration                    :        0.524 s           0.521 s
  | Charge density update                      :        0.164 s           0.161 s
  | Density mixing                             :        0.008 s           0.008 s
  | Hartree multipole update                   :        0.012 s           0.010 s
  | Hartree multipole summation                :        0.168 s           0.168 s
  | Integration                                :        0.172 s           0.170 s
  | Solution of K.-S. eqns.                    :        0.004 s           0.002 s
  | Total energy evaluation                    :        0.000 s           0.001 s

  Partial memory accounting:
  | Current value for overall tracked memory usage on task 0  :           0.180 MB
  | Peak value for overall tracked memory usage on task 0     :           0.754 MB after allocating gradient_basis_wave
  | Largest tracked array allocation on task 0 so far         :           0.431 MB  when allocating gradient_basis_wave
  Note:  These values currently only include a subset of arrays which are explicitly tracked.
  The "true" memory usage will be greater.
------------------------------------------------------------

------------------------------------------------------------
          Begin self-consistency iteration #    6

  Date     :  20180215, Time     :  214242.626
------------------------------------------------------------
  Evaluating new KS density.
  Integration grid: deviation in total charge (<rho> - N_e) =   2.131628E-14
  Pulay mixing of updated and previous charge densities.

  Evaluating partitioned Hartree potential by multipole expansion.
  | Analytical far-field extrapolation by fixed multipoles:
  | Hartree multipole sum: apparent total charge =  -0.412431E-03
  Summing up the Hartree potential.
  Time summed over all CPUs for potential: real work        1.274 s, elapsed        1.290 s
  | RMS charge density error from multipole expansion :   0.229607E-01

  Integrating Hamiltonian matrix: batch-based integration.
  Time summed over all CPUs for integration: real work        1.253 s, elapsed        1.285 s

  Updating Kohn-Sham eigenvalues, eigenvectors, occupation numbers, and Fermi level.
  Solving generalized eigenproblem
  Updating Kohn-Sham eigenvalues and eigenfunctions.
  Solving real generalised eigenvalue problem by standard LAPACK (fast)

  Obtaining occupation numbers and chemical potential using ELSI.
  | Chemical potential (Fermi level):    -4.10434891eV
  Highest occupied state (VBM) at     -5.85753548 eV
  | Occupation number:      2.00000000

  Lowest unoccupied state (CBM) at    -0.48477200 eV
  | Occupation number:      0.00000000

  Overall HOMO-LUMO gap:      5.37276348 eV.

  Total energy components:
  | Sum of eigenvalues            :         -89.33686181 Ha       -2430.97969668 eV
  | XC energy correction          :         -24.40255308 Ha        -664.02725467 eV
  | XC potential correction       :          31.34935385 Ha         853.05932132 eV
  | Free-atom electrostatic energy:         -68.01284706 Ha       -1850.72373242 eV
  | Hartree energy correction     :          -6.65617944 Ha        -181.12385817 eV
  | vdW energy correction         :           0.00000000 Ha           0.00000000 eV
  | Entropy correction            :           0.00000000 Ha           0.00000000 eV
  | ---------------------------
  | Total energy                  :        -157.05908755 Ha       -4273.79522063 eV
  | Total energy, T -> 0          :        -157.05908755 Ha       -4273.79522063 eV  <-- do not rely on this value for anything but (periodic) metals
  | Electronic free energy        :        -157.05908755 Ha       -4273.79522063 eV

  Derived energy quantities:
  | Kinetic energy                :         156.28650496 Ha        4252.77217869 eV
  | Electrostatic energy          :        -288.94303943 Ha       -7862.54014465 eV
  | Energy correction for multipole
  | error in Hartree potential    :           0.03270170 Ha           0.88985840 eV
  | Sum of eigenvalues per atom                           :        -202.58164139 eV
  | Total energy (T->0) per atom                          :        -356.14960172 eV  <-- do not rely on this value for anything but (periodic) metals
  | Electronic free energy per atom                       :        -356.14960172 eV

  Self-consistency convergence accuracy:
  | Change of charge density      :  0.1639E-01
  | Change of sum of eigenvalues  :  0.3005E+01 eV
  | Change of total energy        :  0.7339E-02 eV

  End self-consistency iteration #     6       :  max(cpu_time)    wall_clock(cpu1)
  | Time for this iteration                    :        0.524 s           0.523 s
  | Charge density update                      :        0.164 s           0.162 s
  | Density mixing                             :        0.012 s           0.009 s
  | Hartree multipole update                   :        0.012 s           0.011 s
  | Hartree multipole summation                :        0.172 s           0.169 s
  | Integration                                :        0.168 s           0.168 s
  | Solution of K.-S. eqns.                    :        0.004 s           0.002 s
  | Total energy evaluation                    :        0.000 s           0.001 s

  Partial memory accounting:
  | Current value for overall tracked memory usage on task 0  :           0.180 MB
  | Peak value for overall tracked memory usage on task 0     :           0.754 MB after allocating gradient_basis_wave
  | Largest tracked array allocation on task 0 so far         :           0.431 MB  when allocating gradient_basis_wave
  Note:  These values currently only include a subset of arrays which are explicitly tracked.
  The "true" memory usage will be greater.
------------------------------------------------------------

------------------------------------------------------------
          Begin self-consistency iteration #    7

  Date     :  20180215, Time     :  214243.150
------------------------------------------------------------
  Evaluating new KS density.
  Integration grid: deviation in total charge (<rho> - N_e) =   2.842171E-14
  Pulay mixing of updated and previous charge densities.

  Evaluating partitioned Hartree potential by multipole expansion.
  | Analytical far-field extrapolation by fixed multipoles:
  | Hartree multipole sum: apparent total charge =  -0.416994E-03
  Summing up the Hartree potential.
  Time summed over all CPUs for potential: real work        1.275 s, elapsed        1.294 s
  | RMS charge density error from multipole expansion :   0.229436E-01

  Integrating Hamiltonian matrix: batch-based integration.
  Time summed over all CPUs for integration: real work        1.257 s, elapsed        1.281 s

  Updating Kohn-Sham eigenvalues, eigenvectors, occupation numbers, and Fermi level.
  Solving generalized eigenproblem
  Updating Kohn-Sham eigenvalues and eigenfunctions.
  Solving real generalised eigenvalue problem by standard LAPACK (fast)

  Obtaining occupation numbers and chemical potential using ELSI.
  | Chemical potential (Fermi level):    -4.08001591eV
  Highest occupied state (VBM) at     -5.82279478 eV
  | Occupation number:      2.00000000

  Lowest unoccupied state (CBM) at    -0.45087265 eV
  | Occupation number:      0.00000000

  Overall HOMO-LUMO gap:      5.37192214 eV.

  Total energy components:
  | Sum of eigenvalues            :         -89.30164626 Ha       -2430.02143296 eV
  | XC energy correction          :         -24.40483311 Ha        -664.08929745 eV
  | XC potential correction       :          31.35238565 Ha         853.14182101 eV
  | Free-atom electrostatic energy:         -68.01284706 Ha       -1850.72373242 eV
  | Hartree energy correction     :          -6.69209412 Ha        -182.10114610 eV
  | vdW energy correction         :           0.00000000 Ha           0.00000000 eV
  | Entropy correction            :           0.00000000 Ha           0.00000000 eV
  | ---------------------------
  | Total energy                  :        -157.05903490 Ha       -4273.79378793 eV
  | Total energy, T -> 0          :        -157.05903490 Ha       -4273.79378793 eV  <-- do not rely on this value for anything but (periodic) metals
  | Electronic free energy        :        -157.05903490 Ha       -4273.79378793 eV

  Derived energy quantities:
  | Kinetic energy                :         156.28612802 Ha        4252.76192169 eV
  | Electrostatic energy          :        -288.94032982 Ha       -7862.46641217 eV
  | Energy correction for multipole
  | error in Hartree potential    :           0.03240075 Ha           0.88166918 eV
  | Sum of eigenvalues per atom                           :        -202.50178608 eV
  | Total energy (T->0) per atom                          :        -356.14948233 eV  <-- do not rely on this value for anything but (periodic) metals
  | Electronic free energy per atom                       :        -356.14948233 eV

  Self-consistency convergence accuracy:
  | Change of charge density      :  0.6812E-02
  | Change of sum of eigenvalues  :  0.9583E+00 eV
  | Change of total energy        :  0.1433E-02 eV

  End self-consistency iteration #     7       :  max(cpu_time)    wall_clock(cpu1)
  | Time for this iteration                    :        0.524 s           0.524 s
  | Charge density update                      :        0.164 s           0.161 s
  | Density mixing                             :        0.012 s           0.011 s
  | Hartree multipole update                   :        0.012 s           0.011 s
  | Hartree multipole summation                :        0.172 s           0.170 s
  | Integration                                :        0.168 s           0.167 s
  | Solution of K.-S. eqns.                    :        0.004 s           0.003 s
  | Total energy evaluation                    :        0.000 s           0.001 s

  Partial memory accounting:
  | Current value for overall tracked memory usage on task 0  :           0.180 MB
  | Peak value for overall tracked memory usage on task 0     :           0.754 MB after allocating gradient_basis_wave
  | Largest tracked array allocation on task 0 so far         :           0.431 MB  when allocating gradient_basis_wave
  Note:  These values currently only include a subset of arrays which are explicitly tracked.
  The "true" memory usage will be greater.
------------------------------------------------------------

------------------------------------------------------------
          Begin self-consistency iteration #    8

  Date     :  20180215, Time     :  214243.675
------------------------------------------------------------
  Evaluating new KS density.
  Integration grid: deviation in total charge (<rho> - N_e) =   2.131628E-14
  Pulay mixing of updated and previous charge densities.

  Evaluating partitioned Hartree potential by multipole expansion.
  | Analytical far-field extrapolation by fixed multipoles:
  | Hartree multipole sum: apparent total charge =  -0.425941E-03
  Summing up the Hartree potential.
  Time summed over all CPUs for potential: real work        1.278 s, elapsed        1.296 s
  | RMS charge density error from multipole expansion :   0.229877E-01

  Integrating Hamiltonian matrix: batch-based integration.
  Time summed over all CPUs for integration: real work        1.252 s, elapsed        1.274 s

  Updating Kohn-Sham eigenvalues, eigenvectors, occupation numbers, and Fermi level.
  Solving generalized eigenproblem
  Updating Kohn-Sham eigenvalues and eigenfunctions.
  Solving real generalised eigenvalue problem by standard LAPACK (fast)

  Obtaining occupation numbers and chemical potential using ELSI.
  | Chemical potential (Fermi level):    -4.03087300eV
  Highest occupied state (VBM) at     -5.76054598 eV
  | Occupation number:      2.00000000

  Lowest unoccupied state (CBM) at    -0.39189192 eV
  | Occupation number:      0.00000000

  Overall HOMO-LUMO gap:      5.36865407 eV.

  Total energy components:
  | Sum of eigenvalues            :         -89.23527660 Ha       -2428.21542240 eV
  | XC energy correction          :         -24.41126710 Ha        -664.26437518 eV
  | XC potential correction       :          31.36080089 Ha         853.37081131 eV
  | Free-atom electrostatic energy:         -68.01284706 Ha       -1850.72373242 eV
  | Hartree energy correction     :          -6.76040419 Ha        -183.95995768 eV
  | vdW energy correction         :           0.00000000 Ha           0.00000000 eV
  | Entropy correction            :           0.00000000 Ha           0.00000000 eV
  | ---------------------------
  | Total energy                  :        -157.05899405 Ha       -4273.79267636 eV
  | Total energy, T -> 0          :        -157.05899405 Ha       -4273.79267636 eV  <-- do not rely on this value for anything but (periodic) metals
  | Electronic free energy        :        -157.05899405 Ha       -4273.79267636 eV

  Derived energy quantities:
  | Kinetic energy                :         156.29017228 Ha        4252.87197153 eV
  | Electrostatic energy          :        -288.93789924 Ha       -7862.40027272 eV
  | Energy correction for multipole
  | error in Hartree potential    :           0.03202288 Ha           0.87138687 eV
  | Sum of eigenvalues per atom                           :        -202.35128520 eV
  | Total energy (T->0) per atom                          :        -356.14938970 eV  <-- do not rely on this value for anything but (periodic) metals
  | Electronic free energy per atom                       :        -356.14938970 eV

  Self-consistency convergence accuracy:
  | Change of charge density      :  0.4855E-02
  | Change of sum of eigenvalues  :  0.1806E+01 eV
  | Change of total energy        :  0.1112E-02 eV

  End self-consistency iteration #     8       :  max(cpu_time)    wall_clock(cpu1)
  | Time for this iteration                    :        0.532 s           0.530 s
  | Charge density update                      :        0.168 s           0.167 s
  | Density mixing                             :        0.012 s           0.012 s
  | Hartree multipole update                   :        0.012 s           0.010 s
  | Hartree multipole summation                :        0.172 s           0.170 s
  | Integration                                :        0.168 s           0.167 s
  | Solution of K.-S. eqns.                    :        0.004 s           0.002 s
  | Total energy evaluation                    :        0.000 s           0.000 s

  Partial memory accounting:
  | Current value for overall tracked memory usage on task 0  :           0.180 MB
  | Peak value for overall tracked memory usage on task 0     :           0.754 MB after allocating gradient_basis_wave
  | Largest tracked array allocation on task 0 so far         :           0.431 MB  when allocating gradient_basis_wave
  Note:  These values currently only include a subset of arrays which are explicitly tracked.
  The "true" memory usage will be greater.
------------------------------------------------------------

------------------------------------------------------------
          Begin self-consistency iteration #    9

  Date     :  20180215, Time     :  214244.205
------------------------------------------------------------
  Evaluating new KS density.
  Integration grid: deviation in total charge (<rho> - N_e) =  -1.421085E-14
  Pulay mixing of updated and previous charge densities.

  Evaluating partitioned Hartree potential by multipole expansion.
  | Analytical far-field extrapolation by fixed multipoles:
  | Hartree multipole sum: apparent total charge =  -0.427637E-03
  Summing up the Hartree potential.
  Time summed over all CPUs for potential: real work        1.277 s, elapsed        1.293 s
  | RMS charge density error from multipole expansion :   0.229975E-01

  Integrating Hamiltonian matrix: batch-based integration.
  Time summed over all CPUs for integration: real work        1.259 s, elapsed        1.282 s

  Updating Kohn-Sham eigenvalues, eigenvectors, occupation numbers, and Fermi level.
  Solving generalized eigenproblem
  Updating Kohn-Sham eigenvalues and eigenfunctions.
  Solving real generalised eigenvalue problem by standard LAPACK (fast)

  Obtaining occupation numbers and chemical potential using ELSI.
  | Chemical potential (Fermi level):    -4.02090952eV
  Highest occupied state (VBM) at     -5.74849040 eV
  | Occupation number:      2.00000000

  Lowest unoccupied state (CBM) at    -0.38025763 eV
  | Occupation number:      0.00000000

  Overall HOMO-LUMO gap:      5.36823277 eV.

  Total energy components:
  | Sum of eigenvalues            :         -89.22136053 Ha       -2427.83674687 eV
  | XC energy correction          :         -24.41278659 Ha        -664.30572267 eV
  | XC potential correction       :          31.36277904 Ha         853.42463957 eV
  | Free-atom electrostatic energy:         -68.01284706 Ha       -1850.72373242 eV
  | Hartree energy correction     :          -6.77477876 Ha        -184.35110984 eV
  | vdW energy correction         :           0.00000000 Ha           0.00000000 eV
  | Entropy correction            :           0.00000000 Ha           0.00000000 eV
  | ---------------------------
  | Total energy                  :        -157.05899390 Ha       -4273.79267224 eV
  | Total energy, T -> 0          :        -157.05899390 Ha       -4273.79267224 eV  <-- do not rely on this value for anything but (periodic) metals
  | Electronic free energy        :        -157.05899390 Ha       -4273.79267224 eV

  Derived energy quantities:
  | Kinetic energy                :         156.29339260 Ha        4252.95960089 eV
  | Electrostatic energy          :        -288.93959991 Ha       -7862.44655046 eV
  | Energy correction for multipole
  | error in Hartree potential    :           0.03197636 Ha           0.87012097 eV
  | Sum of eigenvalues per atom                           :        -202.31972891 eV
  | Total energy (T->0) per atom                          :        -356.14938935 eV  <-- do not rely on this value for anything but (periodic) metals
  | Electronic free energy per atom                       :        -356.14938935 eV

  Self-consistency convergence accuracy:
  | Change of charge density      :  0.7711E-03
  | Change of sum of eigenvalues  :  0.3787E+00 eV
  | Change of total energy        :  0.4126E-05 eV

  End self-consistency iteration #     9       :  max(cpu_time)    wall_clock(cpu1)
  | Time for this iteration                    :        0.528 s           0.526 s
  | Charge density update                      :        0.164 s           0.161 s
  | Density mixing                             :        0.016 s           0.014 s
  | Hartree multipole update                   :        0.012 s           0.010 s
  | Hartree multipole summation                :        0.172 s           0.170 s
  | Integration                                :        0.168 s           0.168 s
  | Solution of K.-S. eqns.                    :        0.004 s           0.002 s
  | Total energy evaluation                    :        0.004 s           0.001 s

  Partial memory accounting:
  | Current value for overall tracked memory usage on task 0  :           0.180 MB
  | Peak value for overall tracked memory usage on task 0     :           0.754 MB after allocating gradient_basis_wave
  | Largest tracked array allocation on task 0 so far         :           0.431 MB  when allocating gradient_basis_wave
  Note:  These values currently only include a subset of arrays which are explicitly tracked.
  The "true" memory usage will be greater.
------------------------------------------------------------

------------------------------------------------------------
          Begin self-consistency iteration #   10

  Date     :  20180215, Time     :  214244.733
------------------------------------------------------------
  Evaluating new KS density.
  Integration grid: deviation in total charge (<rho> - N_e) =   1.421085E-14
  Pulay mixing of updated and previous charge densities.

  Evaluating partitioned Hartree potential by multipole expansion.
  | Analytical far-field extrapolation by fixed multipoles:
  | Hartree multipole sum: apparent total charge =  -0.427481E-03
  Summing up the Hartree potential.
  Time summed over all CPUs for potential: real work        1.279 s, elapsed        1.297 s
  | RMS charge density error from multipole expansion :   0.229971E-01

  Integrating Hamiltonian matrix: batch-based integration.
  Time summed over all CPUs for integration: real work        1.296 s, elapsed        1.634 s
[...]
  |   Hirshfeld dipole moment :      0.08785159
  |   Hirshfeld second moments:      0.10120428      -0.00371648       0.00806100
  |                                 -0.00371648       0.10964685       0.00173020
  |                                  0.00806100       0.00173020       0.09102521
  ----------------------------------------------------------------------
  | Atom     8: H
  |   Hirshfeld charge        :      0.03771381
  |   Free atom volume        :      9.95071624
  |   Hirshfeld volume        :      6.47826804
  |   Hirshfeld dipole vector :     -0.03060198       0.08302990       0.00101164
  |   Hirshfeld dipole moment :      0.08849559
  |   Hirshfeld second moments:      0.09819988       0.00391038       0.00026853
  |                                  0.00391038       0.08706511      -0.00060030
  |                                  0.00026853      -0.00060030       0.09920636
  ----------------------------------------------------------------------
  | Atom     9: H
  |   Hirshfeld charge        :      0.03771381
  |   Free atom volume        :      9.95071624
  |   Hirshfeld volume        :      6.47826794
  |   Hirshfeld dipole vector :      0.03060198      -0.08302990       0.00101162
  |   Hirshfeld dipole moment :      0.08849559
  |   Hirshfeld second moments:      0.09819989       0.00391038      -0.00026853
  |                                  0.00391038       0.08706511       0.00060030
  |                                 -0.00026853       0.00060030       0.09920637
  ----------------------------------------------------------------------
  | Atom    10: H
  |   Hirshfeld charge        :      0.04190116
  |   Free atom volume        :      9.95071624
  |   Hirshfeld volume        :      6.28706991
  |   Hirshfeld dipole vector :     -0.02511878       0.08108935      -0.02321528
  |   Hirshfeld dipole moment :      0.08800787
  |   Hirshfeld second moments:      0.09973691       0.00319649      -0.00249553
  |                                  0.00319649       0.08847970       0.00449631
  |                                 -0.00249553       0.00449631       0.10703884
  ----------------------------------------------------------------------
  | Atom    11: H
  |   Hirshfeld charge        :      0.04222294
  |   Free atom volume        :      9.95071624
  |   Hirshfeld volume        :      6.16518356
  |   Hirshfeld dipole vector :      0.03814539       0.00842640       0.07868817
  |   Hirshfeld dipole moment :      0.08785159
  |   Hirshfeld second moments:      0.10120427      -0.00371647      -0.00806101
  |                                 -0.00371647       0.10964685      -0.00173018
  |                                 -0.00806101      -0.00173018       0.09102522
  ----------------------------------------------------------------------
  | Atom    12: H
  |   Hirshfeld charge        :      0.04171900
  |   Free atom volume        :      9.95071624
  |   Hirshfeld volume        :      6.11503235
  |   Hirshfeld dipole vector :      0.06639862      -0.02249256      -0.05412236
  |   Hirshfeld dipole moment :      0.08856592
  |   Hirshfeld second moments:      0.09432262       0.00189793       0.00982516
  |                                  0.00189793       0.11006031      -0.00381456
  |                                  0.00982516      -0.00381456       0.10099344
  ----------------------------------------------------------------------


  Total energy components:
  | Sum of eigenvalues            :         -89.22297628 Ha       -2427.88071373 eV
  | XC energy correction          :         -24.41269420 Ha        -664.30320865 eV
  | XC potential correction       :          31.36265548 Ha         853.42127720 eV
  | Free-atom electrostatic energy:         -68.01284706 Ha       -1850.72373242 eV
  | Hartree energy correction     :          -6.77313215 Ha        -184.30630312 eV
  | vdW energy correction         :          -0.00203979 Ha          -0.05550560 eV
  | Entropy correction            :           0.00000000 Ha           0.00000000 eV
  | ---------------------------
  | Total energy                  :        -157.06103401 Ha       -4273.84818633 eV
  | Total energy, T -> 0          :        -157.06103401 Ha       -4273.84818633 eV  <-- do not rely on this value for anything but (periodic) metals
  | Electronic free energy        :        -157.06103401 Ha       -4273.84818633 eV

  Derived energy quantities:
  | Kinetic energy                :         156.29329523 Ha        4252.95695136 eV
  | Electrostatic energy          :        -288.93959524 Ha       -7862.44642344 eV
  | Energy correction for multipole
  | error in Hartree potential    :           0.03198514 Ha           0.87035988 eV
  | Sum of eigenvalues per atom                           :        -202.32339281 eV
  | Total energy (T->0) per atom                          :        -356.15401553 eV  <-- do not rely on this value for anything but (periodic) metals
  | Electronic free energy per atom                       :        -356.15401553 eV

  atomic forces [eV/Ang]:
  -----------------------
  atom #    1
   Hellmann-Feynman              :  0.254549E+00  0.189738E+00 -0.192005E-01
   Ionic forces                  :  0.000000E+00  0.000000E+00  0.000000E+00
   Multipole                     : -0.505103E+00 -0.445904E+00  0.430389E-02
   Pulay + GGA                   :  0.251433E+00  0.252293E+00  0.158172E-01
   Van der Waals                 : -0.115385E-02  0.353204E-02  0.932284E-05
   ----------------------------------------------------------------
   Total forces(   1)            : -0.275578E-03 -0.341420E-03  0.929980E-03
  atom #    2
   Hellmann-Feynman              :  0.217445E+01  0.153081E+00  0.759352E-01
   Ionic forces                  :  0.000000E+00  0.000000E+00  0.000000E+00
   Multipole                     : -0.157256E+00 -0.400732E-01 -0.818162E-01
   Pulay + GGA                   : -0.201707E+01 -0.111114E+00  0.994119E-03
   Van der Waals                 : -0.721677E-03 -0.192365E-02 -0.175070E-04
   ----------------------------------------------------------------
   Total forces(   2)            : -0.603628E-03 -0.306091E-04 -0.490445E-02
  atom #    3
   Hellmann-Feynman              : -0.217445E+01 -0.153081E+00  0.759359E-01
   Ionic forces                  :  0.000000E+00  0.000000E+00  0.000000E+00
   Multipole                     :  0.157256E+00  0.400733E-01 -0.818163E-01
   Pulay + GGA                   :  0.201707E+01  0.111114E+00  0.993519E-03
   Van der Waals                 :  0.721685E-03  0.192365E-02 -0.175075E-04
   ----------------------------------------------------------------
   Total forces(   3)            :  0.603629E-03  0.305997E-04 -0.490448E-02
  atom #    4
   Hellmann-Feynman              : -0.254549E+00 -0.189738E+00 -0.192004E-01
   Ionic forces                  :  0.000000E+00  0.000000E+00  0.000000E+00
   Multipole                     :  0.505103E+00  0.445904E+00  0.430378E-02
   Pulay + GGA                   : -0.251433E+00 -0.252293E+00  0.158173E-01
   Van der Waals                 :  0.115385E-02 -0.353204E-02  0.932200E-05
   ----------------------------------------------------------------
   Total forces(   4)            :  0.275578E-03  0.341417E-03  0.929972E-03
  atom #    5
   Hellmann-Feynman              :  0.769196E-01  0.166656E-01  0.473615E-01
   Ionic forces                  :  0.000000E+00  0.000000E+00  0.000000E+00
   Multipole                     : -0.208072E-01 -0.126497E+00 -0.348769E-01
   Pulay + GGA                   : -0.428483E-01  0.102386E+00  0.220646E-01
   Van der Waals                 : -0.738808E-02 -0.222400E-02 -0.106429E-02
   ----------------------------------------------------------------
   Total forces(   5)            :  0.587592E-02 -0.966924E-02  0.334849E-01
  atom #    6
   Hellmann-Feynman              :  0.341801E-01  0.386725E-01 -0.182197E-01
   Ionic forces                  :  0.000000E+00  0.000000E+00  0.000000E+00
   Multipole                     : -0.106824E+00 -0.223896E-01 -0.603088E-01
   Pulay + GGA                   :  0.814394E-01 -0.300071E-01  0.584276E-01
   Van der Waals                 :  0.168685E-02 -0.294936E-02 -0.835191E-03
   ----------------------------------------------------------------
   Total forces(   6)            :  0.104823E-01 -0.166736E-01 -0.209361E-01
  atom #    7
   Hellmann-Feynman              : -0.176307E-01  0.556528E-01  0.707397E-02
   Ionic forces                  :  0.000000E+00  0.000000E+00  0.000000E+00
   Multipole                     : -0.626044E-01 -0.395349E-01  0.775503E-01
   Pulay + GGA                   :  0.599070E-01  0.120577E-01 -0.875451E-01
   Van der Waals                 :  0.185664E-02 -0.160972E-02  0.666435E-03
   ----------------------------------------------------------------
   Total forces(   7)            : -0.184715E-01  0.265658E-01 -0.225432E-02
  atom #    8
   Hellmann-Feynman              : -0.326935E-01 -0.464817E-01 -0.221837E-02
   Ionic forces                  :  0.000000E+00  0.000000E+00  0.000000E+00
   Multipole                     :  0.504184E-02  0.151914E+00 -0.369805E-02
   Pulay + GGA                   :  0.297094E-01 -0.106569E+00 -0.147671E-02
   Van der Waals                 : -0.293111E-02  0.891060E-03  0.124123E-02
   ----------------------------------------------------------------
   Total forces(   8)            : -0.873421E-03 -0.245773E-03 -0.615190E-02
  atom #    9
   Hellmann-Feynman              :  0.326935E-01  0.464817E-01 -0.221851E-02
   Ionic forces                  :  0.000000E+00  0.000000E+00  0.000000E+00
   Multipole                     : -0.504182E-02 -0.151914E+00 -0.369805E-02
   Pulay + GGA                   : -0.297094E-01  0.106569E+00 -0.147668E-02
   Van der Waals                 :  0.293111E-02 -0.891067E-03  0.124123E-02
   ----------------------------------------------------------------
   Total forces(   9)            :  0.873422E-03  0.245764E-03 -0.615201E-02
  atom #   10
   Hellmann-Feynman              : -0.769195E-01 -0.166657E-01  0.473615E-01
   Ionic forces                  :  0.000000E+00  0.000000E+00  0.000000E+00
   Multipole                     :  0.208072E-01  0.126497E+00 -0.348768E-01
   Pulay + GGA                   :  0.428484E-01 -0.102386E+00  0.220645E-01
   Van der Waals                 :  0.738808E-02  0.222400E-02 -0.106429E-02
   ----------------------------------------------------------------
   Total forces(  10)            : -0.587587E-02  0.966920E-02  0.334849E-01
  atom #   11
   Hellmann-Feynman              :  0.176306E-01 -0.556528E-01  0.707391E-02
   Ionic forces                  :  0.000000E+00  0.000000E+00  0.000000E+00
   Multipole                     :  0.626045E-01  0.395349E-01  0.775503E-01
   Pulay + GGA                   : -0.599071E-01 -0.120577E-01 -0.875450E-01
   Van der Waals                 : -0.185664E-02  0.160972E-02  0.666437E-03
   ----------------------------------------------------------------
   Total forces(  11)            :  0.184714E-01 -0.265658E-01 -0.225435E-02
  atom #   12
   Hellmann-Feynman              : -0.341800E-01 -0.386724E-01 -0.182197E-01
   Ionic forces                  :  0.000000E+00  0.000000E+00  0.000000E+00
   Multipole                     :  0.106824E+00  0.223897E-01 -0.603088E-01
   Pulay + GGA                   : -0.814394E-01  0.300070E-01  0.584276E-01
   Van der Waals                 : -0.168685E-02  0.294936E-02 -0.835191E-03
   ----------------------------------------------------------------
   Total forces(  12)            : -0.104823E-01  0.166736E-01 -0.209361E-01

  Timings for VdW correction (Tkatchenko-Scheffler 2009 or later):
  | CPU time:        0.040 s, Wall clock time:        0.044 s.
  Removing unitary transformations (pure translations, rotations) from forces on atoms.
  Atomic forces before filtering:
  | Net force on center of mass :  -0.344653E-08 -0.182999E-07  0.336050E-03 eV/A
  | Net torque on center of mass:   0.688880E-09  0.964788E-08 -0.270866E-02 eV
  Atomic forces after filtering:
  | Net force on center of mass :   0.000000E+00  0.836279E-17  0.278760E-17 eV/A
  | Net torque on center of mass:   0.177016E-16 -0.472042E-16  0.368783E-17 eV

  Energy and forces in a compact form:
  | Total energy uncorrected      :         -0.427384818633088E+04 eV
  | Total energy corrected        :         -0.427384818633088E+04 eV  <-- do not rely on this value for anything but (periodic) metals
  | Electronic free energy        :         -0.427384818633088E+04 eV
  Total atomic forces (unitary forces cleaned) [eV/Ang]:
  |   1         -0.227946187214193E-03         -0.437107827703115E-03          0.901975629153825E-03
  |   2         -0.611295750270258E-03         -0.662481192734521E-04         -0.493245045260151E-02
  |   3          0.611297380765469E-03          0.662417759372362E-04         -0.493248124182920E-02
  |   4          0.227946701947411E-03          0.437108157312082E-03          0.901968329373668E-03
  |   5          0.597769052732724E-02         -0.974511935641553E-02          0.334569066525238E-01
  |   6          0.105145495461228E-01         -0.168133695947890E-01         -0.209641277560714E-01
  |   7         -0.184189438286365E-01          0.264453868797605E-01         -0.228232298315248E-02
  |   8         -0.938422353747310E-03         -0.298106619891629E-03         -0.617990618724969E-02
  |   9          0.938424264604052E-03          0.298099870460666E-03         -0.618001047957271E-02
  |  10         -0.597764620217405E-02          0.974508015486042E-02          0.334568623675134E-01
  |  11          0.184188829315895E-01         -0.264453461214711E-01         -0.228235611219248E-02
  |  12         -0.105145370303142E-01          0.168133808012129E-01         -0.209640577658953E-01

  ------------------------------------ 
  Start decomposition of the XC Energy 
  ------------------------------------ 
  X and C from original XC functional choice 
  Hartree-Fock Energy :          0.000000000 Ha              0.000000000 eV
  X Energy            :        -23.396788707 Ha           -636.659013558 eV
  C Energy            :         -1.015905497 Ha            -27.644195096 eV
  Total XC Energy     :        -24.412694204 Ha           -664.303208654 eV
  ------------------------------------ 
  LDA X and C from self-consistent density 
  X Energy LDA        :        -21.149619492 Ha           -575.510428021 eV
  C Energy LDA        :         -1.974391406 Ha            -53.725923689 eV
  ------------------------------------ 
  End decomposition of the XC Energy 
  ------------------------------------ 

------------------------------------------------------------

------------------------------------------------------------------------------
  Final output of selected total energy values:

  The following output summarizes some interesting total energy values
  at the end of a run (AFTER all relaxation, molecular dynamics, etc.).

  | Total energy of the DFT / Hartree-Fock s.c.f. calculation      :          -4273.848186331 eV
  | Final zero-broadening corrected energy (caution - metals only) :          -4273.848186331 eV
  | For reference only, the value of 1 Hartree used in FHI-aims is :             27.211384500 eV

  Before relying on these values, please be sure to understand exactly which
  total energy value is referred to by a given number. Different objects may
  all carry the same name 'total energy'. Definitions:

  Total energy of the DFT / Hartree-Fock s.c.f. calculation:
  | Note that this energy does not include ANY quantities calculated after the
  | s.c.f. cycle, in particular not ANY RPA, MP2, etc. many-body perturbation terms.

  Final zero-broadening corrected energy:
  | For metallic systems only, a broadening of the occupation numbers at the Fermi
  | level can be extrapolated back to zero broadening by an electron-gas inspired
  | formula. For all systems that are not real metals, this value can be
  | meaningless and should be avoided.

------------------------------------------------------------------------------
  Methods described in the following list of references were used in this FHI-aims run.
  If you publish the results, please make sure to cite these reference if they apply.
  FHI-aims is an academic code, and for our developers (often, Ph.D. students
  and postdocs), scientific credit in the community is essential.
  Thank you for helping us!

  For any use of FHI-aims, please cite:

    Volker Blum, Ralf Gehrke, Felix Hanke, Paula Havu, Ville Havu,
    Xinguo Ren, Karsten Reuter, and Matthias Scheffler
    'Ab initio molecular simulations with numeric atom-centered orbitals'
    Computer Physics Communications 180, 2175-2196 (2009)
    http://dx.doi.org/10.1016/j.cpc.2009.06.022


  For the real-space grid partitioning and parallelization used in this calculation, please cite:

    Ville Havu, Volker Blum, Paula Havu, and Matthias Scheffler,
    'Efficient O(N) integration for all-electron electronic structure calculation'
    'using numerically tabulated basis functions'
    Journal of Computational Physics 228, 8367-8379 (2009).
    http://dx.doi.org/10.1016/j.jcp.2009.08.008

  Of course, there are many other important community references, e.g., those cited in the
  above references. Our list is limited to references that describe implementations in the
  FHI-aims code. The reason is purely practical (length of this list) - please credit others as well.

------------------------------------------------------------
          Leaving FHI-aims.
          Date     :  20180215, Time     :  214248.437

          Computational steps:
          | Number of self-consistency cycles          :           14
          | Number of SCF (re)initializations          :            1

          Detailed time accounting                     :  max(cpu_time)    wall_clock(cpu1)
          | Total time                                 :        8.964 s           8.973 s
          | Preparation time                           :        0.128 s           0.128 s
          | Boundary condition initalization           :        0.000 s           0.000 s
          | Grid partitioning                          :        0.060 s           0.060 s
          | Preloading free-atom quantities on grid    :        0.004 s           0.003 s
          | Free-atom superposition energy             :        0.024 s           0.022 s
          | Total time for integrations                :        2.668 s           2.648 s
          | Total time for solution of K.-S. equations :        0.068 s           0.042 s
          | Total time for density & force components  :        2.784 s           2.753 s
          | Total time for mixing                      :        0.188 s           0.170 s
          | Total time for Hartree multipole update    :        0.172 s           0.149 s
          | Total time for Hartree multipole sum       :        2.828 s           2.799 s
          | Total time for total energy evaluation     :        0.012 s           0.013 s
          | Total time for vdW correction              :        0.040 s           0.044 s

          Partial memory accounting:
          | Residual value for overall tracked memory usage across tasks :           0.000 MB (should be 0.000 MB)
          | Peak values for overall tracked memory usage (after allocating hessian_basis_wave):
          |   Minimum:        1.760 MB (on task 1)
          |   Maximum:        1.760 MB (on task 1)
          |   Average:        1.760 MB
          | Largest tracked array allocation (hessian_basis_wave):
          |   Minimum:        0.862 MB (on task 1)
          |   Maximum:        0.862 MB (on task 1)
          |   Average:        0.862 MB
          Note:  These values currently only include a subset of arrays which are explicitly tracked.
          The "true" memory usage will be greater.

          Have a nice day.
------------------------------------------------------------
