  MPI-parallelism will be employed.
------------------------------------------------------------
          Invoking FHI-aims ...

          When using FHI-aims, please cite the following reference:

          Volker Blum, Ralf Gehrke, Felix Hanke, Paula Havu,
          Ville Havu, Xinguo Ren, Karsten Reuter, and Matthias Scheffler,
          'Ab Initio Molecular Simulations with Numeric Atom-Centered Orbitals',
          Computer Physics Communications 180, 2175-2196 (2009)

          For any questions about FHI-aims, please visit the aimsclub website
          with its forums and wiki. Contributions to both the forums and the
          wiki are warmly encouraged - they are for you, and everyone is welcome there.

------------------------------------------------------------



  Date     :  20190817, Time     :  153050.058
  Time zero on CPU 1             :   0.560920000000000E-01  s.
  Internal wall clock time zero  :           335287850.058  s.

  FHI-aims created a unique identifier for this run for later identification
  aims_uuid : C0305FE7-B753-43B1-A4EA-080C6E295687

  Build configuration of the current instance of FHI-aims
  -------------------------------------------------------
  FHI-aims version      : 190813
  Commit number         : 3da7baeb3
  CMake host system     : Linux-4.4.180-94.97-default
  CMake version         : 3.5.2
  Fortran compiler      : /mpcdf/soft/SLE_12_SP3/packages/x86_64/intel_parallel_studio/2018.4/compilers_and_libraries_2018.5.274/linux/mpi/bin64/mpiifort (Intel) version 18.0.5.20180823
  Fortran compiler flags: -O3 -ip -fp-model precise
  C compiler            : /mpcdf/soft/SLE_12_SP3/packages/skylake/intel/18.0.5/bin/icc (Intel) version 18.0.5.20180823
  C compiler flags      : -O3 -ip -fp-model precise
  Architecture          :
  Using MPI
  Using Scalapack
  Using C files
  Using SPGlib
  Using i-PI
  Linking against: /mpcdf/soft/SLE_12_SP3/packages/x86_64/anaconda/3.5.1.0/lib/libmkl_intel_lp64.so
                   /mpcdf/soft/SLE_12_SP3/packages/x86_64/anaconda/3.5.1.0/lib/libmkl_sequential.so
                   /mpcdf/soft/SLE_12_SP3/packages/x86_64/anaconda/3.5.1.0/lib/libmkl_core.so
                   /mpcdf/soft/SLE_12_SP3/packages/x86_64/anaconda/3.5.1.0/lib/libmkl_blacs_intelmpi_lp64.so
                   /mpcdf/soft/SLE_12_SP3/packages/x86_64/anaconda/3.5.1.0/lib/libmkl_scalapack_lp64.so

  Using        8 parallel tasks.
  Task        0 on host co1631 reporting.
  Task        1 on host co1631 reporting.
  Task        2 on host co1631 reporting.
  Task        3 on host co1631 reporting.
  Task        4 on host co1631 reporting.
  Task        5 on host co1631 reporting.
  Task        6 on host co1631 reporting.
  Task        7 on host co1631 reporting.

  Performing system and environment tests:
  | Environment variable OMP_NUM_THREADS correctly set to 1.
  | Maximum stacksize for task 0: unlimited
  | Maximum stacksize for task 1: unlimited
  | Maximum stacksize for task 2: unlimited
  | Maximum stacksize for task 3: unlimited
  | Maximum stacksize for task 4: unlimited
  | Maximum stacksize for task 5: unlimited
  | Maximum stacksize for task 6: unlimited
  | Maximum stacksize for task 7: unlimited
  | Current stacksize for task 0: unlimited
  | Current stacksize for task 1: unlimited
  | Current stacksize for task 2: unlimited
  | Current stacksize for task 3: unlimited
  | Current stacksize for task 4: unlimited
  | Current stacksize for task 5: unlimited
  | Current stacksize for task 6: unlimited
  | Current stacksize for task 7: unlimited
  | Checking for scalapack...
  | Testing pdtran()...
  | All pdtran() tests passed.

  Obtaining array dimensions for all initial allocations:
  
  -----------------------------------------------------------------------
  Parsing control.in (first pass over file, find array dimensions only).
  The contents of control.in will be repeated verbatim below
  unless switched off by setting 'verbatim_writeout .false.' .
  in the first line of control.in .
  -----------------------------------------------------------------------
  
  #########################################################################################
  #
  #  Volker Blum, FHI 2009 : Test run input file control.in for simple H2O
  #
  #########################################################################################
  #
  #  Physical model
  #
    xc                 pz-lda
    spin               none
    relativistic       none
    charge             0.
  #
  #  SCF convergence
  #
    occupation_type    gaussian 0.01
    mixer              pulay
      n_max_pulay        10
      charge_mix_param   0.5
    sc_accuracy_rho    1E-4
    sc_accuracy_eev    1E-2
    sc_accuracy_etot   1E-6
    sc_accuracy_forces 1E-4
    sc_iter_limit      100
  
    force_new_functional  .true.
  #  partition_type  rho_r2
  
     DFPT vibration
  #  DFPT vibration_with_moving_grid_effect
  #  DFPT vibration_without_moving_grid_effect
  #
  #  Relaxation
  #
  #  relax_geometry   trm 1.e-3
  #
  
  ################################################################################
  #
  #  FHI-aims code project
  # Volker Blum, Fritz Haber Institute Berlin, 2009
  #
  #  Suggested "tight" defaults for H atom (to be pasted into control.in file)
  #
  ################################################################################
    species        H
  #     global species definitions
      nucleus             1
      mass                1.00794
  #
      l_hartree           6
  #
      cut_pot             4.0  2.0  1.0
      basis_dep_cutoff    1e-4
  #
      radial_base         24 7.0
      radial_multiplier   2
      angular_grids       specified
        division   0.1930   50
        division   0.3175  110
        division   0.4293  194
        division   0.5066  302
        division   0.5626  434
  #      division   0.5922  590
  #      division   0.6227  974
  #      division   0.6868 1202
  #      outer_grid  770
        outer_grid  434
  ################################################################################
  #
  #  Definition of "minimal" basis
  #
  ################################################################################
  #     valence basis states
      valence      1  s   1.
  #     ion occupancy
      ion_occ      1  s   0.5
  ################################################################################
  #
  #  Suggested additional basis functions. For production calculations,
  #  uncomment them one after another (the most important basis functions are
  #  listed first).
  #
  #  Basis constructed for dimers: 0.5 A, 0.7 A, 1.0 A, 1.5 A, 2.5 A
  #
  ################################################################################
  #  "First tier" - improvements: -1014.90 meV to -62.69 meV
       hydro 2 s 2.1
       hydro 2 p 3.5
  #  "Second tier" - improvements: -12.89 meV to -1.83 meV
  #     hydro 1 s 0.85
  #     hydro 2 p 3.7
  #     hydro 2 s 1.2
  #     hydro 3 d 7
  #  "Third tier" - improvements: -0.25 meV to -0.12 meV
  #     hydro 4 f 11.2
  #     hydro 3 p 4.8
  #     hydro 4 d 9
  #     hydro 3 s 3.2
  
  -----------------------------------------------------------------------
  Completed first pass over input file control.in .
  -----------------------------------------------------------------------
  
  
  -----------------------------------------------------------------------
  Parsing geometry.in (first pass over file, find array dimensions only).
  The contents of geometry.in will be repeated verbatim below
  unless switched off by setting 'verbatim_writeout .false.' .
  in the first line of geometry.in .
  -----------------------------------------------------------------------
  
  atom    0.3700000   0.0    0.00000000    H
  atom   -0.370000    0.0    0.00000000    H
  
  -----------------------------------------------------------------------
  Completed first pass over input file geometry.in .
  -----------------------------------------------------------------------
  

  Basic array size parameters:
  | Number of species                 :        1
  | Number of atoms                   :        2
  | Max. basis fn. angular momentum   :        1
  | Max. atomic/ionic basis occupied n:        1
  | Max. number of basis fn. types    :        2
  | Max. radial fns per species/type  :        2
  | Max. logarithmic grid size        :     1131
  | Max. radial integration grid size :       49
  | Max. angular integration grid size:      434
  | Max. angular grid division number :        8
  | Radial grid for Hartree potential :     1131
  | Number of spin channels           :        1

------------------------------------------------------------
          Reading file control.in.
------------------------------------------------------------
  XC: Using Perdew-Zunger parametrisation of Ceperley-Alder LDA.
  Spin treatment: No spin polarisation.
  Non-relativistic treatment of kinetic energy.
  Charge =   0.000000E+00: Neutral system requested explicitly.
  Occupation type: Gaussian broadening, width =   0.100000E-01 eV.
  Using pulay charge density mixing.
  Pulay mixing - number of memorized iterations:   10
  Charge density mixing - mixing parameter:     0.5000
  Convergence accuracy of self-consistent charge density:  0.1000E-03
  Convergence accuracy of sum of eigenvalues:  0.1000E-01
  Convergence accuracy of total energy:  0.1000E-05
  Convergence accuracy of forces:  0.1000E-03
  Maximum number of s.-c. iterations  :   100
  Using neutralized energy functional.
  DFPT calculation will begin  after the DFT/HF calculation.
 
  Reading configuration options for species H                   .
  | Found nuclear charge :   1.0000
  | Found atomic mass :    1.00794000000000      amu
  | Found l_max for Hartree potential  :   6
  | Found cutoff potl. onset [A], width [A], scale factor :    4.00000    2.00000    1.00000
  | Threshold for basis-dependent cutoff potential is   0.100000E-03
  | Found data for basic radial integration grid :    24 points, outermost radius =    7.000 A
  | Found multiplier for basic radial grid :   2
  | Found angular grid specification: user-specified.
  | Specified grid contains     6 separate shells.
  | Check grid settings after all constraints further below.
  | Found free-atom valence shell :  1 s   1.000
  | No ionic wave fns used. Skipping ion_occ.
  | Found hydrogenic basis function :  2 s   2.100
  | Found hydrogenic basis function :  2 p   3.500
  Species H                   : Missing cutoff potential type.
  Defaulting to exp(1/x)/(1-x)^2 type cutoff potential.
  Species H : No 'logarithmic' tag. Using default grid for free atom:
  | Default logarithmic grid data [bohr] : 0.1000E-03 0.1000E+03 0.1012E+01
  Species H : On-site basis accuracy parameter (for Gram-Schmidt orthonormalisation) not specified.
  Using default value basis_acc =  0.1000000E-03.
  Species H                   : Using default innermost maximum threshold i_radial=  2 for radial functions.
  Species H                   : Default cutoff onset for free atom density etc. : 0.40000000E+01 AA.
  Species H                   : Basic radial grid will be enhanced according to radial_multiplier =   2, to contain    49 grid points.
 
  Finished reading input file 'control.in'. Consistency checks are next.
 
  MPI_IN_PLACE appears to work with this MPI implementation.
  | Keeping use_mpi_in_place .true. (see manual).
  Target number of points in a grid batch is not set. Defaulting to  100
  Method for grid partitioning is not set. Defaulting to parallel hash+maxmin partitioning.
  Batch size limit is not set. Defaulting to    200
  By default, will store active basis functions for each batch.
  If in need of memory, prune_basis_once .false. can be used to disable this option.
  communication_type for Hartree potential was not specified.
  Defaulting to calc_hartree .
  Pulay mixer: Number of initial linear mixing iterations not set.
  Defaulting to    0 iterations.
  Work space size for distributed Hartree potential not set.
  Defaulting to   0.200000E+03 MB.
  Algorithm-dependent basis array size parameters:
  | n_max_pulay                         :       10
  Presetting      1001 iterations before the initial mixing cycle
  is restarted anyway using the sc_init_iter criterion / keyword.
  Presetting a factor      1.000 between actual scf density residual
  and density convergence criterion sc_accuracy_rho below which sc_init_iter
  takes no effect.
  Geometry relaxation not requested: no relaxation will be performed.
  Handling of forces: Unphysical translation and rotation will be removed from forces.
  No accuracy limit for integral partition fn. given. Defaulting to  0.1000E-14.
  No threshold value for u(r) in integrations given. Defaulting to  0.1000E-05.
  No accuracy for occupation numbers given. Defaulting to  0.1000E-12.
  No threshold value for occupation numbers given. Defaulting to  0.0000E+00.
  No accuracy for fermi level given. Defaulting to  0.1000E-19.
  Maximum # of iterations to find E_F not set. Defaulting to  200.
  Preferred method for the eigenvalue solver ('KS_method') not specified in 'control.in'.
  Calling BLACS routine to test compilation state
  Since ScaLAPACK support is enabled, defaulting to ELPA (via ELSI).
  Will not use alltoall communication since running on < 1024 CPUs.
  Threshold for basis singularities not set.
  Default threshold for basis singularities:  0.1000E-04
  partition_type (choice of integration weights) for integrals was not specified.
  | Using a version of the partition function of Stratmann and coworkers ('stratmann_sparse').
  | At each grid point, the set of atoms used to build the partition table is smoothly restricted to
  | only those atoms whose free-atom density would be non-zero at that grid point.
  Partitioning for Hartree potential was not defined. Using partition_type for integrals.
  | Adjusted default value of keyword multip_moments_threshold to:       0.10000000E-11
  | This value may affect high angular momentum components of the Hartree potential in periodic systems.
  No q(lm)/r^(l+1) cutoff set for long-range Hartree potential.
  | Using default value of  0.100000E-09 .
  | Verify using the multipole_threshold keyword.
  Defaulting to new monopole extrapolation.
  Density update method: automatic selection selected.
  WARNING: Switching off the compensation of charge integration errors
  on the 3D integration grid, since you have requested a DFPT calculation.
  This is unfortunately necessary since "compensate_multipole_errors" is
  not yet implemented for DFPT.
  Use the "compensate_multipole_errors" flag to overwrite this behaviour.
------------------------------------------------------------


------------------------------------------------------------
          Reading geometry description geometry.in.
------------------------------------------------------------
  Input structure read successfully.
  The structure contains        2 atoms,  and a total of          2.000 electrons.

  Input geometry:
  | No unit cell requested.
  | Atomic structure:
  |       Atom                x [A]            y [A]            z [A]
  |    1: Species H             0.37000000        0.00000000        0.00000000
  |    2: Species H            -0.37000000        0.00000000        0.00000000
  | The smallest distance between any two atoms is         0.74000000 AA.
  | The first atom of this pair is atom number                      1 .
  | The second atom of this pair is atom number                     2 .

  Number of empty states per atom not set in control.in .
  | Since you are using a method that relies on the unoccupied spectrum
  | (MP2,GW,RPA et al.), will use the full Hamiltonian size (see below)
  | as the max. possible number of states (occupied plus empty).

  Structure-dependent array size parameters: 
  | Maximum number of distinct radial functions  :        3
  | Maximum number of basis functions            :       10
  | Number of Kohn-Sham states (occupied + empty):       10
------------------------------------------------------------

------------------------------------------------------------
          Preparing all fixed parts of the calculation.
------------------------------------------------------------
  Determining machine precision:
    2.225073858507201E-308
  Setting up grids for atomic and cluster calculations.

  Creating wave function, potential, and density for free atoms.

  Species: H

  List of occupied orbitals and eigenvalues:
    n    l              occ      energy [Ha]    energy [eV]
    1    0           1.0000        -0.233442        -6.3523

  Creating fixed part of basis set: Ionic, confined, hydrogenic.
 
  H                    hydrogenic:
 
  List of hydrogenic basis orbitals: 
    n    l      effective z      eigenvalue [eV]  inner max. [A]     outer max. [A]     outer radius [A]   
    2    0         2.100000       -14.9965           0.193243           1.317208           5.373006
    2    1         3.500000       -41.6672           0.602369           0.602369           4.056063
 

  Adding cutoff potential to free-atom effective potential.
  Creating atomic-like basis functions for current effective potential.

  Species H                   :

  List of atomic basis orbitals and eigenvalues:
    n    l      energy [Ha]    energy [eV]    outer radius [A]
    1    0        -0.233442        -6.3523       5.373006

  Assembling full basis from fixed parts.
  | Species H :   atomic orbital   1 s accepted.
  | Species H :    hydro orbital   2 s accepted.
  | Species H :    hydro orbital   2 p accepted.
 
  Basis size parameters after reduction:
  | Total number of radial functions:        3
  | Total number of basis functions :       10
 
  Per-task memory consumption for arrays in subroutine allocate_ext:
  |           0.651888MB.
  Testing on-site integration grid accuracy.
  |  Species  Function  <phi|h_atom|phi> (log., in eV)  <phi|h_atom|phi> (rad., in eV)
           1        1                 -6.3525818917                 -6.3526833281
           1        2                 13.9207654047                 13.9204682458
           1        3                 25.3328468823                 25.3328471890

  Preparing densities etc. for the partition functions (integrals / Hartree potential).

  Preparations completed.
  max(cpu_time)          :      0.071 s.
  Wall clock time (cpu1) :      0.414 s.
------------------------------------------------------------

------------------------------------------------------------
          Begin self-consistency loop: Initialization.

          Date     :  20190817, Time     :  153051.629
------------------------------------------------------------

  Initializing index lists of integration centers etc. from given atomic structure:
  | Number of centers in hartree potential         :         2
  | Number of centers in hartree multipole         :         2
  | Number of centers in electron density summation:         2
  | Number of centers in basis integrals           :         2
  | Number of centers in integrals                 :         2
  | Number of centers in hamiltonian               :         2
  * Using 8 tasks for Scalapack Eigenvalue solver.
  Detailed listing of tasks and assigned k-points:
  (for non-periodic systems, the "k-point" denotes an internal label only)
   Task     0 k-point     1 on co1631
   Task     1 k-point     1 on co1631
   Task     2 k-point     1 on co1631
   Task     3 k-point     1 on co1631
   Task     4 k-point     1 on co1631
   Task     5 k-point     1 on co1631
   Task     6 k-point     1 on co1631
   Task     7 k-point     1 on co1631
  Tasks:     8 split into      4 X      2 BLACS grid
  Calculating block size based on n_basis =           10  max_nprow =            4  max_npcol =            2
  ScaLAPACK block size set to:            2
  Allocating        0.000 MB for ovlp
  Allocating        0.000 MB for ham
  Allocating        0.000 MB for eigenvec
  Required Scalapack workspace - INTEGER:            1  REAL:             1
  Partitioning the integration grid into batches with parallel hashing+maxmin method.
  | Number of batches:      449
  | Maximal batch size:     130
  | Minimal batch size:      49
  | Average batch size:      64.365
  | Standard deviation of batch sizes:      16.610

  Integration load balanced across     8 MPI tasks.
  Work distribution over tasks is as follows:
  Task     0 has       3593 integration points.
  Task     1 has       3630 integration points.
  Task     2 has       3626 integration points.
  Task     3 has       3577 integration points.
  Task     4 has       3587 integration points.
  Task     5 has       3646 integration points.
  Task     6 has       3579 integration points.
  Task     7 has       3662 integration points.
  Initializing partition tables, free-atom densities, potentials, etc. across the integration grid (initialize_grid_storage).
  | initialize_grid_storage: Actual outermost partition radius vs. multipole_radius_free
  | (-- VB: in principle, multipole_radius_free should be larger, hence this output)
  | Species        1: Confinement radius =              6.000000000000000 AA, multipole_radius_free =              6.071692442739658 AA.
  | Species        1: outer_partition_radius set to              6.071692442739658 AA .
  | The sparse table of interatomic distances needs          0.04 kbyte instead of         0.03 kbyte of memory.
  | Using the partition_type stratmann_smoother will reduce your memory usage.
  | Net number of integration points:    28900
  | of which are non-zero points    :    26588
  Renormalizing the initial density to the exact electron count on the 3D integration grid.
  | Initial density: Formal number of electrons (from input files) :       2.0000000000
  | Integrated number of electrons on 3D grid     :       1.9999994202
  | Charge integration error                      :      -0.0000005798
  | Normalization factor for density and gradient :       1.0000002899
  Obtaining max. number of non-zero basis functions in each batch (get_n_compute_maxes).
  | Maximal number of non-zero basis functions:       10 in task     0
  | Maximal number of non-zero basis functions:       10 in task     1
  | Maximal number of non-zero basis functions:       10 in task     2
  | Maximal number of non-zero basis functions:       10 in task     3
  | Maximal number of non-zero basis functions:       10 in task     4
  | Maximal number of non-zero basis functions:       10 in task     5
  | Maximal number of non-zero basis functions:       10 in task     6
  | Maximal number of non-zero basis functions:       10 in task     7
  Selecting the method for density update.
  Loop over occupied states selected for charge density update.
  Allocating        0.001 MB for KS_eigenvector
  Integrating Hamiltonian matrix: batch-based integration.
  Time summed over all CPUs for integration: real work        0.884 s, elapsed        0.891 s
  Integrating overlap matrix.
  Time summed over all CPUs for integration: real work        0.137 s, elapsed        0.145 s
  Deallocating overlap matrix.

  Updating Kohn-Sham eigenvalues and eigenvectors using ELSI and the ELPA eigensolver.
  Overlap matrix is not singular
  | Lowest and highest eigenvalues :  0.2013E-01,  0.1980E+01
  Finished singularity check of overlap matrix
  | Time :     0.088 s
  Starting ELPA eigensolver
  Finished Cholesky decomposition
  | Time :     0.080 s
  Finished transformation to standard eigenproblem
  | Time :     0.001 s
  Finished solving standard eigenproblem
  | Time :     0.002 s
  Finished back-transformation of eigenvectors
  | Time :     0.000 s

  Obtaining occupation numbers and chemical potential using ELSI.
  | Chemical potential (Fermi level):    -0.51376728 eV
  Writing Kohn-Sham eigenvalues.

  State    Occupation    Eigenvalue [Ha]    Eigenvalue [eV]
      1       2.00000          -0.503416          -13.69864
      2       0.00000          -0.005266           -0.14329
      3       0.00000           0.251036            6.83105
      4       0.00000           0.599799           16.32135
      5       0.00000           0.599799           16.32135
      6       0.00000           0.717967           19.53688
      7       0.00000           1.513322           41.17958
      8       0.00000           1.637005           44.54518
      9       0.00000           1.637005           44.54518
     10       0.00000           3.372866           91.78035

  Highest occupied state (VBM) at    -13.69864062 eV
  | Occupation number:      2.00000000

  Lowest unoccupied state (CBM) at    -0.14328846 eV
  | Occupation number:      0.00000000

  Overall HOMO-LUMO gap:     13.55535215 eV.
  Calculating total energy contributions from superposition of free atom densities.

  Total energy components:
  | Sum of eigenvalues            :          -1.00683158 Ha         -27.39728124 eV
  | XC energy correction          :          -0.53289824 Ha         -14.50089902 eV
  | XC potential correction       :           0.69488051 Ha          18.90866079 eV
  | Free-atom electrostatic energy:          -0.32033905 Ha          -8.71686893 eV
  | Hartree energy correction     :           0.00000000 Ha           0.00000000 eV
  | Entropy correction            :           0.00000000 Ha           0.00000000 eV
  | ---------------------------
  | Total energy                  :          -1.16518836 Ha         -31.70638840 eV
  | Total energy, T -> 0          :          -1.16518836 Ha         -31.70638840 eV  <-- do not rely on this value for anything but (periodic) metals
  | Electronic free energy        :          -1.16518836 Ha         -31.70638840 eV

  Derived energy quantities:
  | Kinetic energy                :           0.62795881 Ha          17.08762874 eV
  | Electrostatic energy          :          -1.26024893 Ha         -34.29311812 eV
  | Energy correction for multipole
  | error in Hartree potential    :           0.00000000 Ha           0.00000000 eV
  | Sum of eigenvalues per atom                           :         -13.69864062 eV
  | Total energy (T->0) per atom                          :         -15.85319420 eV  <-- do not rely on this value for anything but (periodic) metals
  | Electronic free energy per atom                       :         -15.85319420 eV
  Initialize hartree_potential_storage
  Max. number of atoms included in rho_multipole:            2

  End scf initialization - timings             :  max(cpu_time)    wall_clock(cpu1)
  | Time for scf. initialization               :        0.182 s           0.820 s
  | Boundary condition initialization          :        0.001 s           0.000 s
  | Integration                                :        0.012 s           0.138 s
  | Solution of K.-S. eqns.                    :        0.135 s           0.189 s
  | Grid partitioning                          :        0.018 s           0.351 s
  | Preloading free-atom quantities on grid    :        0.005 s           0.005 s
  | Free-atom superposition energy             :        0.002 s           0.002 s
  | Total energy evaluation                    :        0.000 s           0.001 s

  Partial memory accounting:
  | Current value for overall tracked memory usage:
  |   Minimum:        0.002 MB (on task 3)
  |   Maximum:        0.002 MB (on task 0)
  |   Average:        0.002 MB
  | Peak value for overall tracked memory usage:
  |   Minimum:        0.110 MB (on task 7 after allocating grid_partition)
  |   Maximum:        0.141 MB (on task 0 after allocating grid_partition)
  |   Average:        0.124 MB
  | Largest tracked array allocation so far:
  |   Minimum:        0.073 MB (all_coords on task 6)
  |   Maximum:        0.094 MB (all_coords on task 0)
  |   Average:        0.083 MB
  Note:  These values currently only include a subset of arrays which are explicitly tracked.
  The "true" memory usage will be greater.
------------------------------------------------------------

------------------------------------------------------------
          Begin self-consistency iteration #    1

  Date     :  20190817, Time     :  153052.452
------------------------------------------------------------
  Evaluating new KS density.
  Integration grid: deviation in total charge (<rho> - N_e) =   0.000000E+00
  Pulay mixing of updated and previous charge densities.

  Evaluating partitioned Hartree potential by multipole expansion.
  | Analytical far-field extrapolation by fixed multipoles:
  | Hartree multipole sum: apparent total charge =   0.124278E-06
  Summing up the Hartree potential.
  Time summed over all CPUs for potential: real work        0.042 s, elapsed        0.044 s
  | RMS charge density error from multipole expansion :   0.750240E-03

  Integrating Hamiltonian matrix: batch-based integration.
  Time summed over all CPUs for integration: real work        0.020 s, elapsed        0.021 s

  Updating Kohn-Sham eigenvalues and eigenvectors using ELSI and the ELPA eigensolver.
  Starting ELPA eigensolver
  Finished transformation to standard eigenproblem
  | Time :     0.000 s
  Finished solving standard eigenproblem
  | Time :     0.000 s
  Finished back-transformation of eigenvectors
  | Time :     0.000 s

  Obtaining occupation numbers and chemical potential using ELSI.
  | Chemical potential (Fermi level):    -4.89870670 eV
  Writing Kohn-Sham eigenvalues.

  State    Occupation    Eigenvalue [Ha]    Eigenvalue [eV]
      1       2.00000          -0.422861          -11.50664
      2       0.00000           0.033927            0.92321
      3       0.00000           0.298934            8.13440
      4       0.00000           0.666210           18.12849
      5       0.00000           0.666210           18.12849
      6       0.00000           0.777807           21.16520
      7       0.00000           1.582211           43.05415
      8       0.00000           1.701405           46.29760
      9       0.00000           1.701405           46.29760
     10       0.00000           3.462531           94.22026

  Highest occupied state (VBM) at    -11.50663784 eV
  | Occupation number:      2.00000000

  Lowest unoccupied state (CBM) at     0.92321271 eV
  | Occupation number:      0.00000000

  Overall HOMO-LUMO gap:     12.42985055 eV.

  Total energy components:
  | Sum of eigenvalues            :          -0.84572234 Ha         -23.01327568 eV
  | XC energy correction          :          -0.60748956 Ha         -16.53063190 eV
  | XC potential correction       :           0.79281379 Ha          21.57356079 eV
  | Free-atom electrostatic energy:          -0.32033905 Ha          -8.71686893 eV
  | Hartree energy correction     :          -0.15977369 Ha          -4.34766335 eV
  | Entropy correction            :           0.00000000 Ha           0.00000000 eV
  | ---------------------------
  | Total energy                  :          -1.14051084 Ha         -31.03487907 eV
  | Total energy, T -> 0          :          -1.14051084 Ha         -31.03487907 eV  <-- do not rely on this value for anything but (periodic) metals
  | Electronic free energy        :          -1.14051084 Ha         -31.03487907 eV

  Derived energy quantities:
  | Kinetic energy                :           0.96330130 Ha          26.21276217 eV
  | Electrostatic energy          :          -1.49632259 Ha         -40.71700934 eV
  | Energy correction for multipole
  | error in Hartree potential    :          -0.00008439 Ha          -0.00229650 eV
  | Sum of eigenvalues per atom                           :         -11.50663784 eV
  | Total energy (T->0) per atom                          :         -15.51743954 eV  <-- do not rely on this value for anything but (periodic) metals
  | Electronic free energy per atom                       :         -15.51743954 eV

  Self-consistency convergence accuracy:
  | Change of charge density      :  0.1813E+00
  | Change of sum of eigenvalues  :  0.4384E+01 eV
  | Change of total energy        :  0.6715E+00 eV

  End self-consistency iteration #     1       :  max(cpu_time)    wall_clock(cpu1)
  | Time for this iteration                    :        0.014 s           0.054 s
  | Charge density update                      :        0.002 s           0.041 s
  | Density mixing                             :        0.000 s           0.000 s
  | Hartree multipole update                   :        0.002 s           0.002 s
  | Hartree multipole summation                :        0.006 s           0.007 s
  | Integration                                :        0.003 s           0.002 s
  | Solution of K.-S. eqns.                    :        0.001 s           0.001 s
  | Total energy evaluation                    :        0.000 s           0.000 s

  Partial memory accounting:
  | Current value for overall tracked memory usage:
  |   Minimum:        0.002 MB (on task 3)
  |   Maximum:        0.002 MB (on task 0)
  |   Average:        0.002 MB
  | Peak value for overall tracked memory usage:
  |   Minimum:        0.110 MB (on task 7 after allocating grid_partition)
  |   Maximum:        0.141 MB (on task 0 after allocating grid_partition)
  |   Average:        0.124 MB
  | Largest tracked array allocation so far:
  |   Minimum:        0.073 MB (all_coords on task 6)
  |   Maximum:        0.094 MB (all_coords on task 0)
  |   Average:        0.083 MB
  Note:  These values currently only include a subset of arrays which are explicitly tracked.
  The "true" memory usage will be greater.
------------------------------------------------------------

------------------------------------------------------------
          Begin self-consistency iteration #    2

  Date     :  20190817, Time     :  153052.506
------------------------------------------------------------
  Evaluating new KS density.
  Integration grid: deviation in total charge (<rho> - N_e) =  -4.440892E-16
  Pulay mixing of updated and previous charge densities.

  Evaluating partitioned Hartree potential by multipole expansion.
  | Analytical far-field extrapolation by fixed multipoles:
  | Hartree multipole sum: apparent total charge =   0.446395E-06
  Summing up the Hartree potential.
  Time summed over all CPUs for potential: real work        0.039 s, elapsed        0.052 s
  | RMS charge density error from multipole expansion :   0.115881E-02

  Integrating Hamiltonian matrix: batch-based integration.
  Time summed over all CPUs for integration: real work        0.021 s, elapsed        0.021 s

  Updating Kohn-Sham eigenvalues and eigenvectors using ELSI and the ELPA eigensolver.
  Starting ELPA eigensolver
  Finished transformation to standard eigenproblem
  | Time :     0.000 s
  Finished solving standard eigenproblem
  | Time :     0.000 s
  Finished back-transformation of eigenvectors
  | Time :     0.001 s

  Obtaining occupation numbers and chemical potential using ELSI.
  | Chemical potential (Fermi level):    -3.69520592 eV
  Highest occupied state (VBM) at    -10.31604424 eV
  | Occupation number:      2.00000000

  Lowest unoccupied state (CBM) at     1.53523332 eV
  | Occupation number:      0.00000000

  Overall HOMO-LUMO gap:     11.85127757 eV.

  Checking to see if s.c.f. parameters should be adjusted.

  Total energy components:
  | Sum of eigenvalues            :          -0.75821532 Ha         -20.63208848 eV
  | XC energy correction          :          -0.65219943 Ha         -17.74724951 eV
  | XC potential correction       :           0.85152558 Ha          23.17118990 eV
  | Free-atom electrostatic energy:          -0.32033905 Ha          -8.71686893 eV
  | Hartree energy correction     :          -0.25783506 Ha          -7.01604897 eV
  | Entropy correction            :           0.00000000 Ha           0.00000000 eV
  | ---------------------------
  | Total energy                  :          -1.13706328 Ha         -30.94106598 eV
  | Total energy, T -> 0          :          -1.13706328 Ha         -30.94106598 eV  <-- do not rely on this value for anything but (periodic) metals
  | Electronic free energy        :          -1.13706328 Ha         -30.94106598 eV

  Derived energy quantities:
  | Kinetic energy                :           1.11714047 Ha          30.39893894 eV
  | Electrostatic energy          :          -1.60200432 Ha         -43.59275541 eV
  | Energy correction for multipole
  | error in Hartree potential    :          -0.00011467 Ha          -0.00312046 eV
  | Sum of eigenvalues per atom                           :         -10.31604424 eV
  | Total energy (T->0) per atom                          :         -15.47053299 eV  <-- do not rely on this value for anything but (periodic) metals
  | Electronic free energy per atom                       :         -15.47053299 eV

  Self-consistency convergence accuracy:
  | Change of charge density      :  0.6131E-01
  | Change of sum of eigenvalues  :  0.2381E+01 eV
  | Change of total energy        :  0.9381E-01 eV

  End self-consistency iteration #     2       :  max(cpu_time)    wall_clock(cpu1)
  | Time for this iteration                    :        0.014 s           0.064 s
  | Charge density update                      :        0.001 s           0.001 s
  | Density mixing                             :        0.001 s           0.051 s
  | Hartree multipole update                   :        0.001 s           0.002 s
  | Hartree multipole summation                :        0.007 s           0.006 s
  | Integration                                :        0.003 s           0.003 s
  | Solution of K.-S. eqns.                    :        0.000 s           0.001 s
  | Total energy evaluation                    :        0.000 s           0.000 s

  Partial memory accounting:
  | Current value for overall tracked memory usage:
  |   Minimum:        0.002 MB (on task 3)
  |   Maximum:        0.003 MB (on task 0)
  |   Average:        0.002 MB
  | Peak value for overall tracked memory usage:
  |   Minimum:        0.110 MB (on task 7 after allocating grid_partition)
  |   Maximum:        0.141 MB (on task 0 after allocating grid_partition)
  |   Average:        0.124 MB
  | Largest tracked array allocation so far:
  |   Minimum:        0.073 MB (all_coords on task 6)
  |   Maximum:        0.094 MB (all_coords on task 0)
  |   Average:        0.083 MB
  Note:  These values currently only include a subset of arrays which are explicitly tracked.
  The "true" memory usage will be greater.
------------------------------------------------------------

------------------------------------------------------------
          Begin self-consistency iteration #    3

  Date     :  20190817, Time     :  153052.570
------------------------------------------------------------
  Evaluating new KS density.
  Integration grid: deviation in total charge (<rho> - N_e) =   1.776357E-15
  Pulay mixing of updated and previous charge densities.

  Evaluating partitioned Hartree potential by multipole expansion.
  | Analytical far-field extrapolation by fixed multipoles:
  | Hartree multipole sum: apparent total charge =   0.386975E-06
  Summing up the Hartree potential.
  Time summed over all CPUs for potential: real work        0.037 s, elapsed        0.038 s
  | RMS charge density error from multipole expansion :   0.116133E-02

  Integrating Hamiltonian matrix: batch-based integration.
  Time summed over all CPUs for integration: real work        0.020 s, elapsed        0.021 s

  Updating Kohn-Sham eigenvalues and eigenvectors using ELSI and the ELPA eigensolver.
  Starting ELPA eigensolver
  Finished transformation to standard eigenproblem
  | Time :     0.000 s
  Finished solving standard eigenproblem
  | Time :     0.001 s
  Finished back-transformation of eigenvectors
  | Time :     0.000 s

  Obtaining occupation numbers and chemical potential using ELSI.
  | Chemical potential (Fermi level):    -3.73311947 eV
  Highest occupied state (VBM) at    -10.35353333 eV
  | Occupation number:      2.00000000

  Lowest unoccupied state (CBM) at     1.52783720 eV
  | Occupation number:      0.00000000

  Overall HOMO-LUMO gap:     11.88137053 eV.

  Total energy components:
  | Sum of eigenvalues            :          -0.76097071 Ha         -20.70706666 eV
  | XC energy correction          :          -0.65034009 Ha         -17.69665434 eV
  | XC potential correction       :           0.84907217 Ha          23.10442933 eV
  | Free-atom electrostatic energy:          -0.32033905 Ha          -8.71686893 eV
  | Hartree energy correction     :          -0.25449044 Ha          -6.92503713 eV
  | Entropy correction            :           0.00000000 Ha           0.00000000 eV
  | ---------------------------
  | Total energy                  :          -1.13706812 Ha         -30.94119772 eV
  | Total energy, T -> 0          :          -1.13706812 Ha         -30.94119772 eV  <-- do not rely on this value for anything but (periodic) metals
  | Electronic free energy        :          -1.13706812 Ha         -30.94119772 eV

  Derived energy quantities:
  | Kinetic energy                :           1.10499661 Ha          30.06848756 eV
  | Electrostatic energy          :          -1.59172463 Ha         -43.31303095 eV
  | Energy correction for multipole
  | error in Hartree potential    :          -0.00009930 Ha          -0.00270213 eV
  | Sum of eigenvalues per atom                           :         -10.35353333 eV
  | Total energy (T->0) per atom                          :         -15.47059886 eV  <-- do not rely on this value for anything but (periodic) metals
  | Electronic free energy per atom                       :         -15.47059886 eV

  Self-consistency convergence accuracy:
  | Change of charge density      :  0.3425E-02
  | Change of sum of eigenvalues  : -0.7498E-01 eV
  | Change of total energy        : -0.1317E-03 eV

  End self-consistency iteration #     3       :  max(cpu_time)    wall_clock(cpu1)
  | Time for this iteration                    :        0.012 s           0.078 s
  | Charge density update                      :        0.001 s           0.001 s
  | Density mixing                             :        0.001 s           0.066 s
  | Hartree multipole update                   :        0.001 s           0.002 s
  | Hartree multipole summation                :        0.005 s           0.005 s
  | Integration                                :        0.003 s           0.002 s
  | Solution of K.-S. eqns.                    :        0.000 s           0.001 s
  | Total energy evaluation                    :        0.000 s           0.000 s

  Partial memory accounting:
  | Current value for overall tracked memory usage:
  |   Minimum:        0.002 MB (on task 3)
  |   Maximum:        0.003 MB (on task 0)
  |   Average:        0.002 MB
  | Peak value for overall tracked memory usage:
  |   Minimum:        0.110 MB (on task 7 after allocating grid_partition)
  |   Maximum:        0.141 MB (on task 0 after allocating grid_partition)
  |   Average:        0.124 MB
  | Largest tracked array allocation so far:
  |   Minimum:        0.073 MB (all_coords on task 6)
  |   Maximum:        0.094 MB (all_coords on task 0)
  |   Average:        0.083 MB
  Note:  These values currently only include a subset of arrays which are explicitly tracked.
  The "true" memory usage will be greater.
------------------------------------------------------------

------------------------------------------------------------
          Begin self-consistency iteration #    4

  Date     :  20190817, Time     :  153052.648
------------------------------------------------------------
  Evaluating new KS density.
  Integration grid: deviation in total charge (<rho> - N_e) =   1.776357E-15
  Pulay mixing of updated and previous charge densities.

  Evaluating partitioned Hartree potential by multipole expansion.
  | Analytical far-field extrapolation by fixed multipoles:
  | Hartree multipole sum: apparent total charge =   0.396386E-06
  Summing up the Hartree potential.
  Time summed over all CPUs for potential: real work        0.038 s, elapsed        0.039 s
  | RMS charge density error from multipole expansion :   0.117314E-02

  Integrating Hamiltonian matrix: batch-based integration.
  Time summed over all CPUs for integration: real work        0.020 s, elapsed        0.021 s

  Updating Kohn-Sham eigenvalues and eigenvectors using ELSI and the ELPA eigensolver.
  Starting ELPA eigensolver
  Finished transformation to standard eigenproblem
  | Time :     0.000 s
  Finished solving standard eigenproblem
  | Time :     0.000 s
  Finished back-transformation of eigenvectors
  | Time :     0.000 s

  Obtaining occupation numbers and chemical potential using ELSI.
  | Chemical potential (Fermi level):    -3.69797591 eV
  Highest occupied state (VBM) at    -10.31880440 eV
  | Occupation number:      2.00000000

  Lowest unoccupied state (CBM) at     1.54645482 eV
  | Occupation number:      0.00000000

  Overall HOMO-LUMO gap:     11.86525922 eV.

  Total energy components:
  | Sum of eigenvalues            :          -0.75841818 Ha         -20.63760881 eV
  | XC energy correction          :          -0.65169062 Ha         -17.73340405 eV
  | XC potential correction       :           0.85084572 Ha          23.15269008 eV
  | Free-atom electrostatic energy:          -0.32033905 Ha          -8.71686893 eV
  | Hartree energy correction     :          -0.25746284 Ha          -7.00592039 eV
  | Entropy correction            :           0.00000000 Ha           0.00000000 eV
  | ---------------------------
  | Total energy                  :          -1.13706497 Ha         -30.94111208 eV
  | Total energy, T -> 0          :          -1.13706497 Ha         -30.94111208 eV  <-- do not rely on this value for anything but (periodic) metals
  | Electronic free energy        :          -1.13706497 Ha         -30.94111208 eV

  Derived energy quantities:
  | Kinetic energy                :           1.10931415 Ha          30.18597379 eV
  | Electrostatic energy          :          -1.59468850 Ha         -43.39368182 eV
  | Energy correction for multipole
  | error in Hartree potential    :          -0.00010021 Ha          -0.00272684 eV
  | Sum of eigenvalues per atom                           :         -10.31880440 eV
  | Total energy (T->0) per atom                          :         -15.47055604 eV  <-- do not rely on this value for anything but (periodic) metals
  | Electronic free energy per atom                       :         -15.47055604 eV

  Self-consistency convergence accuracy:
  | Change of charge density      :  0.1897E-02
  | Change of sum of eigenvalues  :  0.6946E-01 eV
  | Change of total energy        :  0.8564E-04 eV

  End self-consistency iteration #     4       :  max(cpu_time)    wall_clock(cpu1)
  | Time for this iteration                    :        0.011 s           0.012 s
  | Charge density update                      :        0.002 s           0.002 s
  | Density mixing                             :        0.000 s           0.000 s
  | Hartree multipole update                   :        0.001 s           0.001 s
  | Hartree multipole summation                :        0.005 s           0.005 s
  | Integration                                :        0.003 s           0.003 s
  | Solution of K.-S. eqns.                    :        0.000 s           0.000 s
  | Total energy evaluation                    :        0.000 s           0.001 s

  Partial memory accounting:
  | Current value for overall tracked memory usage:
  |   Minimum:        0.002 MB (on task 3)
  |   Maximum:        0.003 MB (on task 0)
  |   Average:        0.003 MB
  | Peak value for overall tracked memory usage:
  |   Minimum:        0.110 MB (on task 7 after allocating grid_partition)
  |   Maximum:        0.141 MB (on task 0 after allocating grid_partition)
  |   Average:        0.124 MB
  | Largest tracked array allocation so far:
  |   Minimum:        0.073 MB (all_coords on task 6)
  |   Maximum:        0.094 MB (all_coords on task 0)
  |   Average:        0.083 MB
  Note:  These values currently only include a subset of arrays which are explicitly tracked.
  The "true" memory usage will be greater.
------------------------------------------------------------

------------------------------------------------------------
          Begin self-consistency iteration #    5

  Date     :  20190817, Time     :  153052.660
------------------------------------------------------------
  Evaluating new KS density.
  Integration grid: deviation in total charge (<rho> - N_e) =   8.881784E-16
  Pulay mixing of updated and previous charge densities.

  Evaluating partitioned Hartree potential by multipole expansion.
  | Analytical far-field extrapolation by fixed multipoles:
  | Hartree multipole sum: apparent total charge =   0.396771E-06
  Summing up the Hartree potential.
  Time summed over all CPUs for potential: real work        0.039 s, elapsed        0.040 s
  | RMS charge density error from multipole expansion :   0.117349E-02

  Integrating Hamiltonian matrix: batch-based integration.
  Time summed over all CPUs for integration: real work        0.020 s, elapsed        0.021 s

  Updating Kohn-Sham eigenvalues and eigenvectors using ELSI and the ELPA eigensolver.
  Starting ELPA eigensolver
  Finished transformation to standard eigenproblem
  | Time :     0.000 s
  Finished solving standard eigenproblem
  | Time :     0.000 s
  Finished back-transformation of eigenvectors
  | Time :     0.000 s

  Obtaining occupation numbers and chemical potential using ELSI.
  | Chemical potential (Fermi level):    -3.69670984 eV
  Highest occupied state (VBM) at    -10.31755318 eV
  | Occupation number:      2.00000000

  Lowest unoccupied state (CBM) at     1.54714428 eV
  | Occupation number:      0.00000000

  Overall HOMO-LUMO gap:     11.86469746 eV.

  Total energy components:
  | Sum of eigenvalues            :          -0.75832622 Ha         -20.63510637 eV
  | XC energy correction          :          -0.65174007 Ha         -17.73474968 eV
  | XC potential correction       :           0.85091065 Ha          23.15445700 eV
  | Free-atom electrostatic energy:          -0.32033905 Ha          -8.71686893 eV
  | Hartree energy correction     :          -0.25757028 Ha          -7.00884404 eV
  | Entropy correction            :           0.00000000 Ha           0.00000000 eV
  | ---------------------------
  | Total energy                  :          -1.13706497 Ha         -30.94111201 eV
  | Total energy, T -> 0          :          -1.13706497 Ha         -30.94111201 eV  <-- do not rely on this value for anything but (periodic) metals
  | Electronic free energy        :          -1.13706497 Ha         -30.94111201 eV

  Derived energy quantities:
  | Kinetic energy                :           1.10947749 Ha          30.19041857 eV
  | Electrostatic energy          :          -1.59480239 Ha         -43.39678090 eV
  | Energy correction for multipole
  | error in Hartree potential    :          -0.00010026 Ha          -0.00272815 eV
  | Sum of eigenvalues per atom                           :         -10.31755318 eV
  | Total energy (T->0) per atom                          :         -15.47055600 eV  <-- do not rely on this value for anything but (periodic) metals
  | Electronic free energy per atom                       :         -15.47055600 eV

  Self-consistency convergence accuracy:
  | Change of charge density      :  0.4970E-04
  | Change of sum of eigenvalues  :  0.2502E-02 eV
  | Change of total energy        :  0.7478E-07 eV

  Electronic self-consistency reached - switching on the force computation.

  End self-consistency iteration #     5       :  max(cpu_time)    wall_clock(cpu1)
  | Time for this iteration                    :        0.012 s           0.012 s
  | Charge density & force component update    :        0.001 s           0.001 s
  | Density mixing                             :        0.000 s           0.001 s
  | Hartree multipole update                   :        0.001 s           0.001 s
  | Hartree multipole summation                :        0.005 s           0.005 s
  | Integration                                :        0.003 s           0.003 s
  | Solution of K.-S. eqns.                    :        0.000 s           0.000 s
  | Total energy evaluation                    :        0.000 s           0.001 s

  Partial memory accounting:
  | Current value for overall tracked memory usage:
  |   Minimum:        0.002 MB (on task 3)
  |   Maximum:        0.003 MB (on task 0)
  |   Average:        0.003 MB
  | Peak value for overall tracked memory usage:
  |   Minimum:        0.110 MB (on task 7 after allocating grid_partition)
  |   Maximum:        0.141 MB (on task 0 after allocating grid_partition)
  |   Average:        0.124 MB
  | Largest tracked array allocation so far:
  |   Minimum:        0.073 MB (all_coords on task 6)
  |   Maximum:        0.094 MB (all_coords on task 0)
  |   Average:        0.083 MB
  Note:  These values currently only include a subset of arrays which are explicitly tracked.
  The "true" memory usage will be greater.
------------------------------------------------------------

------------------------------------------------------------
          Begin self-consistency iteration #    6

  Date     :  20190817, Time     :  153052.672
------------------------------------------------------------
  Evaluating new KS density.
  Integration grid: deviation in total charge (<rho> - N_e) =  -2.220446E-15
  Pulay mixing of updated and previous charge densities.

  Evaluating partitioned Hartree potential by multipole expansion.
  | Analytical far-field extrapolation by fixed multipoles:
  | Hartree multipole sum: apparent total charge =   0.396669E-06
  Summing up the Hartree potential.
  Time summed over all CPUs for potential: real work        0.108 s, elapsed        0.113 s
  | RMS charge density error from multipole expansion :   0.117341E-02

  Integrating Hamiltonian matrix: batch-based integration.
  Time summed over all CPUs for integration: real work        0.019 s, elapsed        0.019 s

  Updating Kohn-Sham eigenvalues and eigenvectors using ELSI and the ELPA eigensolver.
  Starting ELPA eigensolver
  Finished transformation to standard eigenproblem
  | Time :     0.000 s
  Finished solving standard eigenproblem
  | Time :     0.000 s
  Finished back-transformation of eigenvectors
  | Time :     0.000 s

  Obtaining occupation numbers and chemical potential using ELSI.
  | Chemical potential (Fermi level):    -3.69696692 eV
  Highest occupied state (VBM) at    -10.31780725 eV
  | Occupation number:      2.00000000

  Lowest unoccupied state (CBM) at     1.54701588 eV
  | Occupation number:      0.00000000

  Overall HOMO-LUMO gap:     11.86482312 eV.

  Total energy components:
  | Sum of eigenvalues            :          -0.75834489 Ha         -20.63561449 eV
  | XC energy correction          :          -0.65172990 Ha         -17.73447286 eV
  | XC potential correction       :           0.85089729 Ha          23.15409328 eV
  | Free-atom electrostatic energy:          -0.32033905 Ha          -8.71686893 eV
  | Hartree energy correction     :          -0.25754842 Ha          -7.00824901 eV
  | Entropy correction            :           0.00000000 Ha           0.00000000 eV
  | ---------------------------
  | Total energy                  :          -1.13706497 Ha         -30.94111201 eV
  | Total energy, T -> 0          :          -1.13706497 Ha         -30.94111201 eV  <-- do not rely on this value for anything but (periodic) metals
  | Electronic free energy        :          -1.13706497 Ha         -30.94111201 eV

  Derived energy quantities:
  | Kinetic energy                :           1.10944078 Ha          30.18941959 eV
  | Electrostatic energy          :          -1.59477585 Ha         -43.39605874 eV
  | Energy correction for multipole
  | error in Hartree potential    :          -0.00010024 Ha          -0.00272770 eV
  | Sum of eigenvalues per atom                           :         -10.31780725 eV
  | Total energy (T->0) per atom                          :         -15.47055600 eV  <-- do not rely on this value for anything but (periodic) metals
  | Electronic free energy per atom                       :         -15.47055600 eV

  atomic forces [eV/Ang]:
  -----------------------
  atom #    1
   Hellmann-Feynman              :  0.106965E+01  0.263457E-14  0.104258E-14
   Ionic forces                  :  0.000000E+00  0.000000E+00  0.000000E+00
   Multipole                     : -0.445781E-01  0.457166E-15 -0.325452E-15
   Pulay                         :  0.000000E+00  0.000000E+00  0.000000E+00
   ----------------------------------------------------------------
   Total forces(   1)            :  0.102507E+01  0.309174E-14  0.717130E-15
  atom #    2
   Hellmann-Feynman              : -0.106965E+01  0.116571E-14 -0.126403E-14
   Ionic forces                  :  0.000000E+00  0.000000E+00  0.000000E+00
   Multipole                     :  0.445781E-01  0.186769E-15  0.459953E-16
   Pulay                         :  0.000000E+00  0.000000E+00  0.000000E+00
   ----------------------------------------------------------------
   Total forces(   2)            : -0.102507E+01  0.135248E-14 -0.121803E-14


  Self-consistency convergence accuracy:
  | Change of charge density      :  0.1498E-04
  | Change of sum of eigenvalues  : -0.5081E-03 eV
  | Change of total energy        : -0.5504E-09 eV
  | Change of forces              :  0.1025E+01 eV/A

  End self-consistency iteration #     6       :  max(cpu_time)    wall_clock(cpu1)
  | Time for this iteration                    :        0.021 s           0.021 s
  | Charge density & force component update    :        0.002 s           0.001 s
  | Density mixing                             :        0.000 s           0.001 s
  | Hartree multipole update                   :        0.001 s           0.001 s
  | Hartree multipole summation                :        0.014 s           0.014 s
  | Integration                                :        0.003 s           0.003 s
  | Solution of K.-S. eqns.                    :        0.000 s           0.000 s
  | Total energy evaluation                    :        0.000 s           0.001 s

  Partial memory accounting:
  | Current value for overall tracked memory usage:
  |   Minimum:        0.002 MB (on task 3)
  |   Maximum:        0.003 MB (on task 0)
  |   Average:        0.003 MB
  | Peak value for overall tracked memory usage:
  |   Minimum:        0.110 MB (on task 7 after allocating grid_partition)
  |   Maximum:        0.141 MB (on task 0 after allocating grid_partition)
  |   Average:        0.124 MB
  | Largest tracked array allocation so far:
  |   Minimum:        0.073 MB (all_coords on task 6)
  |   Maximum:        0.094 MB (all_coords on task 0)
  |   Average:        0.083 MB
  Note:  These values currently only include a subset of arrays which are explicitly tracked.
  The "true" memory usage will be greater.
------------------------------------------------------------

------------------------------------------------------------
          Begin self-consistency iteration #    7

  Date     :  20190817, Time     :  153052.693
------------------------------------------------------------
  Evaluating new KS density and force components.
  Integration grid: deviation in total charge (<rho> - N_e) =  -1.998401E-15
  Pulay mixing of updated and previous charge densities.
  * Rank deficiency in solve_pulay; rank =     5; saved_iter =     6

  Evaluating partitioned Hartree potential by multipole expansion.
  | Analytical far-field extrapolation by fixed multipoles:
  | Hartree multipole sum: apparent total charge =   0.396669E-06
  Summing up the Hartree potential.
  Time summed over all CPUs for potential: real work        0.110 s, elapsed        0.115 s
  | RMS charge density error from multipole expansion :   0.117341E-02

  Integrating Hamiltonian matrix: batch-based integration.
  Time summed over all CPUs for integration: real work        0.020 s, elapsed        0.020 s

  Updating Kohn-Sham eigenvalues and eigenvectors using ELSI and the ELPA eigensolver.
  Starting ELPA eigensolver
  Finished transformation to standard eigenproblem
  | Time :     0.000 s
  Finished solving standard eigenproblem
  | Time :     0.000 s
  Finished back-transformation of eigenvectors
  | Time :     0.000 s

  Obtaining occupation numbers and chemical potential using ELSI.
  | Chemical potential (Fermi level):    -3.69696706 eV
  Highest occupied state (VBM) at    -10.31780739 eV
  | Occupation number:      2.00000000

  Lowest unoccupied state (CBM) at     1.54701578 eV
  | Occupation number:      0.00000000

  Overall HOMO-LUMO gap:     11.86482317 eV.

  Total energy components:
  | Sum of eigenvalues            :          -0.75834490 Ha         -20.63561478 eV
  | XC energy correction          :          -0.65172989 Ha         -17.73447272 eV
  | XC potential correction       :           0.85089728 Ha          23.15409309 eV
  | Free-atom electrostatic energy:          -0.32033905 Ha          -8.71686893 eV
  | Hartree energy correction     :          -0.25754841 Ha          -7.00824868 eV
  | Entropy correction            :           0.00000000 Ha           0.00000000 eV
  | ---------------------------
  | Total energy                  :          -1.13706497 Ha         -30.94111201 eV
  | Total energy, T -> 0          :          -1.13706497 Ha         -30.94111201 eV  <-- do not rely on this value for anything but (periodic) metals
  | Electronic free energy        :          -1.13706497 Ha         -30.94111201 eV

  Derived energy quantities:
  | Kinetic energy                :           1.10944077 Ha          30.18941925 eV
  | Electrostatic energy          :          -1.59477584 Ha         -43.39605855 eV
  | Energy correction for multipole
  | error in Hartree potential    :          -0.00010024 Ha          -0.00272770 eV
  | Sum of eigenvalues per atom                           :         -10.31780739 eV
  | Total energy (T->0) per atom                          :         -15.47055600 eV  <-- do not rely on this value for anything but (periodic) metals
  | Electronic free energy per atom                       :         -15.47055600 eV

  atomic forces [eV/Ang]:
  -----------------------
  atom #    1
   Hellmann-Feynman              :  0.106965E+01  0.785251E-15  0.388583E-14
   Ionic forces                  :  0.000000E+00  0.000000E+00  0.000000E+00
   Multipole                     : -0.445781E-01 -0.128229E-15 -0.632087E-15
   Pulay                         : -0.155538E+00  0.574245E-15 -0.500095E-14
   ----------------------------------------------------------------
   Total forces(   1)            :  0.869536E+00  0.123127E-14 -0.174721E-14
  atom #    2
   Hellmann-Feynman              : -0.106965E+01 -0.105406E-14  0.616599E-15
   Ionic forces                  :  0.000000E+00  0.000000E+00  0.000000E+00
   Multipole                     :  0.445781E-01  0.252277E-15  0.172831E-15
   Pulay                         :  0.155538E+00  0.245308E-14 -0.105371E-14
   ----------------------------------------------------------------
   Total forces(   2)            : -0.869536E+00  0.165131E-14 -0.264281E-15


  Self-consistency convergence accuracy:
  | Change of charge density      :  0.9927E-08
  | Change of sum of eigenvalues  : -0.2849E-06 eV
  | Change of total energy        :  0.5378E-12 eV
  | Change of forces              :  0.4707E-07 eV/A

  Writing Kohn-Sham eigenvalues.

  State    Occupation    Eigenvalue [Ha]    Eigenvalue [eV]
      1       2.00000          -0.379172          -10.31781
      2       0.00000           0.056852            1.54702
      3       0.00000           0.329001            8.95258
      4       0.00000           0.702812           19.12448
      5       0.00000           0.702812           19.12448
      6       0.00000           0.812581           22.11145
      7       0.00000           1.620572           44.09801
      8       0.00000           1.736887           47.26311
      9       0.00000           1.736887           47.26311
     10       0.00000           3.513810           95.61564

  Highest occupied state (VBM) at    -10.31780739 eV
  | Occupation number:      2.00000000

  Lowest unoccupied state (CBM) at     1.54701578 eV
  | Occupation number:      0.00000000

  Overall HOMO-LUMO gap:     11.86482317 eV.

  Self-consistency cycle converged.

  End self-consistency iteration #     7       :  max(cpu_time)    wall_clock(cpu1)
  | Time for this iteration                    :        0.024 s           0.025 s
  | Charge density & force component update    :        0.004 s           0.005 s
  | Density mixing                             :        0.001 s           0.000 s
  | Hartree multipole update                   :        0.001 s           0.002 s
  | Hartree multipole summation                :        0.015 s           0.014 s
  | Integration                                :        0.003 s           0.003 s
  | Solution of K.-S. eqns.                    :        0.000 s           0.000 s
  | Total energy evaluation                    :        0.000 s           0.001 s

  Partial memory accounting:
  | Current value for overall tracked memory usage:
  |   Minimum:        0.003 MB (on task 3)
  |   Maximum:        0.003 MB (on task 0)
  |   Average:        0.003 MB
  | Peak value for overall tracked memory usage:
  |   Minimum:        0.110 MB (on task 7 after allocating grid_partition)
  |   Maximum:        0.141 MB (on task 0 after allocating grid_partition)
  |   Average:        0.124 MB
  | Largest tracked array allocation so far:
  |   Minimum:        0.073 MB (all_coords on task 6)
  |   Maximum:        0.094 MB (all_coords on task 0)
  |   Average:        0.083 MB
  Note:  These values currently only include a subset of arrays which are explicitly tracked.
  The "true" memory usage will be greater.
------------------------------------------------------------
  Removing unitary transformations (pure translations, rotations) from forces on atoms.
  Atomic forces before filtering:
  | Net force on center of mass :   0.128452E-13  0.288257E-14 -0.201149E-14 eV/A
  | Net torque on center of mass:   0.000000E+00  0.548682E-15 -0.155414E-15 eV
  Atomic forces after filtering:
  | Net force on center of mass :   0.000000E+00  0.316913E-30 -0.475369E-30 eV/A
  | Net torque on center of mass:   0.000000E+00  0.586289E-31 -0.117258E-30 eV

  Energy and forces in a compact form:
  | Total energy uncorrected      :         -0.309411120098983E+02 eV
  | Total energy corrected        :         -0.309411120098983E+02 eV  <-- do not rely on this value for anything but (periodic) metals
  | Electronic free energy        :         -0.309411120098983E+02 eV
  Total atomic forces (unitary forces cleaned) [eV/Ang]:
  |    1          0.869536479818624E+00          0.000000000000000E+00         -0.316912938782286E-30
  |    2         -0.869536479818624E+00          0.316912938782286E-30         -0.158456469391143E-30

  Integrating Hamiltonian matrix: batch-based integration.
  Time summed over all CPUs for integration: real work        0.032 s, elapsed        0.033 s

--------------------------------------------------------------
          Begin CP-self-consistency iteration #    1

  Date     :  20190817, Time     :  153052.724
------------------------------------------------------------

  CPSCF convergence accuracy:
  | Change of first_order_density_matrix     : 0.0000E+00
  Integrating Hamiltonian matrix: batch-based integration.
  Time summed over all CPUs for integration: real work        0.045 s, elapsed        0.047 s

  Evaluating partitioned Hartree potential by multipole expansion.
  | Analytical far-field extrapolation by fixed multipoles:
  | Hartree multipole sum: apparent total charge =   0.192702E-06
  Summing up the Hartree potential.
  Time summed over all CPUs for potential: real work        0.040 s, elapsed        0.041 s
  | RMS delta_rho error from multipole expansion :   0.235026E-02


  Evaluating partitioned Hartree potential by multipole expansion.
  | Analytical far-field extrapolation by fixed multipoles:
  | Hartree multipole sum: apparent total charge =   0.000000E+00
  Summing up the Hartree potential.
  Time summed over all CPUs for potential: real work        0.038 s, elapsed        0.039 s
  | RMS delta_rho error from multipole expansion :   0.328239E-02


  Evaluating partitioned Hartree potential by multipole expansion.
  | Analytical far-field extrapolation by fixed multipoles:
  | Hartree multipole sum: apparent total charge =   0.000000E+00
  Summing up the Hartree potential.
  Time summed over all CPUs for potential: real work        0.038 s, elapsed        0.039 s
  | RMS delta_rho error from multipole expansion :   0.328239E-02


  Evaluating partitioned Hartree potential by multipole expansion.
  | Analytical far-field extrapolation by fixed multipoles:
  | Hartree multipole sum: apparent total charge =  -0.192702E-06
  Summing up the Hartree potential.
  Time summed over all CPUs for potential: real work        0.037 s, elapsed        0.038 s
  | RMS delta_rho error from multipole expansion :   0.235026E-02


  Evaluating partitioned Hartree potential by multipole expansion.
  | Analytical far-field extrapolation by fixed multipoles:
  | Hartree multipole sum: apparent total charge =   0.000000E+00
  Summing up the Hartree potential.
  Time summed over all CPUs for potential: real work        0.037 s, elapsed        0.038 s
  | RMS delta_rho error from multipole expansion :   0.328239E-02


  Evaluating partitioned Hartree potential by multipole expansion.
  | Analytical far-field extrapolation by fixed multipoles:
  | Hartree multipole sum: apparent total charge =   0.000000E+00
  Summing up the Hartree potential.
  Time summed over all CPUs for potential: real work        0.037 s, elapsed        0.038 s
  | RMS delta_rho error from multipole expansion :   0.328239E-02

  Integrating first-order-Hamiltonian matrix: batch-based integration.
  Time summed over all CPUs for integration: real work        0.167 s, elapsed        0.174 s

--------------------------------------------------------------
          Begin CP-self-consistency iteration #    2

  Date     :  20190817, Time     :  153052.791
------------------------------------------------------------

  CPSCF convergence accuracy:
  | Change of first_order_density_matrix     : 0.1076E+00
  Integrating Hamiltonian matrix: batch-based integration.
  Time summed over all CPUs for integration: real work        0.045 s, elapsed        0.047 s

  Evaluating partitioned Hartree potential by multipole expansion.
  | Analytical far-field extrapolation by fixed multipoles:
  | Hartree multipole sum: apparent total charge =  -0.640889E-07
  Summing up the Hartree potential.
  Time summed over all CPUs for potential: real work        0.037 s, elapsed        0.038 s
  | RMS delta_rho error from multipole expansion :   0.241985E-02


  Evaluating partitioned Hartree potential by multipole expansion.
  | Analytical far-field extrapolation by fixed multipoles:
  | Hartree multipole sum: apparent total charge =   0.000000E+00
  Summing up the Hartree potential.
  Time summed over all CPUs for potential: real work        0.037 s, elapsed        0.038 s
  | RMS delta_rho error from multipole expansion :   0.325877E-02


  Evaluating partitioned Hartree potential by multipole expansion.
  | Analytical far-field extrapolation by fixed multipoles:
  | Hartree multipole sum: apparent total charge =   0.000000E+00
  Summing up the Hartree potential.
  Time summed over all CPUs for potential: real work        0.037 s, elapsed        0.037 s
  | RMS delta_rho error from multipole expansion :   0.325877E-02


  Evaluating partitioned Hartree potential by multipole expansion.
  | Analytical far-field extrapolation by fixed multipoles:
  | Hartree multipole sum: apparent total charge =   0.640889E-07
  Summing up the Hartree potential.
  Time summed over all CPUs for potential: real work        0.037 s, elapsed        0.038 s
  | RMS delta_rho error from multipole expansion :   0.241985E-02


  Evaluating partitioned Hartree potential by multipole expansion.
  | Analytical far-field extrapolation by fixed multipoles:
  | Hartree multipole sum: apparent total charge =   0.000000E+00
  Summing up the Hartree potential.
  Time summed over all CPUs for potential: real work        0.037 s, elapsed        0.037 s
  | RMS delta_rho error from multipole expansion :   0.325877E-02


  Evaluating partitioned Hartree potential by multipole expansion.
  | Analytical far-field extrapolation by fixed multipoles:
  | Hartree multipole sum: apparent total charge =   0.000000E+00
  Summing up the Hartree potential.
  Time summed over all CPUs for potential: real work        0.037 s, elapsed        0.037 s
  | RMS delta_rho error from multipole expansion :   0.325877E-02

  Integrating first-order-Hamiltonian matrix: batch-based integration.
  Time summed over all CPUs for integration: real work        0.166 s, elapsed        0.173 s

--------------------------------------------------------------
          Begin CP-self-consistency iteration #    3

  Date     :  20190817, Time     :  153052.855
------------------------------------------------------------

  CPSCF convergence accuracy:
  | Change of first_order_density_matrix     : 0.7956E-01
  Integrating Hamiltonian matrix: batch-based integration.
  Time summed over all CPUs for integration: real work        0.045 s, elapsed        0.047 s

  Evaluating partitioned Hartree potential by multipole expansion.
  | Analytical far-field extrapolation by fixed multipoles:
  | Hartree multipole sum: apparent total charge =  -0.245264E-06
  Summing up the Hartree potential.
  Time summed over all CPUs for potential: real work        0.036 s, elapsed        0.037 s
  | RMS delta_rho error from multipole expansion :   0.247572E-02


  Evaluating partitioned Hartree potential by multipole expansion.
  | Analytical far-field extrapolation by fixed multipoles:
  | Hartree multipole sum: apparent total charge =   0.000000E+00
  Summing up the Hartree potential.
  Time summed over all CPUs for potential: real work        0.035 s, elapsed        0.036 s
  | RMS delta_rho error from multipole expansion :   0.324006E-02


  Evaluating partitioned Hartree potential by multipole expansion.
  | Analytical far-field extrapolation by fixed multipoles:
  | Hartree multipole sum: apparent total charge =   0.000000E+00
  Summing up the Hartree potential.
  Time summed over all CPUs for potential: real work        0.036 s, elapsed        0.037 s
  | RMS delta_rho error from multipole expansion :   0.324006E-02


  Evaluating partitioned Hartree potential by multipole expansion.
  | Analytical far-field extrapolation by fixed multipoles:
  | Hartree multipole sum: apparent total charge =   0.245264E-06
  Summing up the Hartree potential.
  Time summed over all CPUs for potential: real work        0.036 s, elapsed        0.037 s
  | RMS delta_rho error from multipole expansion :   0.247572E-02


  Evaluating partitioned Hartree potential by multipole expansion.
  | Analytical far-field extrapolation by fixed multipoles:
  | Hartree multipole sum: apparent total charge =   0.000000E+00
  Summing up the Hartree potential.
  Time summed over all CPUs for potential: real work        0.037 s, elapsed        0.038 s
  | RMS delta_rho error from multipole expansion :   0.324006E-02


  Evaluating partitioned Hartree potential by multipole expansion.
  | Analytical far-field extrapolation by fixed multipoles:
  | Hartree multipole sum: apparent total charge =   0.000000E+00
  Summing up the Hartree potential.
  Time summed over all CPUs for potential: real work        0.036 s, elapsed        0.036 s
  | RMS delta_rho error from multipole expansion :   0.324006E-02

  Integrating first-order-Hamiltonian matrix: batch-based integration.
  Time summed over all CPUs for integration: real work        0.164 s, elapsed        0.171 s

--------------------------------------------------------------
          Begin CP-self-consistency iteration #    4

  Date     :  20190817, Time     :  153052.917
------------------------------------------------------------

  CPSCF convergence accuracy:
  | Change of first_order_density_matrix     : 0.5889E-01
  Integrating Hamiltonian matrix: batch-based integration.
  Time summed over all CPUs for integration: real work        0.045 s, elapsed        0.047 s

  Evaluating partitioned Hartree potential by multipole expansion.
  | Analytical far-field extrapolation by fixed multipoles:
  | Hartree multipole sum: apparent total charge =  -0.373557E-06
  Summing up the Hartree potential.
  Time summed over all CPUs for potential: real work        0.037 s, elapsed        0.038 s
  | RMS delta_rho error from multipole expansion :   0.251834E-02


  Evaluating partitioned Hartree potential by multipole expansion.
  | Analytical far-field extrapolation by fixed multipoles:
  | Hartree multipole sum: apparent total charge =   0.000000E+00
  Summing up the Hartree potential.
  Time summed over all CPUs for potential: real work        0.037 s, elapsed        0.039 s
  | RMS delta_rho error from multipole expansion :   0.322521E-02


  Evaluating partitioned Hartree potential by multipole expansion.
  | Analytical far-field extrapolation by fixed multipoles:
  | Hartree multipole sum: apparent total charge =   0.000000E+00
  Summing up the Hartree potential.
  Time summed over all CPUs for potential: real work        0.037 s, elapsed        0.038 s
  | RMS delta_rho error from multipole expansion :   0.322521E-02


  Evaluating partitioned Hartree potential by multipole expansion.
  | Analytical far-field extrapolation by fixed multipoles:
  | Hartree multipole sum: apparent total charge =   0.373557E-06
  Summing up the Hartree potential.
  Time summed over all CPUs for potential: real work        0.038 s, elapsed        0.039 s
  | RMS delta_rho error from multipole expansion :   0.251834E-02


  Evaluating partitioned Hartree potential by multipole expansion.
  | Analytical far-field extrapolation by fixed multipoles:
  | Hartree multipole sum: apparent total charge =   0.000000E+00
  Summing up the Hartree potential.
  Time summed over all CPUs for potential: real work        0.037 s, elapsed        0.038 s
  | RMS delta_rho error from multipole expansion :   0.322521E-02


  Evaluating partitioned Hartree potential by multipole expansion.
  | Analytical far-field extrapolation by fixed multipoles:
  | Hartree multipole sum: apparent total charge =   0.000000E+00
  Summing up the Hartree potential.
  Time summed over all CPUs for potential: real work        0.038 s, elapsed        0.039 s
  | RMS delta_rho error from multipole expansion :   0.322521E-02

  Integrating first-order-Hamiltonian matrix: batch-based integration.
  Time summed over all CPUs for integration: real work        0.164 s, elapsed        0.171 s

--------------------------------------------------------------
          Begin CP-self-consistency iteration #    5

  Date     :  20190817, Time     :  153052.981
------------------------------------------------------------

  CPSCF convergence accuracy:
  | Change of first_order_density_matrix     : 0.4363E-01
  Integrating Hamiltonian matrix: batch-based integration.
  Time summed over all CPUs for integration: real work        0.045 s, elapsed        0.046 s

  Evaluating partitioned Hartree potential by multipole expansion.
  | Analytical far-field extrapolation by fixed multipoles:
  | Hartree multipole sum: apparent total charge =  -0.480156E-06
  Summing up the Hartree potential.
  Time summed over all CPUs for potential: real work        0.036 s, elapsed        0.037 s
  | RMS delta_rho error from multipole expansion :   0.254982E-02


[...]
  | Hartree multipole sum: apparent total charge =  -0.769416E-06
  Summing up the Hartree potential.
  Time summed over all CPUs for potential: real work        0.038 s, elapsed        0.039 s
  | RMS delta_rho error from multipole expansion :   0.261978E-02


  Evaluating partitioned Hartree potential by multipole expansion.
  | Analytical far-field extrapolation by fixed multipoles:
  | Hartree multipole sum: apparent total charge =   0.000000E+00
  Summing up the Hartree potential.
  Time summed over all CPUs for potential: real work        0.038 s, elapsed        0.040 s
  | RMS delta_rho error from multipole expansion :   0.316686E-02


  Evaluating partitioned Hartree potential by multipole expansion.
  | Analytical far-field extrapolation by fixed multipoles:
  | Hartree multipole sum: apparent total charge =   0.000000E+00
  Summing up the Hartree potential.
  Time summed over all CPUs for potential: real work        0.037 s, elapsed        0.038 s
  | RMS delta_rho error from multipole expansion :   0.316686E-02


  Evaluating partitioned Hartree potential by multipole expansion.
  | Analytical far-field extrapolation by fixed multipoles:
  | Hartree multipole sum: apparent total charge =   0.769416E-06
  Summing up the Hartree potential.
  Time summed over all CPUs for potential: real work        0.036 s, elapsed        0.038 s
  | RMS delta_rho error from multipole expansion :   0.261978E-02


  Evaluating partitioned Hartree potential by multipole expansion.
  | Analytical far-field extrapolation by fixed multipoles:
  | Hartree multipole sum: apparent total charge =   0.000000E+00
  Summing up the Hartree potential.
  Time summed over all CPUs for potential: real work        0.037 s, elapsed        0.039 s
  | RMS delta_rho error from multipole expansion :   0.316686E-02


  Evaluating partitioned Hartree potential by multipole expansion.
  | Analytical far-field extrapolation by fixed multipoles:
  | Hartree multipole sum: apparent total charge =   0.000000E+00
  Summing up the Hartree potential.
  Time summed over all CPUs for potential: real work        0.038 s, elapsed        0.040 s
  | RMS delta_rho error from multipole expansion :   0.316686E-02

  Integrating first-order-Hamiltonian matrix: batch-based integration.
  Time summed over all CPUs for integration: real work        0.172 s, elapsed        0.179 s

--------------------------------------------------------------
          Begin CP-self-consistency iteration #   46

  Date     :  20190817, Time     :  153055.668
------------------------------------------------------------

  CPSCF convergence accuracy:
  | Change of first_order_density_matrix     : 0.1018E-05
  Integrating Hamiltonian matrix: batch-based integration.
  Time summed over all CPUs for integration: real work        0.046 s, elapsed        0.047 s

  Evaluating partitioned Hartree potential by multipole expansion.
  | Analytical far-field extrapolation by fixed multipoles:
  | Hartree multipole sum: apparent total charge =  -0.769417E-06
  Summing up the Hartree potential.
  Time summed over all CPUs for potential: real work        0.036 s, elapsed        0.038 s
  | RMS delta_rho error from multipole expansion :   0.261978E-02


  Evaluating partitioned Hartree potential by multipole expansion.
  | Analytical far-field extrapolation by fixed multipoles:
  | Hartree multipole sum: apparent total charge =   0.000000E+00
  Summing up the Hartree potential.
  Time summed over all CPUs for potential: real work        0.038 s, elapsed        0.040 s
  | RMS delta_rho error from multipole expansion :   0.316686E-02


  Evaluating partitioned Hartree potential by multipole expansion.
  | Analytical far-field extrapolation by fixed multipoles:
  | Hartree multipole sum: apparent total charge =   0.000000E+00
  Summing up the Hartree potential.
  Time summed over all CPUs for potential: real work        0.037 s, elapsed        0.039 s
  | RMS delta_rho error from multipole expansion :   0.316686E-02


  Evaluating partitioned Hartree potential by multipole expansion.
  | Analytical far-field extrapolation by fixed multipoles:
  | Hartree multipole sum: apparent total charge =   0.769417E-06
  Summing up the Hartree potential.
  Time summed over all CPUs for potential: real work        0.038 s, elapsed        0.040 s
  | RMS delta_rho error from multipole expansion :   0.261978E-02


  Evaluating partitioned Hartree potential by multipole expansion.
  | Analytical far-field extrapolation by fixed multipoles:
  | Hartree multipole sum: apparent total charge =   0.000000E+00
  Summing up the Hartree potential.
  Time summed over all CPUs for potential: real work        0.037 s, elapsed        0.038 s
  | RMS delta_rho error from multipole expansion :   0.316686E-02


  Evaluating partitioned Hartree potential by multipole expansion.
  | Analytical far-field extrapolation by fixed multipoles:
  | Hartree multipole sum: apparent total charge =   0.000000E+00
  Summing up the Hartree potential.
  Time summed over all CPUs for potential: real work        0.039 s, elapsed        0.040 s
  | RMS delta_rho error from multipole expansion :   0.316686E-02

  Integrating first-order-Hamiltonian matrix: batch-based integration.
  Time summed over all CPUs for integration: real work        0.171 s, elapsed        0.178 s

--------------------------------------------------------------
          Begin CP-self-consistency iteration #   47

  Date     :  20190817, Time     :  153055.734
------------------------------------------------------------

  CPSCF convergence accuracy:
  | Change of first_order_density_matrix     : 0.8148E-06
  Integrating Hamiltonian matrix: batch-based integration.
  Time summed over all CPUs for integration: real work        0.046 s, elapsed        0.047 s

  Evaluating partitioned Hartree potential by multipole expansion.
  | Analytical far-field extrapolation by fixed multipoles:
  | Hartree multipole sum: apparent total charge =  -0.769418E-06
  Summing up the Hartree potential.
  Time summed over all CPUs for potential: real work        0.038 s, elapsed        0.040 s
  | RMS delta_rho error from multipole expansion :   0.261978E-02


  Evaluating partitioned Hartree potential by multipole expansion.
  | Analytical far-field extrapolation by fixed multipoles:
  | Hartree multipole sum: apparent total charge =   0.000000E+00
  Summing up the Hartree potential.
  Time summed over all CPUs for potential: real work        0.038 s, elapsed        0.040 s
  | RMS delta_rho error from multipole expansion :   0.316686E-02


  Evaluating partitioned Hartree potential by multipole expansion.
  | Analytical far-field extrapolation by fixed multipoles:
  | Hartree multipole sum: apparent total charge =   0.000000E+00
  Summing up the Hartree potential.
  Time summed over all CPUs for potential: real work        0.038 s, elapsed        0.040 s
  | RMS delta_rho error from multipole expansion :   0.316686E-02


  Evaluating partitioned Hartree potential by multipole expansion.
  | Analytical far-field extrapolation by fixed multipoles:
  | Hartree multipole sum: apparent total charge =   0.769418E-06
  Summing up the Hartree potential.
  Time summed over all CPUs for potential: real work        0.038 s, elapsed        0.040 s
  | RMS delta_rho error from multipole expansion :   0.261978E-02


  Evaluating partitioned Hartree potential by multipole expansion.
  | Analytical far-field extrapolation by fixed multipoles:
  | Hartree multipole sum: apparent total charge =   0.000000E+00
  Summing up the Hartree potential.
  Time summed over all CPUs for potential: real work        0.039 s, elapsed        0.041 s
  | RMS delta_rho error from multipole expansion :   0.316686E-02


  Evaluating partitioned Hartree potential by multipole expansion.
  | Analytical far-field extrapolation by fixed multipoles:
  | Hartree multipole sum: apparent total charge =   0.000000E+00
  Summing up the Hartree potential.
  Time summed over all CPUs for potential: real work        0.038 s, elapsed        0.039 s
  | RMS delta_rho error from multipole expansion :   0.316686E-02

  Integrating first-order-Hamiltonian matrix: batch-based integration.
  Time summed over all CPUs for integration: real work        0.169 s, elapsed        0.176 s

  CP-self-consistency cycle converged.


  Evaluating partitioned Hartree potential by multipole expansion.
  | Analytical far-field extrapolation by fixed multipoles:
  | Hartree multipole sum: apparent total charge =  -0.769416E-06
  Summing up the Hartree potential.
  Time summed over all CPUs for potential: real work        0.038 s, elapsed        0.040 s
  | RMS delta_rho error from multipole expansion :   0.382612E+00


  Evaluating partitioned Hartree potential by multipole expansion.
  | Analytical far-field extrapolation by fixed multipoles:
  | Hartree multipole sum: apparent total charge =   0.000000E+00
  Summing up the Hartree potential.
  Time summed over all CPUs for potential: real work        0.038 s, elapsed        0.040 s
  | RMS delta_rho error from multipole expansion :   0.496806E+00


  Evaluating partitioned Hartree potential by multipole expansion.
  | Analytical far-field extrapolation by fixed multipoles:
  | Hartree multipole sum: apparent total charge =   0.000000E+00
  Summing up the Hartree potential.
  Time summed over all CPUs for potential: real work        0.038 s, elapsed        0.041 s
  | RMS delta_rho error from multipole expansion :   0.496806E+00


  Evaluating partitioned Hartree potential by multipole expansion.
  | Analytical far-field extrapolation by fixed multipoles:
  | Hartree multipole sum: apparent total charge =   0.769416E-06
  Summing up the Hartree potential.
  Time summed over all CPUs for potential: real work        0.039 s, elapsed        0.040 s
  | RMS delta_rho error from multipole expansion :   0.382612E+00


  Evaluating partitioned Hartree potential by multipole expansion.
  | Analytical far-field extrapolation by fixed multipoles:
  | Hartree multipole sum: apparent total charge =   0.000000E+00
  Summing up the Hartree potential.
  Time summed over all CPUs for potential: real work        0.039 s, elapsed        0.041 s
  | RMS delta_rho error from multipole expansion :   0.496806E+00


  Evaluating partitioned Hartree potential by multipole expansion.
  | Analytical far-field extrapolation by fixed multipoles:
  | Hartree multipole sum: apparent total charge =   0.000000E+00
  Summing up the Hartree potential.
  Time summed over all CPUs for potential: real work        0.038 s, elapsed        0.039 s
  | RMS delta_rho error from multipole expansion :   0.496806E+00

  Integrating Hessian matrix: batch-based integration.
 
 Total_hessian in integrate_hessian.f90:
 -0.148640165401E+03  0.126732665951E-13 -0.116789584635E-12 -0.382995068293E+02  0.310431335972E-13 -0.176720092148E-13
  0.870048895662E-13 -0.188119769505E+03 -0.469009497179E-12 -0.158456477969E-14  0.117285798228E+01  0.778584650606E-14
  0.617023173719E-12 -0.389551625049E-12 -0.188119769505E+03 -0.140520276080E-13  0.430884522596E-14  0.117285798228E+01
 -0.382995068293E+02 -0.348780346428E-13  0.304438938929E-14 -0.148640165401E+03 -0.168953596945E-12  0.635424967886E-12
  0.118336826181E-13  0.117285798228E+01 -0.366416474567E-14 -0.328864625174E-12 -0.188119769505E+03 -0.708348887997E-12
  0.534154150830E-14 -0.888434042222E-14  0.117285798228E+01  0.834190592041E-13 -0.564796907892E-12 -0.188119769505E+03
 
 Make Acoustic sum rule in integrate_hessian.f90:
 
 grdient_dipole in integrate_hessian.f90:
 -0.347666863407E-04  0.298372437868E-15 -0.159594559790E-15
 -0.287964097012E-14 -0.225075210203E-04 -0.190819582357E-15
 -0.204003480775E-14 -0.170002900646E-15 -0.225075210198E-04
 -0.347666863496E-04  0.763278329430E-16  0.220309881449E-15
  0.247241463414E-14 -0.225075210207E-04  0.142247325030E-15
 -0.175900960464E-14  0.201227923213E-15 -0.225075210214E-04
  Time summed over all CPUs for integration: real work        0.927 s, elapsed        0.929 s

Get frequencies in cpscf.f90:
Solving eigenvalue system for Hessian Matrix
Done ...

DFPT-Results:

List of all frequencies found:
  Mode number      Frequency [cm^(-1)]   IR-intensity [D^2/Ang^2]
            1            -795.51882530                 0.00000000
            2            -795.51882530                 0.00000000
            3              -0.00003693                 0.00000002
            4              -0.00000435                 0.00000002
            5               0.00002948                 0.00000006
            6            4545.94668740                 0.00000000
  |------------------------------------------------------
  | Final ELSI Output
  |------------------------------------------------------
  |
  | Physical Properties
  |   Number of electrons       :        0.20000000E+01
  |   Number of spins           :                     1
  |   Number of k-points        :                     1
  |   Number of states          :                    10
  |
  | Matrix Properties
  |   Matrix format             :           BLACS_DENSE
  |   Number of basis functions :                    10
  |   Matrix sparsity           :        0.56000000E+00
  |
  | Computational Details
  |   Parallel mode             :            MULTI_PROC
  |   Number of MPI tasks       :                     8
  |   Solver requested          :                  ELPA
  |   Number of ELSI calls      :                     8
  |
  |------------------------------------------------------
  | ELSI Project (c)  elsi-interchange.org
  |------------------------------------------------------

------------------------------------------------------------------------------
  Final output of selected total energy values:

  The following output summarizes some interesting total energy values
  at the end of a run (AFTER all relaxation, molecular dynamics, etc.).

  | Total energy of the DFT / Hartree-Fock s.c.f. calculation      :            -30.941112010 eV
  | Final zero-broadening corrected energy (caution - metals only) :            -30.941112010 eV
  | For reference only, the value of 1 Hartree used in FHI-aims is :             27.211384500 eV

  Before relying on these values, please be sure to understand exactly which
  total energy value is referred to by a given number. Different objects may
  all carry the same name 'total energy'. Definitions:

  Total energy of the DFT / Hartree-Fock s.c.f. calculation:
  | Note that this energy does not include ANY quantities calculated after the
  | s.c.f. cycle, in particular not ANY RPA, MP2, etc. many-body perturbation terms.

  Final zero-broadening corrected energy:
  | For metallic systems only, a broadening of the occupation numbers at the Fermi
  | level can be extrapolated back to zero broadening by an electron-gas inspired
  | formula. For all systems that are not real metals, this value can be
  | meaningless and should be avoided.

------------------------------------------------------------------------------
  Methods described in the following list of references were used in this FHI-aims run.
  If you publish the results, please make sure to cite these reference if they apply.
  FHI-aims is an academic code, and for our developers (often, Ph.D. students
  and postdocs), scientific credit in the community is essential.
  Thank you for helping us!

  For any use of FHI-aims, please cite:

    Volker Blum, Ralf Gehrke, Felix Hanke, Paula Havu, Ville Havu,
    Xinguo Ren, Karsten Reuter, and Matthias Scheffler
    'Ab initio molecular simulations with numeric atom-centered orbitals'
    Computer Physics Communications 180, 2175-2196 (2009)
    http://dx.doi.org/10.1016/j.cpc.2009.06.022


  The DFPT (perturbation by an atomic displacement) part of the code was used.
  Here is the corresponding reference:

    Honghui Shang, Christian Carbogno, Patrick Rinke and Matthias Scheffler
    'Lattice dynamics calculations based on density-functional
    perturbation theory in real space'
    Computer Physics Communications 215, 26-46 (2017)
    https://doi.org/10.1016/j.cpc.2017.02.001


  The ELSI infrastructure was used in your run to solve the Kohn-Sham electronic structure.
  Please check out http://elsi-interchange.org to learn more.
  If scalability is important for your project, please acknowledge ELSI by citing:

    V. W-z. Yu, F. Corsetti, A. Garcia, W. P. Huhn, M. Jacquelin, W. Jia,
    B. Lange, L. Lin, J. Lu, W. Mi, A. Seifitokaldani, A. Vazquez-Mayagoitia,
    C. Yang, H. Yang, and V. Blum
    'ELSI: A unified software interface for Kohn-Sham electronic structure solvers'
    Computer Physics Communications 222, 267-285 (2018).
    http://dx.doi.org/10.1016/j.cpc.2017.09.007


  For the real-space grid partitioning and parallelization used in this calculation, please cite:

    Ville Havu, Volker Blum, Paula Havu, and Matthias Scheffler,
    'Efficient O(N) integration for all-electron electronic structure calculation'
    'using numerically tabulated basis functions'
    Journal of Computational Physics 228, 8367-8379 (2009).
    http://dx.doi.org/10.1016/j.jcp.2009.08.008

  Of course, there are many other important community references, e.g., those cited in the
  above references. Our list is limited to references that describe implementations in the
  FHI-aims code. The reason is purely practical (length of this list) - please credit others as well.

------------------------------------------------------------
          Leaving FHI-aims.
          Date     :  20190817, Time     :  153056.011

          Computational steps:
          | Number of self-consistency cycles          :           54
          | Number of SCF (re)initializations          :            1

          Detailed time accounting                     :  max(cpu_time)    wall_clock(cpu1)
          | Total time                                 :        4.072 s           5.953 s
          | Preparation time                           :        0.071 s           0.414 s
          | Boundary condition initalization           :        0.001 s           0.000 s
          | Grid partitioning                          :        0.018 s           0.351 s
          | Preloading free-atom quantities on grid    :        0.005 s           0.005 s
          | Free-atom superposition energy             :        0.002 s           0.002 s
          | Total time for integrations                :        0.031 s           0.157 s
          | Transforming ovlp_3fn to ovlp_3KS          :        0.000 s           0.000 s
          | Total time for solution of K.-S. equations :        0.138 s           0.192 s
          | Total time for density & force components  :        0.014 s           0.052 s
          | Total time for mixing                      :        0.004 s           0.119 s
          | Total time for Hartree multipole update    :        0.009 s           0.011 s
          | Total time for Hartree multipole sum       :        0.057 s           0.056 s
          | Total time for total energy evaluation     :        0.002 s           0.005 s

          Partial memory accounting:
          | Residual value for overall tracked memory usage across tasks:     0.000000 MB (should be 0.000000 MB)
          | Peak values for overall tracked memory usage:
          |   Minimum:        0.110 MB (on task 7 after allocating grid_partition)
          |   Maximum:        0.141 MB (on task 0 after allocating grid_partition)
          |   Average:        0.124 MB
          | Largest tracked array allocation:
          |   Minimum:        0.073 MB (all_coords on task 6)
          |   Maximum:        0.094 MB (all_coords on task 0)
          |   Average:        0.083 MB
          Note:  These values currently only include a subset of arrays which are explicitly tracked.
          The "true" memory usage will be greater.

          Have a nice day.
------------------------------------------------------------
