  MPI-parallelism will be employed.
------------------------------------------------------------
          Invoking FHI-aims ...

          When using FHI-aims, please cite the following reference:

          Volker Blum, Ralf Gehrke, Felix Hanke, Paula Havu,
          Ville Havu, Xinguo Ren, Karsten Reuter, and Matthias Scheffler,
          'Ab Initio Molecular Simulations with Numeric Atom-Centered Orbitals',
          Computer Physics Communications 180, 2175-2196 (2009)

          For any questions about FHI-aims, please visit the aimsclub website
          with its forums and wiki. Contributions to both the forums and the
          wiki are warmly encouraged - they are for you, and everyone is welcome there.

------------------------------------------------------------



  Date     :  20190817, Time     :  154156.350
  Time zero on CPU 1             :   0.566970000000000E-01  s.
  Internal wall clock time zero  :           335288516.350  s.

  FHI-aims created a unique identifier for this run for later identification
  aims_uuid : 505C54BA-A439-487F-AFD5-CB93A0E0F76F

  Build configuration of the current instance of FHI-aims
  -------------------------------------------------------
  FHI-aims version      : 190813
  Commit number         : 3da7baeb3
  CMake host system     : Linux-4.4.180-94.97-default
  CMake version         : 3.5.2
  Fortran compiler      : /mpcdf/soft/SLE_12_SP3/packages/x86_64/intel_parallel_studio/2018.4/compilers_and_libraries_2018.5.274/linux/mpi/bin64/mpiifort (Intel) version 18.0.5.20180823
  Fortran compiler flags: -O3 -ip -fp-model precise
  C compiler            : /mpcdf/soft/SLE_12_SP3/packages/skylake/intel/18.0.5/bin/icc (Intel) version 18.0.5.20180823
  C compiler flags      : -O3 -ip -fp-model precise
  Architecture          :
  Using MPI
  Using Scalapack
  Using C files
  Using SPGlib
  Using i-PI
  Linking against: /mpcdf/soft/SLE_12_SP3/packages/x86_64/anaconda/3.5.1.0/lib/libmkl_intel_lp64.so
                   /mpcdf/soft/SLE_12_SP3/packages/x86_64/anaconda/3.5.1.0/lib/libmkl_sequential.so
                   /mpcdf/soft/SLE_12_SP3/packages/x86_64/anaconda/3.5.1.0/lib/libmkl_core.so
                   /mpcdf/soft/SLE_12_SP3/packages/x86_64/anaconda/3.5.1.0/lib/libmkl_blacs_intelmpi_lp64.so
                   /mpcdf/soft/SLE_12_SP3/packages/x86_64/anaconda/3.5.1.0/lib/libmkl_scalapack_lp64.so

  Using        8 parallel tasks.
  Task        0 on host co1631 reporting.
  Task        1 on host co1631 reporting.
  Task        2 on host co1631 reporting.
  Task        3 on host co1631 reporting.
  Task        4 on host co1631 reporting.
  Task        5 on host co1631 reporting.
  Task        6 on host co1631 reporting.
  Task        7 on host co1631 reporting.

  Performing system and environment tests:
  | Environment variable OMP_NUM_THREADS correctly set to 1.
  | Maximum stacksize for task 0: unlimited
  | Maximum stacksize for task 1: unlimited
  | Maximum stacksize for task 2: unlimited
  | Maximum stacksize for task 3: unlimited
  | Maximum stacksize for task 4: unlimited
  | Maximum stacksize for task 5: unlimited
  | Maximum stacksize for task 6: unlimited
  | Maximum stacksize for task 7: unlimited
  | Current stacksize for task 0: unlimited
  | Current stacksize for task 1: unlimited
  | Current stacksize for task 2: unlimited
  | Current stacksize for task 3: unlimited
  | Current stacksize for task 4: unlimited
  | Current stacksize for task 5: unlimited
  | Current stacksize for task 6: unlimited
  | Current stacksize for task 7: unlimited
  | Checking for scalapack...
  | Testing pdtran()...
  | All pdtran() tests passed.

  Obtaining array dimensions for all initial allocations:
  
  -----------------------------------------------------------------------
  Parsing control.in (first pass over file, find array dimensions only).
  The contents of control.in will be repeated verbatim below
  unless switched off by setting 'verbatim_writeout .false.' .
  in the first line of control.in .
  -----------------------------------------------------------------------
  
  #########################################################################################
  #
  #  Test run input file control.in
  #
  #########################################################################################
  
  #  Physical model
    qpe_calc ev_scgw
    xc               pbe0
    spin             none
    relativistic     none
    anacon_type      pade
    frequency_points 100
    contour_def_gw   1 2
    nocc_sc_cd  3
    nvirt_sc_cd 3
    iterations_sc_cd 2
    print_self_energy 1 -535 -534
  
    occupation_type    gaussian 0.01
    mixer              pulay
      n_max_pulay        10
      charge_mix_param   0.2
    sc_accuracy_rho    1E-5
    sc_accuracy_eev    1E-4
    sc_accuracy_etot   1E-6
    sc_iter_limit      100
    prodbas_threshold  1.e-4
  ################################################################################
  #
  #  FHI-aims code project
  #  VB, Fritz-Haber Institut, 2009
  #
  #  Suggested "light" defaults for H atom (to be pasted into control.in file)
  #  Be sure to double-check any results obtained with these settings for post-processing,
  #  e.g., with the "tight" defaults and larger basis sets.
  #
  ################################################################################
    species        H
  #     global species definitions
      nucleus             1
      mass                1.00794
  #
      l_hartree           4
  #
      cut_pot             3.5  1.5  1.0
      basis_dep_cutoff    1e-4
  #
      radial_base         24 5.0
      radial_multiplier   1
      angular_grids       specified
        division   0.2421   50
        division   0.3822  110
        division   0.4799  194
        division   0.5341  302
  #      division   0.5626  434
  #      division   0.5922  590
  #      division   0.6542  770
  #      division   0.6868 1202
  #      outer_grid  770
        outer_grid  302
  ################################################################################
  #
  #  Definition of "minimal" basis
  #
  ################################################################################
  #     valence basis states
      valence      1  s   1.
  #     ion occupancy
      ion_occ      1  s   0.5
  ################################################################################
  #
  #  Suggested additional basis functions. For production calculations,
  #  uncomment them one after another (the most important basis functions are
  #  listed first).
  #
  #  Basis constructed for dimers: 0.5 A, 0.7 A, 1.0 A, 1.5 A, 2.5 A
  #
  ################################################################################
  #  "First tier" - improvements: -1014.90 meV to -62.69 meV
       hydro 2 s 2.1
       hydro 2 p 3.5
  #  "Second tier" - improvements: -12.89 meV to -1.83 meV
  #     hydro 1 s 0.85
  #     hydro 2 p 3.7
  #     hydro 2 s 1.2
  #     hydro 3 d 7
  #  "Third tier" - improvements: -0.25 meV to -0.12 meV
  #     hydro 4 f 11.2
  #     hydro 3 p 4.8
  #     hydro 4 d 9
  #     hydro 3 s 3.2
  ################################################################################
  #
  #  FHI-aims code project
  #  VB, Fritz-Haber Institut, 2009
  #
  #  Suggested "light" defaults for O atom (to be pasted into control.in file)
  #  Be sure to double-check any results obtained with these settings for post-processing,
  #  e.g., with the "tight" defaults and larger basis sets.
  #
  ################################################################################
    species        O
  #     global species definitions
      nucleus             8
      mass                15.9994
  #
      l_hartree           4
  #
      cut_pot             3.5  1.5  1.0
      basis_dep_cutoff    1e-4
  #
      radial_base         36 5.0
      radial_multiplier   1
       angular_grids specified
        division   0.2659   50
        division   0.4451  110
        division   0.6052  194
        division   0.7543  302
  #      division   0.8014  434
  #      division   0.8507  590
  #      division   0.8762  770
  #      division   0.9023  974
  #      division   1.2339 1202
  #      outer_grid 974
        outer_grid 302
  ################################################################################
  #
  #  Definition of "minimal" basis
  #
  ################################################################################
  #     valence basis states
      valence      2  s   2.
      valence      2  p   4.
  #     ion occupancy
      ion_occ      2  s   1.
      ion_occ      2  p   3.
  ################################################################################
  #
  #  Suggested additional basis functions. For production calculations,
  #  uncomment them one after another (the most important basis functions are
  #  listed first).
  #
  #  Constructed for dimers: 1.0 A, 1.208 A, 1.5 A, 2.0 A, 3.0 A
  #
  ################################################################################
  #  "First tier" - improvements: -699.05 meV to -159.38 meV
       hydro 2 p 1.8
       hydro 3 d 7.6
       hydro 3 s 6.4
  #  "Second tier" - improvements: -49.91 meV to -5.39 meV
  #     hydro 4 f 11.6
  #     hydro 3 p 6.2
  #     hydro 3 d 5.6
  #     hydro 5 g 17.6
  #     hydro 1 s 0.75
  #  "Third tier" - improvements: -2.83 meV to -0.50 meV
  #     ionic 2 p auto
  #     hydro 4 f 10.8
  #     hydro 4 d 4.7
  #     hydro 2 s 6.8
  #  "Fourth tier" - improvements: -0.40 meV to -0.12 meV
  #     hydro 3 p 5
  #     hydro 3 s 3.3
  #     hydro 5 g 15.6
  #     hydro 4 f 17.6
  #     hydro 4 d 14
  # Further basis functions - -0.08 meV and below
  #     hydro 3 s 2.1
  #     hydro 4 d 11.6
  #     hydro 3 p 16
  #     hydro 2 s 17.2
  
  -----------------------------------------------------------------------
  Completed first pass over input file control.in .
  -----------------------------------------------------------------------
  
  
  -----------------------------------------------------------------------
  Parsing geometry.in (first pass over file, find array dimensions only).
  The contents of geometry.in will be repeated verbatim below
  unless switched off by setting 'verbatim_writeout .false.' .
  in the first line of geometry.in .
  -----------------------------------------------------------------------
  
  atom      -0.0224546148       -0.0000353646       -0.0162226261    O
  atom       0.0226952710        0.0000129083        0.9530701005    H
  atom       0.9061016825        0.0000180931       -0.2977710918    H
  
  -----------------------------------------------------------------------
  Completed first pass over input file geometry.in .
  -----------------------------------------------------------------------
  

  Basic array size parameters:
  | Number of species                 :        2
  | Number of atoms                   :        3
  | Max. basis fn. angular momentum   :        2
  | Max. atomic/ionic basis occupied n:        2
  | Max. number of basis fn. types    :        2
  | Max. radial fns per species/type  :        3
  | Max. logarithmic grid size        :     1301
  | Max. radial integration grid size :       36
  | Max. angular integration grid size:      302
  | Max. angular grid division number :        8
  | Radial grid for Hartree potential :     1301
  | Number of spin channels           :        1

------------------------------------------------------------
          Reading file control.in.
------------------------------------------------------------
  Eigenvalue self-consistent GW quasiparticle calculation of excited states will be started after the DFT/HF calculation.
  XC: Using hybrid-PBE0 functionals.
  Spin treatment: No spin polarisation.
  Non-relativistic treatment of kinetic energy.
  Using Pade approximation for analytical continuation.
  Number of frequency points used for the self-energy calculation:    100
  Contour deformation in GW for the levels:      1     to       2
  Number of occupied states explicity calculated in ev_scGW or ev_scGW0 with CD:     3 for spin   1
  Number of virtual states explicity calculated in ev_scGW or ev_scGW0 with CD:      3 for spin   1
  Number of iterations for ev_scGW or ev_scGW0 with CD:     2
  Occupation type: Gaussian broadening, width =   0.100000E-01 eV.
  Using pulay charge density mixing.
  Pulay mixing - number of memorized iterations:   10
  Charge density mixing - mixing parameter:     0.2000
  Convergence accuracy of self-consistent charge density:  0.1000E-04
  Convergence accuracy of sum of eigenvalues:  0.1000E-03
  Convergence accuracy of total energy:  0.1000E-05
  Maximum number of s.-c. iterations  :   100
  Threshold for auxiliary basis singularities:  0.1000E-03
 
  Reading configuration options for species H                   .
  | Found nuclear charge :   1.0000
  | Found atomic mass :    1.00794000000000      amu
  | Found l_max for Hartree potential  :   4
  | Found cutoff potl. onset [A], width [A], scale factor :    3.50000    1.50000    1.00000
  | Threshold for basis-dependent cutoff potential is   0.100000E-03
  | Found data for basic radial integration grid :    24 points, outermost radius =    5.000 A
  | Found multiplier for basic radial grid :   1
  | Found angular grid specification: user-specified.
  | Specified grid contains     5 separate shells.
  | Check grid settings after all constraints further below.
  | Found free-atom valence shell :  1 s   1.000
  | No ionic wave fns used. Skipping ion_occ.
  | Found hydrogenic basis function :  2 s   2.100
  | Found hydrogenic basis function :  2 p   3.500
  Species H                   : Missing cutoff potential type.
  Defaulting to exp(1/x)/(1-x)^2 type cutoff potential.
  Species H : No 'logarithmic' tag. Using default grid for free atom:
  | Default logarithmic grid data [bohr] : 0.1000E-03 0.1000E+03 0.1012E+01
  Species H : On-site basis accuracy parameter (for Gram-Schmidt orthonormalisation) not specified.
  Using default value basis_acc =  0.1000000E-03.
  Species H                   : Using default innermost maximum threshold i_radial=  2 for radial functions.
  Species H                   : Default cutoff onset for free atom density etc. is infinite
  since the product basis is used (hybrid functionals, Hartree-Fock, GW etc.).
  Species H                   : Basic radial grid will be enhanced according to radial_multiplier =   1, to contain    24 grid points.
 
  Reading configuration options for species O                   .
  | Found nuclear charge :   8.0000
  | Found atomic mass :    15.9994000000000      amu
  | Found l_max for Hartree potential  :   4
  | Found cutoff potl. onset [A], width [A], scale factor :    3.50000    1.50000    1.00000
  | Threshold for basis-dependent cutoff potential is   0.100000E-03
  | Found data for basic radial integration grid :    36 points, outermost radius =    5.000 A
  | Found multiplier for basic radial grid :   1
  | Found angular grid specification: user-specified.
  | Specified grid contains     5 separate shells.
  | Check grid settings after all constraints further below.
  | Found free-atom valence shell :  2 s   2.000
  | Found free-atom valence shell :  2 p   4.000
  | No ionic wave fns used. Skipping ion_occ.
  | No ionic wave fns used. Skipping ion_occ.
  | Found hydrogenic basis function :  2 p   1.800
  | Found hydrogenic basis function :  3 d   7.600
  | Found hydrogenic basis function :  3 s   6.400
  Species O                   : Missing cutoff potential type.
  Defaulting to exp(1/x)/(1-x)^2 type cutoff potential.
  Species O : No 'logarithmic' tag. Using default grid for free atom:
  | Default logarithmic grid data [bohr] : 0.1000E-03 0.1000E+03 0.1012E+01
  Species O : On-site basis accuracy parameter (for Gram-Schmidt orthonormalisation) not specified.
  Using default value basis_acc =  0.1000000E-03.
  Species O                   : Using default innermost maximum threshold i_radial=  2 for radial functions.
  Species O                   : Default cutoff onset for free atom density etc. is infinite
  since the product basis is used (hybrid functionals, Hartree-Fock, GW etc.).
  Species O                   : Basic radial grid will be enhanced according to radial_multiplier =   1, to contain    36 grid points.
 
  Finished reading input file 'control.in'. Consistency checks are next.
 
  MPI_IN_PLACE appears to work with this MPI implementation.
  | Keeping use_mpi_in_place .true. (see manual).
  Explicit treatment of the Coulomb operator is needed, but the RI method is not specified.
  Coulomb operator: Defaulting to 'RI-V' resolution of identity - RI_type = V 
  Species H: Using default value for prodbas_acc =   1.000000E-02.
  Species H: Using default value max_l_prodbas =     5.
  Explicit treatment of the Coulomb operator is needed, but the RI method is not specified.
  Coulomb operator: Defaulting to 'RI-V' resolution of identity - RI_type = V 
  Species O: Using default value for prodbas_acc =   1.000000E-02.
  Species O: Using default value max_l_prodbas =     5.
 * Species O: Specified min. number of angular integration points is    50
 * The angular momenta for this species require   110 for RI_type 'V'. Increasing angular_min to   110.
 * Species O: Grid shell     1 contains only    50 angular integration points.
 * Increasing to angular_min =   110 integration points.
 * This change is related to the three-center integrals used in RI_method 'V'.
  Target number of points in a grid batch is not set. Defaulting to  100
  Method for grid partitioning is not set. Defaulting to parallel hash+maxmin partitioning.
  Batch size limit is not set. Defaulting to    200
  By default, will store active basis functions for each batch.
  If in need of memory, prune_basis_once .false. can be used to disable this option.
  communication_type for Hartree potential was not specified.
  Defaulting to calc_hartree .
  Pulay mixer: Number of initial linear mixing iterations not set.
  Defaulting to    0 iterations.
  Work space size for distributed Hartree potential not set.
  Defaulting to   0.200000E+03 MB.
  Algorithm-dependent basis array size parameters:
  | n_max_pulay                         :       10
  Presetting      1001 iterations before the initial mixing cycle
  is restarted anyway using the sc_init_iter criterion / keyword.
  Presetting a factor      1.000 between actual scf density residual
  and density convergence criterion sc_accuracy_rho below which sc_init_iter
  takes no effect.
  Calculation of forces was not defined in control.in. No forces will be calculated.
  Geometry relaxation not requested: no relaxation will be performed.
  No accuracy limit for integral partition fn. given. Defaulting to  0.1000E-14.
  No threshold value for u(r) in integrations given. Defaulting to  0.1000E-05.
  No accuracy for occupation numbers given. Defaulting to  0.1000E-12.
  No threshold value for occupation numbers given. Defaulting to  0.0000E+00.
  No accuracy for fermi level given. Defaulting to  0.1000E-19.
  Maximum # of iterations to find E_F not set. Defaulting to  200.
  Preferred method for the eigenvalue solver ('KS_method') not specified in 'control.in'.
  Calling BLACS routine to test compilation state
  Since ScaLAPACK support is enabled, defaulting to ELPA (via ELSI).
  Will not use alltoall communication since running on < 1024 CPUs.
  Threshold for basis singularities not set.
  Default threshold for basis singularities:  0.1000E-04
  partition_type (choice of integration weights) for integrals was not specified.
  | Using a version of the partition function of Stratmann and coworkers ('stratmann_sparse').
  | At each grid point, the set of atoms used to build the partition table is smoothly restricted to
  | only those atoms whose free-atom density would be non-zero at that grid point.
  Partitioning for Hartree potential was not defined. Using partition_type for integrals.
  | Adjusted default value of keyword multip_moments_threshold to:       0.10000000E-11
  | This value may affect high angular momentum components of the Hartree potential in periodic systems.
  No q(lm)/r^(l+1) cutoff set for long-range Hartree potential.
  | Using default value of  0.100000E-09 .
  | Verify using the multipole_threshold keyword.
  Defaulting to new monopole extrapolation.
  Density update method: automatic selection selected.
  KS-based density update method is selected as as Hartree-Fock with RI-V needs packed_matrix_format "none"
  Charge integration errors on the 3D integration grid will be compensated
  by explicit normalization and distribution of residual charges.
  Use the "compensate_multipole_errors" flag to change this behaviour.
  Default to 1D ("use_logsbt") integrations for auxiliary 2-center integrals.
  Default onset of logarithmic r-grid for SBT is-38.000000000000
  Default onset of logarithmic k-grid for SBT is-25.000000000000
  Default range of logarithmic r- and k-grid for SBT is 45.000000000000
  Default number of logarithmic r- and k-grid for SBT is  4096
  Default of use_2d_corr is to use the efficient 2D distribution where possible
------------------------------------------------------------


------------------------------------------------------------
          Reading geometry description geometry.in.
------------------------------------------------------------
  Input structure read successfully.
  The structure contains        3 atoms,  and a total of         10.000 electrons.

  Input geometry:
  | No unit cell requested.
  | Atomic structure:
  |       Atom                x [A]            y [A]            z [A]
  |    1: Species O            -0.02245461       -0.00003536       -0.01622263
  |    2: Species H             0.02269527        0.00001291        0.95307010
  |    3: Species H             0.90610168        0.00001809       -0.29777109
  | The smallest distance between any two atoms is         0.97030219 AA.
  | The first atom of this pair is atom number                      1 .
  | The second atom of this pair is atom number                     3 .

  Number of empty states per atom not set in control.in .
  | Since you are using a method that relies on the unoccupied spectrum
  | (MP2,GW,RPA et al.), will use the full Hamiltonian size (see below)
  | as the max. possible number of states (occupied plus empty).

  Structure-dependent array size parameters: 
  | Maximum number of distinct radial functions  :        9
  | Maximum number of basis functions            :       24
  | Number of Kohn-Sham states (occupied + empty):       24
------------------------------------------------------------

------------------------------------------------------------
          Preparing all fixed parts of the calculation.
------------------------------------------------------------
  Determining machine precision:
    2.225073858507201E-308
  Setting up grids for atomic and cluster calculations.

  Creating wave function, potential, and density for free atoms.

  Species: H

  List of occupied orbitals and eigenvalues:
    n    l              occ      energy [Ha]    energy [eV]
    1    0           1.0000        -0.238600        -6.4926


  Species: O

  List of occupied orbitals and eigenvalues:
    n    l              occ      energy [Ha]    energy [eV]
    1    0           2.0000       -18.898644      -514.2583
    2    0           2.0000        -0.878848       -23.9147
    2    1           4.0000        -0.332128        -9.0377

  Creating fixed part of basis set: Ionic, confined, hydrogenic.
 
  H                    hydrogenic:
 
  List of hydrogenic basis orbitals: 
    n    l      effective z      eigenvalue [eV]  inner max. [A]     outer max. [A]     outer radius [A]   
    2    0         2.100000       -14.9728           0.193243           1.317208           4.583499
    2    1         3.500000       -41.6669           0.602369           0.602369           3.723403
 
 
  O                    hydrogenic:
 
  List of hydrogenic basis orbitals: 
    n    l      effective z      eigenvalue [eV]  inner max. [A]     outer max. [A]     outer radius [A]   
    2    1         1.800000       -10.9749           1.164242           1.164242           4.578029
    3    2         7.600000       -87.3180           0.624125           0.624125           3.251020
    3    0         6.400000       -61.9207           0.061167           1.081902           4.001998
 

  Adding cutoff potential to free-atom effective potential.
  Creating atomic-like basis functions for current effective potential.

  Species H                   :

  List of atomic basis orbitals and eigenvalues:
    n    l      energy [Ha]    energy [eV]    outer radius [A]
    1    0        -0.238398        -6.4871       4.527807


  Species O                   :

  List of atomic basis orbitals and eigenvalues:
    n    l      energy [Ha]    energy [eV]    outer radius [A]
    1    0       -18.898644      -514.2583       1.415765
    2    0        -0.878848       -23.9147       4.413171
    2    1        -0.332107        -9.0371       4.522403

  Assembling full basis from fixed parts.
  | Species H :   atomic orbital   1 s accepted.
  | Species H :    hydro orbital   2 s accepted.
  | Species H :    hydro orbital   2 p accepted.
  | Species O :   atomic orbital   1 s accepted.
  | Species O :    hydro orbital   3 s accepted.
  | Species O :   atomic orbital   2 s accepted.
  | Species O :   atomic orbital   2 p accepted.
  | Species O :    hydro orbital   2 p accepted.
  | Species O :    hydro orbital   3 d accepted.
 
  Basis size parameters after reduction:
  | Total number of radial functions:        9
  | Total number of basis functions :       24
 
  Per-task memory consumption for arrays in subroutine allocate_ext:
  |           2.249332MB.
  Testing on-site integration grid accuracy.
  |  Species  Function  <phi|h_atom|phi> (log., in eV)  <phi|h_atom|phi> (rad., in eV)
           1        1                 -6.4883250361                 -6.4871241952
           1        2                 13.6853472746                 13.6912335226
           1        3                 25.2448325417                 25.2449751640
           2        4               -514.2582716877               -514.2581672043
           2        5                 15.1739158860                 15.1738797695
           2        6                -21.5462549393                -21.5463595781
           2        7                 -9.0372478322                 -9.0374059623
           2        8                  8.2963895611                  8.2771328962
           2        9                 45.8256485372                 45.8255895587

  Preparing densities etc. for the partition functions (integrals / Hartree potential).

  Preparations completed.
  max(cpu_time)          :      0.095 s.
  Wall clock time (cpu1) :      0.094 s.
------------------------------------------------------------

------------------------------------------------------------
          Begin self-consistency loop: Initialization.

          Date     :  20190817, Time     :  154156.518
------------------------------------------------------------

  Initializing index lists of integration centers etc. from given atomic structure:
  | Number of centers in hartree potential         :         3
  | Number of centers in hartree multipole         :         3
  | Number of centers in electron density summation:         3
  | Number of centers in basis integrals           :         3
  | Number of centers in integrals                 :         3
  | Number of centers in hamiltonian               :         3
  * Using 8 tasks for Scalapack Eigenvalue solver.
  Detailed listing of tasks and assigned k-points:
  (for non-periodic systems, the "k-point" denotes an internal label only)
   Task     0 k-point     1 on co1631
   Task     1 k-point     1 on co1631
   Task     2 k-point     1 on co1631
   Task     3 k-point     1 on co1631
   Task     4 k-point     1 on co1631
   Task     5 k-point     1 on co1631
   Task     6 k-point     1 on co1631
   Task     7 k-point     1 on co1631
  Tasks:     8 split into      4 X      2 BLACS grid
  Calculating block size based on n_basis =           24  max_nprow =            4  max_npcol =            2
  ScaLAPACK block size set to:            4
  Allocating        0.001 MB for ovlp
  Allocating        0.001 MB for ham
  Allocating        0.001 MB for eigenvec
  Required Scalapack workspace - INTEGER:            1  REAL:             1
  Partitioning the integration grid into batches with parallel hashing+maxmin method.
  | Number of batches:      224
  | Maximal batch size:      97
  | Minimal batch size:      62
  | Average batch size:      74.839
  | Standard deviation of batch sizes:      10.926

  Integration load balanced across     8 MPI tasks.
  Work distribution over tasks is as follows:
  Task     0 has       2131 integration points.
  Task     1 has       2087 integration points.
  Task     2 has       2086 integration points.
  Task     3 has       2106 integration points.
  Task     4 has       2092 integration points.
  Task     5 has       2105 integration points.
  Task     6 has       2094 integration points.
  Task     7 has       2063 integration points.
  Initializing partition tables, free-atom densities, potentials, etc. across the integration grid (initialize_grid_storage).
  | Species        1: outer_partition_radius set to             16.344003741102970 AA .
  | Species        2: outer_partition_radius set to             11.592603489656513 AA .
  | The sparse table of interatomic distances needs          0.09 kbyte instead of         0.07 kbyte of memory.
  | Using the partition_type stratmann_smoother will reduce your memory usage.
  | Net number of integration points:    16764
  | of which are non-zero points    :    15178
  Renormalizing the initial density to the exact electron count on the 3D integration grid.
  | Initial density: Formal number of electrons (from input files) :      10.0000000000
  | Integrated number of electrons on 3D grid     :       9.9999727523
  | Charge integration error                      :      -0.0000272477
  | Normalization factor for density and gradient :       1.0000027248
  Renormalizing the free-atom superposition density to the exact electron count on the 3D integration grid.
  | Formal number of electrons (from input files) :      10.0000000000
  | Integrated number of electrons on 3D grid     :       9.9999727523
  | Charge integration error                      :      -0.0000272477
  | Normalization factor for density and gradient :       1.0000027248
  Obtaining max. number of non-zero basis functions in each batch (get_n_compute_maxes).
  | Maximal number of non-zero basis functions:       24 in task     0
  | Maximal number of non-zero basis functions:       24 in task     1
  | Maximal number of non-zero basis functions:       24 in task     2
  | Maximal number of non-zero basis functions:       24 in task     3
  | Maximal number of non-zero basis functions:       24 in task     4
  | Maximal number of non-zero basis functions:       24 in task     5
  | Maximal number of non-zero basis functions:       24 in task     6
  | Maximal number of non-zero basis functions:       24 in task     7
  Allocating        0.004 MB for KS_eigenvector
  Integrating Hamiltonian matrix: batch-based integration.
  Time summed over all CPUs for integration: real work        0.036 s, elapsed        0.037 s
  Integrating overlap matrix.
  Time summed over all CPUs for integration: real work        0.012 s, elapsed        0.013 s
  Deallocating overlap matrix.

  Updating Kohn-Sham eigenvalues and eigenvectors using ELSI and the ELPA eigensolver.
  Overlap matrix is not singular
  | Lowest and highest eigenvalues :  0.1647E-01,  0.2707E+01
  Finished singularity check of overlap matrix
  | Time :     0.001 s
  Starting ELPA eigensolver
  Finished Cholesky decomposition
  | Time :     0.001 s
  Finished transformation to standard eigenproblem
  | Time :     0.000 s
  Finished solving standard eigenproblem
  | Time :     0.001 s
  Finished back-transformation of eigenvectors
  | Time :     0.000 s

  Obtaining occupation numbers and chemical potential using ELSI.
  | Chemical potential (Fermi level):   -10.26763471 eV
  Writing Kohn-Sham eigenvalues.

  State    Occupation    Eigenvalue [Ha]    Eigenvalue [eV]
      1       2.00000         -19.005373         -517.16250
      2       2.00000          -1.095766          -29.81731
      3       2.00000          -0.627003          -17.06163
      4       2.00000          -0.509838          -13.87340
      5       2.00000          -0.437272          -11.89878
      6       0.00000          -0.050274           -1.36802
      7       0.00000           0.031520            0.85769
      8       0.00000           0.214694            5.84213
      9       0.00000           0.248182            6.75338
     10       0.00000           0.301249            8.19740
     11       0.00000           0.505160           13.74612
     12       0.00000           0.695546           18.92678
     13       0.00000           0.795021           21.63362
     14       0.00000           0.877311           23.87284
     15       0.00000           1.022652           27.82777
     16       0.00000           1.033581           28.12516
     17       0.00000           1.452180           39.51582
     18       0.00000           1.820442           49.53674
     19       0.00000           1.927504           52.45004
     20       0.00000           2.144693           58.36007
     21       0.00000           2.250649           61.24327
     22       0.00000           2.269970           61.76902
     23       0.00000           2.764504           75.22598
     24       0.00000           3.072309           83.60178

  Highest occupied state (VBM) at    -11.89877792 eV
  | Occupation number:      2.00000000

  Lowest unoccupied state (CBM) at    -1.36801713 eV
  | Occupation number:      0.00000000

  Overall HOMO-LUMO gap:     10.53076079 eV.
  Calculating total energy contributions from superposition of free atom densities.

  Total energy components:
  | Sum of eigenvalues            :         -43.35050385 Ha       -1179.62722843 eV
  | XC energy correction          :          -9.01148458 Ha        -245.21497171 eV
  | XC potential correction       :          11.58676416 Ha         315.29189455 eV
  | Free-atom electrostatic energy:         -35.68255992 Ha        -970.97185783 eV
  | Hartree energy correction     :           0.00000000 Ha           0.00000000 eV
  | Entropy correction            :           0.00000000 Ha           0.00000000 eV
  | ---------------------------
  | Total energy                  :         -76.45778418 Ha       -2080.52216341 eV
  | Total energy, T -> 0          :         -76.45778418 Ha       -2080.52216341 eV  <-- do not rely on this value for anything but (periodic) metals
  | Electronic free energy        :         -76.45778418 Ha       -2080.52216341 eV

  Derived energy quantities:
  | Kinetic energy                :          75.52441037 Ha        2055.12376972 eV
  | Electrostatic energy          :        -142.97070998 Ha       -3890.43096142 eV
  | Energy correction for multipole
  | error in Hartree potential    :           0.00000000 Ha           0.00000000 eV
  | Sum of eigenvalues per atom                           :        -393.20907614 eV
  | Total energy (T->0) per atom                          :        -693.50738780 eV  <-- do not rely on this value for anything but (periodic) metals
  | Electronic free energy per atom                       :        -693.50738780 eV
 
 --------------------------------------------
  Constructing auxiliary basis (full product) ...
 
  Product basis:
  | charge radius: extent of product basis function
  | field radius: extent of its Coulomb potential
  | Species   l  charge radius    field radius  multipol momen
  |    H      1     3.910002 A      3.910002 A        1.348024E-16 a.u.
  |    H      0     4.527807 A      4.527807 A        6.407605E-16 a.u.
  |    H      0     4.527807 A      4.583499 A        5.700773E-16 a.u.
  |    H      2     3.678162 A  1.011968E+04 A            0.556529 a.u.
  |    H      1     3.958095 A  1.525135E+06 A            0.661004 a.u.
  |    H      0     4.527807 A  3.536449E+12 A            0.531810 a.u.
  |    O      0     2.043000 A      2.043000 A       -1.111266E-16 a.u.
  |    O      3     3.498446 A      3.498446 A        6.046445E-16 a.u.
  |    O      3     3.498446 A      3.498446 A        5.613495E-16 a.u.
  |    O      0     3.905335 A      3.905335 A       -1.845051E-16 a.u.
  |    O      0     4.101052 A      4.101052 A       -2.954922E-17 a.u.
  |    O      1     4.101052 A      4.101052 A        4.901582E-17 a.u.
  |    O      0     4.359549 A      4.359549 A       -1.095351E-16 a.u.
  |    O      1     4.413171 A      4.413171 A        1.405407E-16 a.u.
  |    O      1     4.413171 A      4.413171 A       -1.255921E-16 a.u.
  |    O      2     4.522403 A      4.522403 A        1.115366E-17 a.u.
  |    O      1     4.578029 A      4.578029 A       -5.564396E-17 a.u.
  |    O      2     4.578029 A      4.578029 A       -1.012732E-15 a.u.
  |    O      2     4.522403 A      4.578029 A        1.258396E-15 a.u.
  |    O      0     4.578029 A      4.634338 A       -1.338625E-17 a.u.
  |    O      4     3.251020 A  2.395699E+02 A            1.513372 a.u.
  |    O      3     3.541477 A  1.435495E+03 A            4.309160 a.u.
  |    O      2     4.578029 A  2.060434E+04 A            4.697457 a.u.
  |    O      1     4.578029 A  2.417254E+06 A            1.660475 a.u.
  |    O      0     4.578029 A  3.945086E+12 A            0.593261 a.u.

  | Shrink_full_auxil_basis : there are       25  radial auxiliary wave functions
                            accepted and      18 rejected.
  | Shrink_full_auxil_basis : there are totally                  99 partial auxiliary wave functions.
 
  | Maximal number of product basis functions per thread :    15    15
 
  | Minimal total memory requirement for three-center overlap :       0.000 Gbs
  | Number of local auxiliary basis functions on task:      0    15
  | Number of local auxiliary basis functions on task:      1    12
  | Number of local auxiliary basis functions on task:      2    12
  | Number of local auxiliary basis functions on task:      3    12
  | Number of local auxiliary basis functions on task:      4    12
  | Number of local auxiliary basis functions on task:      5    12
  | Number of local auxiliary basis functions on task:      6    12
  | Number of local auxiliary basis functions on task:      7    12
  | 2D aux task distribution:      2 X      4
  | 2D block size (nb_aux_2d):     32
  | Task at    0 x    0 gets     64 x     32 entries of 2D aux
  | Task at    0 x    1 gets     64 x     32 entries of 2D aux
  | Task at    0 x    2 gets     64 x     32 entries of 2D aux
  | Task at    0 x    3 gets     64 x      3 entries of 2D aux
  | Task at    1 x    0 gets     35 x     32 entries of 2D aux
  | Task at    1 x    1 gets     35 x     32 entries of 2D aux
  | Task at    1 x    2 gets     35 x     32 entries of 2D aux
  | Task at    1 x    3 gets     35 x      3 entries of 2D aux
 
  Basis pair condensation :       300  -->        300
 
 ----------------------------------------------------
  Integrating the 3-basis-function Coulomb matrix ...
  | i_atom:            1
  | i_atom:            2
  | i_atom:            3
  Integrating the Coulomb interaction matrix for auxiliary basis functions (by atoms)

  SBT integration errors (all should be 'small'):
  large logFT aliasing -> increase N/lnrange
  large SBT aliasing -> decrease lnk0 & increase lnk0+lnrange
  large SBT ringing -> decrease lnr0 & increase lnr0+lnrange
  |            El't  L: logFT-al.   small-k   large-k   small-r   large-r
  Atomic logSBT for 2-center Coulomb matrix    :  max(cpu_time)    wall_clock(cpu1)
  | Multiplication with kernel                 :        0.002 s           0.002 s
  | Main matrix multiplication                 :        0.005 s           0.004 s
  | Analytic angular integration               :        0.003 s           0.000 s
  | Kernel construction                        :        0.002 s           0.000 s
  | Overall 2-center overlap time              :        0.019 s           0.009 s

  Diagonalizing the Coulomb matrix and checking for singularities with ScaLapack .
 
  Difference of Coulomb matrix to its transposed:  3.3307E-16
  Eigenvalues of the Coulomb matrix range from    2.9743E+00 to    4.5645E-05.
  Using       97   eigenvalues out of rank       99   Coulomb matrix (auxiliary basis).
  Still using eigenvalue     4.8746E-03 while cutting     8.0378E-05 in Coulomb matrix.
 
  Multiplying ovlp_3fn x V^-0.5 (2d-scalapack)

  Initialize hartree_potential_storage
  Max. number of atoms included in rho_multipole:            3

  End scf initialization - timings             :  max(cpu_time)    wall_clock(cpu1)
  | Time for scf. initialization               :        0.154 s           0.155 s
  | Boundary condition initialization          :        0.000 s           0.000 s
  | Integration                                :        0.007 s           0.007 s
  | Solution of K.-S. eqns.                    :        0.003 s           0.003 s
  | Grid partitioning                          :        0.006 s           0.007 s
  | Preloading free-atom quantities on grid    :        0.002 s           0.001 s
  | Free-atom superposition energy             :        0.002 s           0.002 s
  | Total energy evaluation                    :        0.000 s           0.000 s
  | Product basis setup: Total time            :        0.129 s           0.129 s
  | Product basis: | 3-center integrations     :        0.041 s           0.041 s
  | Product basis: | 2-center integrations     :        0.058 s           0.058 s
  | Product basis: | 2-center linear algebra   :        0.003 s           0.003 s
  | Product basis: | 3-center x 2-center       :        0.001 s           0.001 s

  Partial memory accounting:
  | Current value for overall tracked memory usage:
  |   Minimum:        0.008 MB (on task 4)
  |   Maximum:        0.009 MB (on task 0)
  |   Average:        0.009 MB
  | Peak value for overall tracked memory usage:
  |   Minimum:        0.069 MB (on task 5 after allocating wave)
  |   Maximum:        0.107 MB (on task 0 after allocating wave)
  |   Average:        0.082 MB
  | Largest tracked array allocation so far:
  |   Minimum:        0.023 MB (all_coords on task 5)
  |   Maximum:        0.069 MB (all_coords on task 0)
  |   Average:        0.048 MB
  Note:  These values currently only include a subset of arrays which are explicitly tracked.
  The "true" memory usage will be greater.
------------------------------------------------------------

------------------------------------------------------------
          Begin self-consistency iteration #    1

  Date     :  20190817, Time     :  154156.674
------------------------------------------------------------
  Evaluating new KS density.
  Integration grid: deviation in total charge (<rho> - N_e) =   0.000000E+00
  Pulay mixing of updated and previous charge densities.
  Renormalizing the density to the exact electron count on the 3D integration grid.
  | Formal number of electrons (from input files) :      10.0000000000
  | Integrated number of electrons on 3D grid     :      10.0000000000
  | Charge integration error                      :      -0.0000000000
  | Normalization factor for density and gradient :       1.0000000000

  Evaluating partitioned Hartree potential by multipole expansion.
  | Original multipole sum: apparent total charge =  -0.788358E-14
  | Sum of charges compensated after spline to logarithmic grids =   0.139985E-04
  | Analytical far-field extrapolation by fixed multipoles:
  | Hartree multipole sum: apparent total charge =  -0.766220E-14
  Summing up the Hartree potential.
  Time summed over all CPUs for potential: real work        0.028 s, elapsed        0.029 s
  | RMS charge density error from multipole expansion :   0.140985E-02

  Integrating Hamiltonian matrix: batch-based integration.
  Time summed over all CPUs for integration: real work        0.034 s, elapsed        0.036 s
  Evaluating the exchange matrix ... 

  Updating Kohn-Sham eigenvalues and eigenvectors using ELSI and the ELPA eigensolver.
  Starting ELPA eigensolver
  Finished transformation to standard eigenproblem
  | Time :     0.000 s
  Finished solving standard eigenproblem
  | Time :     0.000 s
  Finished back-transformation of eigenvectors
  | Time :     0.000 s

  Obtaining occupation numbers and chemical potential using ELSI.
  | Chemical potential (Fermi level):    -7.57129736 eV
  Writing Kohn-Sham eigenvalues.

  State    Occupation    Eigenvalue [Ha]    Eigenvalue [eV]
      1       2.00000         -19.309810         -525.44667
      2       2.00000          -1.150014          -31.29348
      3       2.00000          -0.640808          -17.43728
      4       2.00000          -0.518721          -14.11511
      5       2.00000          -0.445640          -12.12649
      6       0.00000           0.008096            0.22030
      7       0.00000           0.104314            2.83852
      8       0.00000           0.290606            7.90779
      9       0.00000           0.326113            8.87400
     10       0.00000           0.368021           10.01437
     11       0.00000           0.591819           16.10421
     12       0.00000           0.794497           21.61937
     13       0.00000           0.889428           24.20257
     14       0.00000           0.968565           26.35598
     15       0.00000           1.119315           30.45812
     16       0.00000           1.146105           31.18712
     17       0.00000           1.544203           42.01991
     18       0.00000           1.951945           53.11514
     19       0.00000           2.054589           55.90820
     20       0.00000           2.288693           62.27849
     21       0.00000           2.401528           65.34889
     22       0.00000           2.423144           65.93710
     23       0.00000           2.928192           79.68016
     24       0.00000           3.246125           88.33155

  Highest occupied state (VBM) at    -12.12648865 eV
  | Occupation number:      2.00000000

  Lowest unoccupied state (CBM) at     0.22029696 eV
  | Occupation number:      0.00000000

  Overall HOMO-LUMO gap:     12.34678561 eV.

  Total energy components:
  | Sum of eigenvalues            :         -44.12998710 Ha       -1200.83804698 eV
  | XC energy correction          :          -4.60459486 Ha        -125.29740110 eV
  | XC potential correction       :           8.90035283 Ha         242.19092296 eV
  | Free-atom electrostatic energy:         -35.68255992 Ha        -970.97185783 eV
  | Hartree energy correction     :          -0.88964893 Ha         -24.20857911 eV
  | Entropy correction            :           0.00000000 Ha           0.00000000 eV
  | ---------------------------
  | Total energy                  :         -76.40643798 Ha       -2079.12496205 eV
  | Total energy, T -> 0          :         -76.40643798 Ha       -2079.12496205 eV  <-- do not rely on this value for anything but (periodic) metals
  | Electronic free energy        :         -76.40643798 Ha       -2079.12496205 eV

  Derived energy quantities:
  | Kinetic energy                :          90.10429231 Ha        2451.86254309 eV
  | Electrostatic energy          :        -143.41704998 Ha       -3902.57649076 eV
  | Energy correction for multipole
  | error in Hartree potential    :           0.00043085 Ha           0.01172413 eV
  | Sum of eigenvalues per atom                           :        -400.27934899 eV
  | Total energy (T->0) per atom                          :        -693.04165402 eV  <-- do not rely on this value for anything but (periodic) metals
  | Electronic free energy per atom                       :        -693.04165402 eV

  Self-consistency convergence accuracy:
  | Change of charge density      :  0.3075E+00
  | Change of sum of eigenvalues  : -0.2121E+02 eV
  | Change of total energy        :  0.1397E+01 eV

  End self-consistency iteration #     1       :  max(cpu_time)    wall_clock(cpu1)
  | Time for this iteration                    :        0.015 s           0.014 s
  | Charge density update                      :        0.003 s           0.003 s
  | Density mixing                             :        0.000 s           0.000 s
  | Hartree multipole update                   :        0.001 s           0.001 s
  | Hartree multipole summation                :        0.004 s           0.004 s
  | Integration                                :        0.005 s           0.005 s
  | Fock matrix evaluation                     :        0.001 s           0.000 s
  | Solution of K.-S. eqns.                    :        0.001 s           0.001 s
  | Total energy evaluation                    :        0.000 s           0.000 s

  Partial memory accounting:
  | Current value for overall tracked memory usage:
  |   Minimum:        0.008 MB (on task 4)
  |   Maximum:        0.009 MB (on task 0)
  |   Average:        0.009 MB
  | Peak value for overall tracked memory usage:
  |   Minimum:        0.079 MB (on task 4 after allocating gradient_basis_wave)
  |   Maximum:        0.107 MB (on task 0 after allocating gradient_basis_wave)
  |   Average:        0.086 MB
  | Largest tracked array allocation so far:
  |   Minimum:        0.053 MB (gradient_basis_wave on task 1)
  |   Maximum:        0.069 MB (gradient_basis_wave on task 0)
  |   Average:        0.057 MB
  Note:  These values currently only include a subset of arrays which are explicitly tracked.
  The "true" memory usage will be greater.
------------------------------------------------------------

------------------------------------------------------------
          Begin self-consistency iteration #    2

  Date     :  20190817, Time     :  154156.689
------------------------------------------------------------
  Evaluating new KS density.
  Integration grid: deviation in total charge (<rho> - N_e) =   5.329071E-15
  Pulay mixing of updated and previous charge densities.
  Renormalizing the density to the exact electron count on the 3D integration grid.
  | Formal number of electrons (from input files) :      10.0000000000
  | Integrated number of electrons on 3D grid     :      10.0000000000
  | Charge integration error                      :       0.0000000000
  | Normalization factor for density and gradient :       1.0000000000

  Evaluating partitioned Hartree potential by multipole expansion.
  | Original multipole sum: apparent total charge =  -0.396024E-14
  | Sum of charges compensated after spline to logarithmic grids =   0.398020E-04
  | Analytical far-field extrapolation by fixed multipoles:
  | Hartree multipole sum: apparent total charge =  -0.504254E-14
  Summing up the Hartree potential.
  Time summed over all CPUs for potential: real work        0.028 s, elapsed        0.031 s
  | RMS charge density error from multipole expansion :   0.361078E-02

  Integrating Hamiltonian matrix: batch-based integration.
  Time summed over all CPUs for integration: real work        0.034 s, elapsed        0.037 s
  Evaluating the exchange matrix ... 

  Updating Kohn-Sham eigenvalues and eigenvectors using ELSI and the ELPA eigensolver.
  Starting ELPA eigensolver
  Finished transformation to standard eigenproblem
  | Time :     0.000 s
  Finished solving standard eigenproblem
  | Time :     0.000 s
  Finished back-transformation of eigenvectors
  | Time :     0.000 s

  Obtaining occupation numbers and chemical potential using ELSI.
  | Chemical potential (Fermi level):    -4.74436921 eV
  Highest occupied state (VBM) at     -9.23580639 eV
  | Occupation number:      2.00000000

  Lowest unoccupied state (CBM) at     0.85462848 eV
  | Occupation number:      0.00000000

  Overall HOMO-LUMO gap:     10.09043487 eV.

  Checking to see if s.c.f. parameters should be adjusted.

  Total energy components:
  | Sum of eigenvalues            :         -42.96643403 Ha       -1169.17615709 eV
  | XC energy correction          :          -4.73039324 Ha        -128.72054930 eV
  | XC potential correction       :           9.03733918 Ha         245.91851116 eV
  | Free-atom electrostatic energy:         -35.68255992 Ha        -970.97185783 eV
  | Hartree energy correction     :          -2.04558110 Ha         -55.66309378 eV
  | Entropy correction            :           0.00000000 Ha           0.00000000 eV
  | ---------------------------
  | Total energy                  :         -76.38762911 Ha       -2078.61314683 eV
  | Total energy, T -> 0          :         -76.38762911 Ha       -2078.61314683 eV  <-- do not rely on this value for anything but (periodic) metals
  | Electronic free energy        :         -76.38762911 Ha       -2078.61314683 eV

  Derived energy quantities:
  | Kinetic energy                :          90.51811224 Ha        2463.12315629 eV
  | Electrostatic energy          :        -143.85401840 Ha       -3914.46700650 eV
  | Energy correction for multipole
  | error in Hartree potential    :           0.00015282 Ha           0.00415831 eV
  | Sum of eigenvalues per atom                           :        -389.72538570 eV
  | Total energy (T->0) per atom                          :        -692.87104894 eV  <-- do not rely on this value for anything but (periodic) metals
  | Electronic free energy per atom                       :        -692.87104894 eV

  Self-consistency convergence accuracy:
  | Change of charge density      :  0.1925E+00
  | Change of sum of eigenvalues  :  0.3166E+02 eV
  | Change of total energy        :  0.5118E+00 eV

  End self-consistency iteration #     2       :  max(cpu_time)    wall_clock(cpu1)
  | Time for this iteration                    :        0.015 s           0.015 s
  | Charge density update                      :        0.003 s           0.003 s
  | Density mixing                             :        0.001 s           0.001 s
  | Hartree multipole update                   :        0.001 s           0.001 s
  | Hartree multipole summation                :        0.004 s           0.004 s
  | Integration                                :        0.005 s           0.005 s
  | Fock matrix evaluation                     :        0.000 s           0.000 s
  | Solution of K.-S. eqns.                    :        0.001 s           0.000 s
  | Total energy evaluation                    :        0.000 s           0.000 s

  Partial memory accounting:
  | Current value for overall tracked memory usage:
  |   Minimum:        0.009 MB (on task 4)
  |   Maximum:        0.010 MB (on task 0)
  |   Average:        0.009 MB
  | Peak value for overall tracked memory usage:
  |   Minimum:        0.079 MB (on task 4 after allocating gradient_basis_wave)
  |   Maximum:        0.107 MB (on task 0 after allocating gradient_basis_wave)
  |   Average:        0.086 MB
  | Largest tracked array allocation so far:
  |   Minimum:        0.053 MB (gradient_basis_wave on task 1)
  |   Maximum:        0.069 MB (gradient_basis_wave on task 0)
  |   Average:        0.057 MB
  Note:  These values currently only include a subset of arrays which are explicitly tracked.
  The "true" memory usage will be greater.
------------------------------------------------------------

------------------------------------------------------------
          Begin self-consistency iteration #    3

  Date     :  20190817, Time     :  154156.704
------------------------------------------------------------
  Evaluating new KS density.
  Integration grid: deviation in total charge (<rho> - N_e) =  -7.105427E-15
  Pulay mixing of updated and previous charge densities.
  Renormalizing the density to the exact electron count on the 3D integration grid.
  | Formal number of electrons (from input files) :      10.0000000000
  | Integrated number of electrons on 3D grid     :      10.0000000000
  | Charge integration error                      :       0.0000000000
  | Normalization factor for density and gradient :       1.0000000000

  Evaluating partitioned Hartree potential by multipole expansion.
  | Original multipole sum: apparent total charge =   0.106262E-13
  | Sum of charges compensated after spline to logarithmic grids =   0.905456E-04
  | Analytical far-field extrapolation by fixed multipoles:
  | Hartree multipole sum: apparent total charge =   0.105770E-13
  Summing up the Hartree potential.
  Time summed over all CPUs for potential: real work        0.026 s, elapsed        0.027 s
  | RMS charge density error from multipole expansion :   0.469717E-02

  Integrating Hamiltonian matrix: batch-based integration.
  Time summed over all CPUs for integration: real work        0.035 s, elapsed        0.039 s
  Evaluating the exchange matrix ... 

  Updating Kohn-Sham eigenvalues and eigenvectors using ELSI and the ELPA eigensolver.
  Starting ELPA eigensolver
  Finished transformation to standard eigenproblem
  | Time :     0.001 s
  Finished solving standard eigenproblem
  | Time :     0.000 s
  Finished back-transformation of eigenvectors
  | Time :     0.000 s

  Obtaining occupation numbers and chemical potential using ELSI.
  | Chemical potential (Fermi level):    -7.30730811 eV
  Highest occupied state (VBM) at    -11.34632275 eV
  | Occupation number:      2.00000000

  Lowest unoccupied state (CBM) at     0.47677197 eV
  | Occupation number:      0.00000000

  Overall HOMO-LUMO gap:     11.82309473 eV.

  Total energy components:
  | Sum of eigenvalues            :         -43.99826160 Ha       -1197.25361376 eV
  | XC energy correction          :          -4.68725290 Ha        -127.54664101 eV
  | XC potential correction       :           8.90928560 Ha         242.43399601 eV
  | Free-atom electrostatic energy:         -35.68255992 Ha        -970.97185783 eV
  | Hartree energy correction     :          -0.95318890 Ha         -25.93758964 eV
  | Entropy correction            :           0.00000000 Ha           0.00000000 eV
  | ---------------------------
  | Total energy                  :         -76.41197772 Ha       -2079.27570623 eV
  | Total energy, T -> 0          :         -76.41197772 Ha       -2079.27570623 eV  <-- do not rely on this value for anything but (periodic) metals
  | Electronic free energy        :         -76.41197772 Ha       -2079.27570623 eV

  Derived energy quantities:
  | Kinetic energy                :          89.12504674 Ha        2425.21591543 eV
  | Electrostatic energy          :        -142.96268726 Ha       -3890.21265205 eV
  | Energy correction for multipole
  | error in Hartree potential    :          -0.00307564 Ha          -0.08369243 eV
  | Sum of eigenvalues per atom                           :        -399.08453792 eV
  | Total energy (T->0) per atom                          :        -693.09190208 eV  <-- do not rely on this value for anything but (periodic) metals
  | Electronic free energy per atom                       :        -693.09190208 eV

  Self-consistency convergence accuracy:
  | Change of charge density      :  0.1097E+00
  | Change of sum of eigenvalues  : -0.2808E+02 eV
  | Change of total energy        : -0.6626E+00 eV

  End self-consistency iteration #     3       :  max(cpu_time)    wall_clock(cpu1)
  | Time for this iteration                    :        0.015 s           0.015 s
  | Charge density update                      :        0.003 s           0.003 s
  | Density mixing                             :        0.001 s           0.001 s
  | Hartree multipole update                   :        0.001 s           0.001 s
  | Hartree multipole summation                :        0.004 s           0.003 s
  | Integration                                :        0.005 s           0.006 s
  | Fock matrix evaluation                     :        0.001 s           0.000 s
  | Solution of K.-S. eqns.                    :        0.001 s           0.001 s
  | Total energy evaluation                    :        0.000 s           0.000 s

  Partial memory accounting:
  | Current value for overall tracked memory usage:
  |   Minimum:        0.009 MB (on task 4)
  |   Maximum:        0.010 MB (on task 0)
  |   Average:        0.010 MB
  | Peak value for overall tracked memory usage:
  |   Minimum:        0.080 MB (on task 4 after allocating gradient_basis_wave)
  |   Maximum:        0.107 MB (on task 0 after allocating gradient_basis_wave)
  |   Average:        0.086 MB
  | Largest tracked array allocation so far:
  |   Minimum:        0.053 MB (gradient_basis_wave on task 1)
  |   Maximum:        0.069 MB (gradient_basis_wave on task 0)
  |   Average:        0.057 MB
  Note:  These values currently only include a subset of arrays which are explicitly tracked.
  The "true" memory usage will be greater.
------------------------------------------------------------

------------------------------------------------------------
          Begin self-consistency iteration #    4

  Date     :  20190817, Time     :  154156.720
------------------------------------------------------------
  Evaluating new KS density.
  Integration grid: deviation in total charge (<rho> - N_e) =   5.329071E-15
  Pulay mixing of updated and previous charge densities.
  Renormalizing the density to the exact electron count on the 3D integration grid.
  | Formal number of electrons (from input files) :      10.0000000000
  | Integrated number of electrons on 3D grid     :      10.0000000000
  | Charge integration error                      :      -0.0000000000
  | Normalization factor for density and gradient :       1.0000000000

  Evaluating partitioned Hartree potential by multipole expansion.
  | Original multipole sum: apparent total charge =  -0.452598E-14
  | Sum of charges compensated after spline to logarithmic grids =   0.118331E-03
  | Analytical far-field extrapolation by fixed multipoles:
  | Hartree multipole sum: apparent total charge =  -0.410782E-14
  Summing up the Hartree potential.
  Time summed over all CPUs for potential: real work        0.027 s, elapsed        0.029 s
  | RMS charge density error from multipole expansion :   0.663585E-02

  Integrating Hamiltonian matrix: batch-based integration.
  Time summed over all CPUs for integration: real work        0.036 s, elapsed        0.038 s
  Evaluating the exchange matrix ... 

  Updating Kohn-Sham eigenvalues and eigenvectors using ELSI and the ELPA eigensolver.
  Starting ELPA eigensolver
  Finished transformation to standard eigenproblem
  | Time :     0.000 s
  Finished solving standard eigenproblem
  | Time :     0.000 s
  Finished back-transformation of eigenvectors
  | Time :     0.000 s

  Obtaining occupation numbers and chemical potential using ELSI.
  | Chemical potential (Fermi level):    -5.01882174 eV
  Highest occupied state (VBM) at     -8.98767804 eV
  | Occupation number:      2.00000000

  Lowest unoccupied state (CBM) at     1.04510017 eV
  | Occupation number:      0.00000000

  Overall HOMO-LUMO gap:     10.03277821 eV.

  Total energy components:
  | Sum of eigenvalues            :         -43.06160793 Ha       -1171.76597048 eV
  | XC energy correction          :          -4.76053922 Ha        -129.54086319 eV
  | XC potential correction       :           9.02461174 Ha         245.57218010 eV
  | Free-atom electrostatic energy:         -35.68255992 Ha        -970.97185783 eV
  | Hartree energy correction     :          -1.88276485 Ha         -51.23263831 eV
  | Entropy correction            :           0.00000000 Ha           0.00000000 eV
  | ---------------------------
  | Total energy                  :         -76.36286017 Ha       -2077.93914971 eV
  | Total energy, T -> 0          :         -76.36286017 Ha       -2077.93914971 eV  <-- do not rely on this value for anything but (periodic) metals
  | Electronic free energy        :         -76.36286017 Ha       -2077.93914971 eV

  Derived energy quantities:
  | Kinetic energy                :          89.67158089 Ha        2440.08786637 eV
  | Electrostatic energy          :        -143.26704909 Ha       -3898.49475893 eV
  | Energy correction for multipole
  | error in Hartree potential    :          -0.00361770 Ha          -0.09844263 eV
  | Sum of eigenvalues per atom                           :        -390.58865683 eV
  | Total energy (T->0) per atom                          :        -692.64638324 eV  <-- do not rely on this value for anything but (periodic) metals
  | Electronic free energy per atom                       :        -692.64638324 eV

  Self-consistency convergence accuracy:
  | Change of charge density      :  0.1634E+00
  | Change of sum of eigenvalues  :  0.2549E+02 eV
  | Change of total energy        :  0.1337E+01 eV

  End self-consistency iteration #     4       :  max(cpu_time)    wall_clock(cpu1)
  | Time for this iteration                    :        0.015 s           0.014 s
  | Charge density update                      :        0.003 s           0.003 s
  | Density mixing                             :        0.000 s           0.000 s
  | Hartree multipole update                   :        0.001 s           0.001 s
  | Hartree multipole summation                :        0.004 s           0.004 s
  | Integration                                :        0.005 s           0.005 s
  | Fock matrix evaluation                     :        0.001 s           0.000 s
  | Solution of K.-S. eqns.                    :        0.001 s           0.001 s
  | Total energy evaluation                    :        0.000 s           0.000 s

  Partial memory accounting:
  | Current value for overall tracked memory usage:
  |   Minimum:        0.009 MB (on task 4)
  |   Maximum:        0.010 MB (on task 0)
  |   Average:        0.010 MB
  | Peak value for overall tracked memory usage:
  |   Minimum:        0.080 MB (on task 4 after allocating gradient_basis_wave)
  |   Maximum:        0.107 MB (on task 0 after allocating gradient_basis_wave)
  |   Average:        0.086 MB
  | Largest tracked array allocation so far:
  |   Minimum:        0.053 MB (gradient_basis_wave on task 1)
  |   Maximum:        0.069 MB (gradient_basis_wave on task 0)
  |   Average:        0.057 MB
  Note:  These values currently only include a subset of arrays which are explicitly tracked.
  The "true" memory usage will be greater.
------------------------------------------------------------

------------------------------------------------------------
          Begin self-consistency iteration #    5

  Date     :  20190817, Time     :  154156.735
------------------------------------------------------------
  Evaluating new KS density.
  Integration grid: deviation in total charge (<rho> - N_e) =   1.776357E-15
  Pulay mixing of updated and previous charge densities.
  Renormalizing the density to the exact electron count on the 3D integration grid.
  | Formal number of electrons (from input files) :      10.0000000000
  | Integrated number of electrons on 3D grid     :      10.0000000000
  | Charge integration error                      :      -0.0000000000
  | Normalization factor for density and gradient :       1.0000000000

  Evaluating partitioned Hartree potential by multipole expansion.
  | Original multipole sum: apparent total charge =  -0.180301E-13
  | Sum of charges compensated after spline to logarithmic grids =   0.119736E-03
  | Analytical far-field extrapolation by fixed multipoles:
  | Hartree multipole sum: apparent total charge =  -0.192846E-13
  Summing up the Hartree potential.
  Time summed over all CPUs for potential: real work        0.028 s, elapsed        0.031 s
  | RMS charge density error from multipole expansion :   0.659503E-02

  Integrating Hamiltonian matrix: batch-based integration.
  Time summed over all CPUs for integration: real work        0.035 s, elapsed        0.037 s
  Evaluating the exchange matrix ... 

  Updating Kohn-Sham eigenvalues and eigenvectors using ELSI and the ELPA eigensolver.
  Starting ELPA eigensolver
  Finished transformation to standard eigenproblem
  | Time :     0.000 s
  Finished solving standard eigenproblem
  | Time :     0.000 s
  Finished back-transformation of eigenvectors
  | Time :     0.000 s

  Obtaining occupation numbers and chemical potential using ELSI.
  | Chemical potential (Fermi level):    -5.06635165 eV
  Highest occupied state (VBM) at     -9.03078331 eV
  | Occupation number:      2.00000000

  Lowest unoccupied state (CBM) at     1.03114143 eV
  | Occupation number:      0.00000000

  Overall HOMO-LUMO gap:     10.06192474 eV.

  Total energy components:
  | Sum of eigenvalues            :         -43.07965814 Ha       -1172.25714185 eV
  | XC energy correction          :          -4.78024916 Ha        -130.07719801 eV
  | XC potential correction       :           9.02221587 Ha         245.50698519 eV
  | Free-atom electrostatic energy:         -35.68255992 Ha        -970.97185783 eV
  | Hartree energy correction     :          -1.86370641 Ha         -50.71403179 eV
  | Entropy correction            :           0.00000000 Ha           0.00000000 eV
  | ---------------------------
  | Total energy                  :         -76.38395776 Ha       -2078.51324428 eV
  | Total energy, T -> 0          :         -76.38395776 Ha       -2078.51324428 eV  <-- do not rely on this value for anything but (periodic) metals
  | Electronic free energy        :         -76.38395776 Ha       -2078.51324428 eV

  Derived energy quantities:
  | Kinetic energy                :          89.49453680 Ha        2435.27025140 eV
  | Electrostatic energy          :        -143.26375167 Ha       -3898.40503161 eV
  | Energy correction for multipole
  | error in Hartree potential    :          -0.00360930 Ha          -0.09821417 eV
  | Sum of eigenvalues per atom                           :        -390.75238062 eV
  | Total energy (T->0) per atom                          :        -692.83774809 eV  <-- do not rely on this value for anything but (periodic) metals
  | Electronic free energy per atom                       :        -692.83774809 eV

  Self-consistency convergence accuracy:
  | Change of charge density      :  0.2683E-02
  | Change of sum of eigenvalues  : -0.4912E+00 eV
  | Change of total energy        : -0.5741E+00 eV

  End self-consistency iteration #     5       :  max(cpu_time)    wall_clock(cpu1)
  | Time for this iteration                    :        0.015 s           0.014 s
  | Charge density update                      :        0.003 s           0.003 s
  | Density mixing                             :        0.001 s           0.001 s
  | Hartree multipole update                   :        0.001 s           0.001 s
  | Hartree multipole summation                :        0.004 s           0.004 s
  | Integration                                :        0.005 s           0.004 s
  | Fock matrix evaluation                     :        0.000 s           0.001 s
  | Solution of K.-S. eqns.                    :        0.001 s           0.000 s
  | Total energy evaluation                    :        0.000 s           0.000 s

  Partial memory accounting:
  | Current value for overall tracked memory usage:
  |   Minimum:        0.009 MB (on task 4)
  |   Maximum:        0.010 MB (on task 0)
  |   Average:        0.010 MB
  | Peak value for overall tracked memory usage:
  |   Minimum:        0.080 MB (on task 4 after allocating gradient_basis_wave)
  |   Maximum:        0.107 MB (on task 0 after allocating gradient_basis_wave)
  |   Average:        0.086 MB
  | Largest tracked array allocation so far:
  |   Minimum:        0.053 MB (gradient_basis_wave on task 1)
  |   Maximum:        0.069 MB (gradient_basis_wave on task 0)
  |   Average:        0.057 MB
  Note:  These values currently only include a subset of arrays which are explicitly tracked.
  The "true" memory usage will be greater.
------------------------------------------------------------

------------------------------------------------------------
          Begin self-consistency iteration #    6

  Date     :  20190817, Time     :  154156.750
------------------------------------------------------------
  Evaluating new KS density.
  Integration grid: deviation in total charge (<rho> - N_e) =   5.329071E-15
  Pulay mixing of updated and previous charge densities.
  Renormalizing the density to the exact electron count on the 3D integration grid.
  | Formal number of electrons (from input files) :      10.0000000000
  | Integrated number of electrons on 3D grid     :      10.0000000000
  | Charge integration error                      :       0.0000000000
  | Normalization factor for density and gradient :       1.0000000000

  Evaluating partitioned Hartree potential by multipole expansion.
  | Original multipole sum: apparent total charge =  -0.487035E-14
  | Sum of charges compensated after spline to logarithmic grids =   0.127918E-03
  | Analytical far-field extrapolation by fixed multipoles:
  | Hartree multipole sum: apparent total charge =  -0.477196E-14
  Summing up the Hartree potential.
  Time summed over all CPUs for potential: real work        0.027 s, elapsed        0.028 s
  | RMS charge density error from multipole expansion :   0.665367E-02

  Integrating Hamiltonian matrix: batch-based integration.
  Time summed over all CPUs for integration: real work        0.034 s, elapsed        0.035 s
  Evaluating the exchange matrix ... 

  Updating Kohn-Sham eigenvalues and eigenvectors using ELSI and the ELPA eigensolver.
  Starting ELPA eigensolver
  Finished transformation to standard eigenproblem
  | Time :     0.000 s
  Finished solving standard eigenproblem
  | Time :     0.000 s
  Finished back-transformation of eigenvectors
  | Time :     0.001 s

  Obtaining occupation numbers and chemical potential using ELSI.
  | Chemical potential (Fermi level):    -5.07062155 eV
  Highest occupied state (VBM) at     -9.01155070 eV
  | Occupation number:      2.00000000

  Lowest unoccupied state (CBM) at     1.03122386 eV
  | Occupation number:      0.00000000

  Overall HOMO-LUMO gap:     10.04277456 eV.

  Total energy components:
  | Sum of eigenvalues            :         -43.07787283 Ha       -1172.20856102 eV
  | XC energy correction          :          -4.78165293 Ha        -130.11539632 eV
  | XC potential correction       :           9.02225113 Ha         245.50794448 eV
  | Free-atom electrostatic energy:         -35.68255992 Ha        -970.97185783 eV
  | Hartree energy correction     :          -1.86200905 Ha         -50.66784427 eV
  | Entropy correction            :           0.00000000 Ha           0.00000000 eV
  | ---------------------------
  | Total energy                  :         -76.38184360 Ha       -2078.45571495 eV
  | Total energy, T -> 0          :         -76.38184360 Ha       -2078.45571495 eV  <-- do not rely on this value for anything but (periodic) metals
  | Electronic free energy        :         -76.38184360 Ha       -2078.45571495 eV

  Derived energy quantities:
  | Kinetic energy                :          89.48710559 Ha        2435.06803796 eV
  | Electrostatic energy          :        -143.26383567 Ha       -3898.40731747 eV
  | Energy correction for multipole
  | error in Hartree potential    :          -0.00368164 Ha          -0.10018260 eV
  | Sum of eigenvalues per atom                           :        -390.73618701 eV
  | Total energy (T->0) per atom                          :        -692.81857165 eV  <-- do not rely on this value for anything but (periodic) metals
  | Electronic free energy per atom                       :        -692.81857165 eV

  Self-consistency convergence accuracy:
  | Change of charge density      :  0.2827E-02
  | Change of sum of eigenvalues  :  0.4858E-01 eV
  | Change of total energy        :  0.5753E-01 eV

  End self-consistency iteration #     6       :  max(cpu_time)    wall_clock(cpu1)
  | Time for this iteration                    :        0.014 s           0.014 s
  | Charge density update                      :        0.003 s           0.003 s
  | Density mixing                             :        0.001 s           0.001 s
  | Hartree multipole update                   :        0.001 s           0.001 s
  | Hartree multipole summation                :        0.004 s           0.003 s
  | Integration                                :        0.005 s           0.005 s
  | Fock matrix evaluation                     :        0.000 s           0.000 s
  | Solution of K.-S. eqns.                    :        0.001 s           0.001 s
  | Total energy evaluation                    :        0.000 s           0.000 s

  Partial memory accounting:
  | Current value for overall tracked memory usage:
  |   Minimum:        0.009 MB (on task 4)
  |   Maximum:        0.010 MB (on task 0)
  |   Average:        0.010 MB
  | Peak value for overall tracked memory usage:
  |   Minimum:        0.080 MB (on task 4 after allocating gradient_basis_wave)
  |   Maximum:        0.107 MB (on task 0 after allocating gradient_basis_wave)
  |   Average:        0.086 MB
  | Largest tracked array allocation so far:
  |   Minimum:        0.053 MB (gradient_basis_wave on task 1)
  |   Maximum:        0.069 MB (gradient_basis_wave on task 0)
  |   Average:        0.057 MB
  Note:  These values currently only include a subset of arrays which are explicitly tracked.
  The "true" memory usage will be greater.
------------------------------------------------------------

------------------------------------------------------------
          Begin self-consistency iteration #    7

  Date     :  20190817, Time     :  154156.764
------------------------------------------------------------
  Evaluating new KS density.
  Integration grid: deviation in total charge (<rho> - N_e) =   3.552714E-15
  Pulay mixing of updated and previous charge densities.
  Renormalizing the density to the exact electron count on the 3D integration grid.
  | Formal number of electrons (from input files) :      10.0000000000
  | Integrated number of electrons on 3D grid     :      10.0000000000
  | Charge integration error                      :      -0.0000000000
  | Normalization factor for density and gradient :       1.0000000000

  Evaluating partitioned Hartree potential by multipole expansion.
  | Original multipole sum: apparent total charge =  -0.836323E-14
  | Sum of charges compensated after spline to logarithmic grids =   0.127711E-03
  | Analytical far-field extrapolation by fixed multipoles:
  | Hartree multipole sum: apparent total charge =  -0.809266E-14
  Summing up the Hartree potential.
  Time summed over all CPUs for potential: real work        0.028 s, elapsed        0.029 s
  | RMS charge density error from multipole expansion :   0.665449E-02

  Integrating Hamiltonian matrix: batch-based integration.
  Time summed over all CPUs for integration: real work        0.034 s, elapsed        0.035 s
  Evaluating the exchange matrix ... 

  Updating Kohn-Sham eigenvalues and eigenvectors using ELSI and the ELPA eigensolver.
  Starting ELPA eigensolver
  Finished transformation to standard eigenproblem
  | Time :     0.000 s
  Finished solving standard eigenproblem
  | Time :     0.001 s
  Finished back-transformation of eigenvectors
  | Time :     0.000 s

  Obtaining occupation numbers and chemical potential using ELSI.
  | Chemical potential (Fermi level):    -5.06270680 eV
  Highest occupied state (VBM) at     -9.00522061 eV
  | Occupation number:      2.00000000

  Lowest unoccupied state (CBM) at     1.03329960 eV
  | Occupation number:      0.00000000

  Overall HOMO-LUMO gap:     10.03852022 eV.

  Total energy components:
[...]
  Start to calculate the self energy ... 
  HOMO and first non-fully-occupied orbitals:    5    6
 
 | i_freq    1            0.000072
 | i_freq    2            0.000377
 | i_freq    3            0.000928
 | i_freq    4            0.001725
 | i_freq    5            0.002769
 | i_freq    6            0.004063
 | i_freq    7            0.005610
 | i_freq    8            0.007412
 | i_freq    9            0.009473
 | i_freq   10            0.011797
 | i_freq   11            0.014389
 | i_freq   12            0.017253
 | i_freq   13            0.020397
 | i_freq   14            0.023826
 | i_freq   15            0.027548
 | i_freq   16            0.031570
 | i_freq   17            0.035901
 | i_freq   18            0.040551
 | i_freq   19            0.045529
 | i_freq   20            0.050846
 | i_freq   21            0.056515
 | i_freq   22            0.062547
 | i_freq   23            0.068958
 | i_freq   24            0.075762
 | i_freq   25            0.082975
 | i_freq   26            0.090615
 | i_freq   27            0.098701
 | i_freq   28            0.107252
 | i_freq   29            0.116291
 | i_freq   30            0.125842
 | i_freq   31            0.135929
 | i_freq   32            0.146581
 | i_freq   33            0.157826
 | i_freq   34            0.169698
 | i_freq   35            0.182230
 | i_freq   36            0.195460
 | i_freq   37            0.209429
 | i_freq   38            0.224180
 | i_freq   39            0.239761
 | i_freq   40            0.256224
 | i_freq   41            0.273624
 | i_freq   42            0.292024
 | i_freq   43            0.311489
 | i_freq   44            0.332092
 | i_freq   45            0.353913
 | i_freq   46            0.377037
 | i_freq   47            0.401559
 | i_freq   48            0.427585
 | i_freq   49            0.455227
 | i_freq   50            0.484612
 | i_freq   51            0.515877
 | i_freq   52            0.549177
 | i_freq   53            0.584679
 | i_freq   54            0.622573
 | i_freq   55            0.663065
 | i_freq   56            0.706389
 | i_freq   57            0.752803
 | i_freq   58            0.802596
 | i_freq   59            0.856094
 | i_freq   60            0.913662
 | i_freq   61            0.975711
 | i_freq   62            1.042706
 | i_freq   63            1.115177
 | i_freq   64            1.193725
 | i_freq   65            1.279035
 | i_freq   66            1.371894
 | i_freq   67            1.473207
 | i_freq   68            1.584019
 | i_freq   69            1.705543
 | i_freq   70            1.839192
 | i_freq   71            1.986619
 | i_freq   72            2.149771
 | i_freq   73            2.330952
 | i_freq   74            2.532904
 | i_freq   75            2.758913
 | i_freq   76            3.012940
 | i_freq   77            3.299798
 | i_freq   78            3.625381
 | i_freq   79            3.996967
 | i_freq   80            4.423632
 | i_freq   81            4.916802
 | i_freq   82            5.491033
 | i_freq   83            6.165091
 | i_freq   84            6.963505
 | i_freq   85            7.918832
 | i_freq   86            9.075026
 | i_freq   87           10.492583
 | i_freq   88           12.256615
 | i_freq   89           14.489927
 | i_freq   90           17.374976
 | i_freq   91           21.192342
 | i_freq   92           26.391591
 | i_freq   93           33.729901
 | i_freq   94           44.564042
 | i_freq   95           61.525277
 | i_freq   96           90.280309
 | i_freq   97          144.953213
 | i_freq   98          269.415349
 | i_freq   99          662.608268
 | i_freq  100         3492.666343
 
  Self-consistent quasi particle energy calculation with contour deformation starts...
 
 ------------------------------------------------------------
  Start contour deformation for level:      1    
 ------------------------------------------------------------
  Step:    1
  Step:    2
  Step:    3
  Step:    4
  Step:    5
  Step:    6
  Step:    7
  Step:    8
 
 ------------------------------------------------------------
  Start contour deformation for level:      2    
 ------------------------------------------------------------
  Step:    1
  Step:    2
  Step:    3
  Step:    4
  Step:    5
  Step:    6
  Step:    7
  Step:    8
 
 ------------------------------------------------------------
  Start contour deformation for level:      3    
 ------------------------------------------------------------
  Step:    1
  Step:    2
  Step:    3
  Step:    4
  Step:    5
  Step:    6
  Step:    7
  Step:    8
 
 ------------------------------------------------------------
  Start contour deformation for level:      4    
 ------------------------------------------------------------
  Step:    1
  Step:    2
  Step:    3
  Step:    4
  Step:    5
  Step:    6
  Step:    7
  Step:    8
 
 ------------------------------------------------------------
  Start contour deformation for level:      5    
 ------------------------------------------------------------
  Step:    1
  Step:    2
  Step:    3
  Step:    4
  Step:    5
  Step:    6
  Step:    7
  Step:    8
 
 ------------------------------------------------------------
  Start contour deformation for level:      6    
 ------------------------------------------------------------
  Step:    1
  Step:    2
  Step:    3
  Step:    4
  Step:    5
 
 ------------------------------------------------------------
  Start contour deformation for level:      7    
 ------------------------------------------------------------
  Step:    1
  Step:    2
  Step:    3
  Step:    4
  Step:    5
  Step:    6
 
 ------------------------------------------------------------
  Start contour deformation for level:      8    
 ------------------------------------------------------------
  Step:    1
  Step:    2
  Step:    3
  Step:    4
  Step:    5
  Step:    6
  Step:    7
 Scissor-shift the rest of the virtuals by:             0.1598 eV
 
------------------------------------------------------------------------------------------------------
               GW quasi-particle energy levels
 
               Start contour deformation at level:      1
               End contour deformation at level:        2
 
               e_qp = e_gs + e_x^ex - e_xc^gs + e_c^nloc
 
  state     occ_num        e_gs        e_x^ex        e_xc^gs        e_c^nloc        e_qp
------------------------------------------------------------------------------------------------------
------------------------------------------------------------------------------------------------------
       1    2.0000     -522.7161      -99.4618      -63.0513       18.6416     -540.4850
       2    2.0000      -28.3049      -24.8381      -16.4506        4.5144      -32.1781
       3    2.0000      -14.8905      -18.5643      -13.9890        0.8876      -18.5783
       4    2.0000      -11.1320      -19.3998      -14.5507        1.5478      -14.4333
       5    2.0000       -9.0022      -19.5793      -14.7208        1.8102      -12.0506
       6    0.0000        1.0348       -2.2515       -5.3864       -0.5176        3.6521
       7    0.0000        3.9058       -3.2965       -7.1415       -0.7372        7.0135
       8    0.0000        9.3616       -3.2447       -7.3007       -0.6945       12.7232
       9    0.0000       10.4035       -3.9715       -8.2512       -0.5990       13.4324
      10    0.0000       11.1927       -1.8482       -5.6761       -0.6522       14.2216
      11    0.0000       17.3829       -3.7278       -9.5101       -2.0849       20.4118
      12    0.0000       23.0558       -3.9924      -10.2888       -3.3334       26.0846
      13    0.0000       25.7724       -3.4689       -9.4127       -1.7044       28.8013
      14    0.0000       27.8901       -3.1527       -9.1371       -1.5087       30.9190
      15    0.0000       32.1588       -3.3012       -9.5082       -1.7756       35.1877
      16    0.0000       33.2544       -4.4099      -10.9003       -2.0981       36.2833
      17    0.0000       43.2227       -1.6364       -8.3456       -2.7590       46.2515
      18    0.0000       55.2709       -4.0500      -12.2105       -2.3286       58.2998
      19    0.0000       57.8835       -3.4086      -11.5598       -2.2491       60.9123
      20    0.0000       64.8042       -4.1434      -12.6932       -2.9813       67.8330
      21    0.0000       67.8930       -4.0977      -12.9869       -2.5689       70.9219
      22    0.0000       68.4450       -4.2337      -13.3057       -3.2484       71.4738
      23    0.0000       82.1165       -3.8236      -13.7291       -1.9127       85.1453
      24    0.0000       90.8033       -3.9190      -14.2128       -4.4746       93.8321
------------------------------------------------------------------------------------------------------
 
   DFT/Hartree-Fock HOMO level (eV):    -9.0022   -9.0022
 
   Quasiparticle HOMO level (eV):      -12.0506  -12.0506
 
------------------------------------------------------------------------------------------------------
 
 ************************************************************
   * Warning! ev-scGW NOT converged
 ************************************************************
  
  Printing out the self-energy matrix element:  1 for spin  1
 
------------------------------------------------------------------------------------------------------
 
          | Total time for transforming the 3-center integrals :        0.000 s
          | Total time for calculating the exchange-correlation
                                  energy matrix elements   :        0.004 s
          | Total time for calculating polarisability     
                        for imaginary frequencies          :        0.039 s
          | Total time for calculating self energy 
                        on imaginary frequency axis        :        0.157 s
          | Total time for calculating the quasiparticle 
                  energies with analytic continuation      :        0.000 s
          | Total time for calculating the quasiparticle 
                  energies with contour deformation        :        0.267 s
  |------------------------------------------------------
  | Final ELSI Output
  |------------------------------------------------------
  |
  | Physical Properties
  |   Number of electrons       :        0.10000000E+02
  |   Number of spins           :                     1
  |   Number of k-points        :                     1
  |   Number of states          :                    24
  |
  | Matrix Properties
  |   Matrix format             :           BLACS_DENSE
  |   Number of basis functions :                    24
  |   Matrix sparsity           :        0.00000000E+00
  |
  | Computational Details
  |   Parallel mode             :            MULTI_PROC
  |   Number of MPI tasks       :                     8
  |   Solver requested          :                  ELPA
  |   Number of ELSI calls      :                    15
  |
  |------------------------------------------------------
  | ELSI Project (c)  elsi-interchange.org
  |------------------------------------------------------

------------------------------------------------------------------------------
  Final output of selected total energy values:

  The following output summarizes some interesting total energy values
  at the end of a run (AFTER all relaxation, molecular dynamics, etc.).

  | Total energy of the DFT / Hartree-Fock s.c.f. calculation      :          -2078.470212415 eV
  | Final zero-broadening corrected energy (caution - metals only) :          -2078.470212415 eV
  | For reference only, the value of 1 Hartree used in FHI-aims is :             27.211384500 eV

  Before relying on these values, please be sure to understand exactly which
  total energy value is referred to by a given number. Different objects may
  all carry the same name 'total energy'. Definitions:

  Total energy of the DFT / Hartree-Fock s.c.f. calculation:
  | Note that this energy does not include ANY quantities calculated after the
  | s.c.f. cycle, in particular not ANY RPA, MP2, etc. many-body perturbation terms.

  Final zero-broadening corrected energy:
  | For metallic systems only, a broadening of the occupation numbers at the Fermi
  | level can be extrapolated back to zero broadening by an electron-gas inspired
  | formula. For all systems that are not real metals, this value can be
  | meaningless and should be avoided.

------------------------------------------------------------------------------
  Methods described in the following list of references were used in this FHI-aims run.
  If you publish the results, please make sure to cite these reference if they apply.
  FHI-aims is an academic code, and for our developers (often, Ph.D. students
  and postdocs), scientific credit in the community is essential.
  Thank you for helping us!

  For any use of FHI-aims, please cite:

    Volker Blum, Ralf Gehrke, Felix Hanke, Paula Havu, Ville Havu,
    Xinguo Ren, Karsten Reuter, and Matthias Scheffler
    'Ab initio molecular simulations with numeric atom-centered orbitals'
    Computer Physics Communications 180, 2175-2196 (2009)
    http://dx.doi.org/10.1016/j.cpc.2009.06.022


  For Hartree-Fock, hybrid functionals, or many-body perturbation theory used in your run, please cite:

    Xinguo Ren, Patrick Rinke, Volker Blum, Juergen Wieferink, Alex Tkatchenko,
    Andrea Sanfilippo, Karsten Reuter, and Matthias Scheffler,
    'Resolution-of-identity approach to Hartree-Fock, hybrid density functionals,
    RPA, MP2, and GW with numeric atom-centered orbital basis functions'
    New Journal of Physics 14, 053020 (2012).
    http://dx.doi.org/10.1088/1367-2630/14/5/053020


  The ELSI infrastructure was used in your run to solve the Kohn-Sham electronic structure.
  Please check out http://elsi-interchange.org to learn more.
  If scalability is important for your project, please acknowledge ELSI by citing:

    V. W-z. Yu, F. Corsetti, A. Garcia, W. P. Huhn, M. Jacquelin, W. Jia,
    B. Lange, L. Lin, J. Lu, W. Mi, A. Seifitokaldani, A. Vazquez-Mayagoitia,
    C. Yang, H. Yang, and V. Blum
    'ELSI: A unified software interface for Kohn-Sham electronic structure solvers'
    Computer Physics Communications 222, 267-285 (2018).
    http://dx.doi.org/10.1016/j.cpc.2017.09.007


  For the real-space grid partitioning and parallelization used in this calculation, please cite:

    Ville Havu, Volker Blum, Paula Havu, and Matthias Scheffler,
    'Efficient O(N) integration for all-electron electronic structure calculation'
    'using numerically tabulated basis functions'
    Journal of Computational Physics 228, 8367-8379 (2009).
    http://dx.doi.org/10.1016/j.jcp.2009.08.008

  Of course, there are many other important community references, e.g., those cited in the
  above references. Our list is limited to references that describe implementations in the
  FHI-aims code. The reason is purely practical (length of this list) - please credit others as well.

 * Warning - angular integration grids had to be adjusted for use with RI_method 'V'.
 * Background: You are using an electronic structure method that requires RI_method 'V'
 * for the resolution of identity of the Coulomb operator. (See Ren et al.,
 * New J. Phys 2012 for details.) This method requires three-center integrations
 * to be carried out on FHI-aims' normal angular and radial integration grids.
 * (See FHI-aims CPC Blum et al. 2009, p. 2183 for grid details and references.)
 * One of the angular grids specified in your control.in file was not large
 * enough for the maximal angular momenta of orbital and product basis functions
 * for its species.
 * This can lead to atomic total energy errors which cancel in energy differences.
 * Effective Sep 22, 2014, we have changed the default behavior of the code to
 * simply 'upgrade' the angular grids internally to a safe setting in this case.
 * Please be sure to NOT mix total energies from before and after the change.

------------------------------------------------------------
          Leaving FHI-aims.
          Date     :  20190817, Time     :  154158.811

          Computational steps:
          | Number of self-consistency cycles          :           14
          | Number of SCF (re)initializations          :            1

          Detailed time accounting                     :  max(cpu_time)    wall_clock(cpu1)
          | Total time                                 :        2.443 s           2.461 s
          | Preparation time                           :        0.095 s           0.094 s
          | Boundary condition initalization           :        0.000 s           0.000 s
          | Grid partitioning                          :        0.006 s           0.007 s
          | Preloading free-atom quantities on grid    :        0.002 s           0.001 s
          | Free-atom superposition energy             :        0.002 s           0.002 s
          | Total time for integrations                :        0.075 s           0.075 s
          | Product basis setup: Total time            :        0.129 s           0.129 s
          | Product basis: | 3-center integrations     :(       0.041 s)  (       0.041 s)
          | Product basis: | 2-center integrations     :(       0.058 s)  (       0.058 s)
          | Product basis: | 2-center linear algebra   :(       0.003 s)  (       0.003 s)
          | Product basis: | 3-center x 2-center       :(       0.001 s)  (       0.001 s)
          | Total time evaluating exchange matrix      :        0.006 s           0.006 s
          | Transforming ovlp_3fn to ovlp_3KS          :        0.000 s           0.000 s
          | Total time for GW calculation              :        1.915 s           1.916 s
          | GW self-energy (analytic cont.)            :        0.176 s           0.176 s
          | Screened Coulomb matrix W_mn(iw)           :        0.339 s           0.339 s
          | Polarisability matrix Pi_PQ(iw)            :        0.039 s           0.039 s
          | Contour def: | Solving qp equations        :        0.267 s           0.268 s
          | Contour def: | GW self-energy              :        1.540 s           1.464 s
          | Contour def: | Scr Coulomb matrix W_mn(w)  :        1.351 s           1.295 s
          | Contour def: | Scr aux Coulomb mat W_PQ(w) :        1.351 s           1.295 s
          | Contour def: | Polarisability Pi_PQ(w)     :        1.351 s           1.295 s
          | Contour def: | Printing self-energy CD     :        0.693 s           0.694 s
          | Total time for solution of K.-S. equations :        0.014 s           0.014 s
          | Total time for density update              :        0.047 s           0.047 s
          | Total time for mixing                      :        0.010 s           0.011 s
          | Total time for Hartree multipole update    :        0.014 s           0.015 s
          | Total time for Hartree multipole sum       :        0.053 s           0.051 s
          | Total time for total energy evaluation     :        0.002 s           0.000 s

          Partial memory accounting:
          | Residual value for overall tracked memory usage across tasks:     0.000000 MB (should be 0.000000 MB)
          | Peak values for overall tracked memory usage:
          |   Minimum:        0.080 MB (on task 4 after allocating gradient_basis_wave)
          |   Maximum:        0.107 MB (on task 0 after allocating gradient_basis_wave)
          |   Average:        0.086 MB
          | Largest tracked array allocation:
          |   Minimum:        0.053 MB (gradient_basis_wave on task 1)
          |   Maximum:        0.069 MB (gradient_basis_wave on task 0)
          |   Average:        0.057 MB
          Note:  These values currently only include a subset of arrays which are explicitly tracked.
          The "true" memory usage will be greater.

          Have a nice day.
------------------------------------------------------------
