  MPI-parallelism will be employed.
------------------------------------------------------------
          Invoking FHI-aims ...

          When using FHI-aims, please cite the following reference:

          Volker Blum, Ralf Gehrke, Felix Hanke, Paula Havu,
          Ville Havu, Xinguo Ren, Karsten Reuter, and Matthias Scheffler,
          'Ab Initio Molecular Simulations with Numeric Atom-Centered Orbitals',
          Computer Physics Communications 180, 2175-2196 (2009)

          For any questions about FHI-aims, please visit the aimsclub website
          with its forums and wiki. Contributions to both the forums and the
          wiki are warmly encouraged - they are for you, and everyone is welcome there.

------------------------------------------------------------



  Date     :  20190817, Time     :  154523.130
  Time zero on CPU 1             :   0.328620000000000E-01  s.
  Internal wall clock time zero  :           335288723.130  s.

  FHI-aims created a unique identifier for this run for later identification
  aims_uuid : EA35B166-0E52-4A5C-AD96-664FD5586A2D

  Build configuration of the current instance of FHI-aims
  -------------------------------------------------------
  FHI-aims version      : 190813
  Commit number         : 3da7baeb3
  CMake host system     : Linux-4.4.180-94.97-default
  CMake version         : 3.5.2
  Fortran compiler      : /mpcdf/soft/SLE_12_SP3/packages/x86_64/intel_parallel_studio/2018.4/compilers_and_libraries_2018.5.274/linux/mpi/bin64/mpiifort (Intel) version 18.0.5.20180823
  Fortran compiler flags: -O3 -ip -fp-model precise
  C compiler            : /mpcdf/soft/SLE_12_SP3/packages/skylake/intel/18.0.5/bin/icc (Intel) version 18.0.5.20180823
  C compiler flags      : -O3 -ip -fp-model precise
  Architecture          :
  Using MPI
  Using Scalapack
  Using C files
  Using SPGlib
  Using i-PI
  Linking against: /mpcdf/soft/SLE_12_SP3/packages/x86_64/anaconda/3.5.1.0/lib/libmkl_intel_lp64.so
                   /mpcdf/soft/SLE_12_SP3/packages/x86_64/anaconda/3.5.1.0/lib/libmkl_sequential.so
                   /mpcdf/soft/SLE_12_SP3/packages/x86_64/anaconda/3.5.1.0/lib/libmkl_core.so
                   /mpcdf/soft/SLE_12_SP3/packages/x86_64/anaconda/3.5.1.0/lib/libmkl_blacs_intelmpi_lp64.so
                   /mpcdf/soft/SLE_12_SP3/packages/x86_64/anaconda/3.5.1.0/lib/libmkl_scalapack_lp64.so

  Using        8 parallel tasks.
  Task        0 on host co1631 reporting.
  Task        1 on host co1631 reporting.
  Task        2 on host co1631 reporting.
  Task        3 on host co1631 reporting.
  Task        4 on host co1631 reporting.
  Task        5 on host co1631 reporting.
  Task        6 on host co1631 reporting.
  Task        7 on host co1631 reporting.

  Performing system and environment tests:
  | Environment variable OMP_NUM_THREADS correctly set to 1.
  | Maximum stacksize for task 0: unlimited
  | Maximum stacksize for task 1: unlimited
  | Maximum stacksize for task 2: unlimited
  | Maximum stacksize for task 3: unlimited
  | Maximum stacksize for task 4: unlimited
  | Maximum stacksize for task 5: unlimited
  | Maximum stacksize for task 6: unlimited
  | Maximum stacksize for task 7: unlimited
  | Current stacksize for task 0: unlimited
  | Current stacksize for task 1: unlimited
  | Current stacksize for task 2: unlimited
  | Current stacksize for task 3: unlimited
  | Current stacksize for task 4: unlimited
  | Current stacksize for task 5: unlimited
  | Current stacksize for task 6: unlimited
  | Current stacksize for task 7: unlimited
  | Checking for scalapack...
  | Testing pdtran()...
  | All pdtran() tests passed.

  Obtaining array dimensions for all initial allocations:
  
  -----------------------------------------------------------------------
  Parsing control.in (first pass over file, find array dimensions only).
  The contents of control.in will be repeated verbatim below
  unless switched off by setting 'verbatim_writeout .false.' .
  in the first line of control.in .
  -----------------------------------------------------------------------
  
  #  Volker Blum, FHI 2008 : Input file for FHI-aims
  #
    xc                pbe
    relativistic      none
    spin              collinear
      default_initial_moment 0.5
    charge 0.0
  #
    KS_method         serial
      empty_states      5
  #
    occupation_type   gaussian 0.15
    mixer             pulay
      ini_linear_mixing 0
      charge_mix_param  0.6
    sc_accuracy_rho  1E-6
    sc_accuracy_eev  1E-4
    sc_accuracy_etot 1E-6
    sc_iter_limit    200
  #
    relax_geometry bfgs 1d-2
     # 15 is actually a little bit low; but we want to test step size reduction
    init_hess  15.
  #
  ################################################################################
  #
  #  FHI-aims code project
  #  VB, Fritz-Haber Institut, 2007
  #
  #  Suggested "safe" defaults for N atom (to be pasted into control.in file)
  #  All values have been tested for a non-relativistic, non-spinpolarized O2
  #  molecule using the PW-LDA functional. Validity for PBE is expected.
  #
  #  Constructed for dimers: 1.0 A, 1.1 A, 1.5 A, 2.0 A, 3.0 A
  #
  ################################################################################
    species        N
  #     global species definitions
      nucleus             7
      l_hartree           4
      cut_pot             4.0  2.0  1.0
      cut_free_atom       finite 8.0
      logarithmic         0.00010000 100.00  1.0123
      radial_base         35 7.0
      radial_multiplier   2
      angular_grids       specified
        division   0.3806  110
        division   0.5126  194
        division   0.5309  302
  #      division   0.7632  434
  #      division   0.7874  770
  #      division   3.0496  974
  #      outer_grid  974
        outer_grid  302
  ################################################################################
  #
  #  Definition of "minimal" basis
  #
  ################################################################################
  #     valence basis states
      valence      2  s   2.
      valence      2  p   3.
  #     ion occupancy
      ion_occ      2  s   1.
      ion_occ      2  p   2.
  ################################################################################
  #
  #  Suggested additional basis functions. For production calculations,
  #  uncomment them one after another (the most important basis functions are
  #  listed first).
  #
  ################################################################################
  #  "First tier" - improvements: -1193.42 meV to -220.60 meV
       hydro 2 p 1.8
       hydro 3 d 6.8
       hydro 3 s 5.8
  #  "Second tier" - improvements: -80.21 meV to -6.86 meV
  #     hydro 4 f 10.8
  #     hydro 3 p 5.8
  #     hydro 1 s 0.8
  #     hydro 5 g 16
  #     hydro 3 d 4.9
  #  "Third tier" - improvements: -4.29 meV to -0.53 meV
  #     hydro 3 s 16
  #     ionic 2 p 9.4486
  #     hydro 3 d 6.6
  #     hydro 4 f 11.6
  #  "Fourth tier" - improvements: -0.75 meV to -0.25 meV
  #     hydro 2 p 4.5
  #     hydro 2 s 2.4
  #     hydro 5 g 14.4
  #     hydro 4 d 14.4
  #     hydro 4 f 16.8
  # Further basis functions - -0.21 meV and below
  #     hydro 3 p 14.8
  #     hydro 3 s 4.4
  #     hydro 3 d 19.6
  #     hydro 5 g 12.8
  
  ################################################################################
  #
  #  FHI-aims code project
  #  VB, Fritz-Haber Institut, 2007
  #
  #  Suggested "safe" defaults for O atom (to be pasted into control.in file)
  #  All values have been tested for a non-relativistic, non-spinpolarized O2
  #  molecule using the PW-LDA functional. Validity for PBE is expected.
  #
  #  Constructed for dimers: 1.0 A, 1.208 A, 1.5 A, 2.0 A, 3.0 A
  #
  ################################################################################
    species        O
  #     global species definitions
      nucleus             8
      l_hartree           4
      cut_pot             4.0  2.0  1.0
      cut_free_atom       finite 8.0
      logarithmic         0.00010000 100.00  1.0123
      radial_base         36 7.0
      radial_multiplier   2
       angular_grids specified
        division   0.4087  110
        division   0.5181  194
        division   0.6184  302
  #      division   0.7315  434
  #      division   0.7934  590
  #      division   0.9656  770
  #      division   1.4041  974
  #      outer_grid 974
        outer_grid 302
  ################################################################################
  #
  #  Definition of "minimal" basis
  #
  ################################################################################
  #     valence basis states
      valence      2  s   2.
      valence      2  p   4.
  #     ion occupancy
      ion_occ      2  s   1.
      ion_occ      2  p   3.
  ################################################################################
  #
  #  Suggested additional basis functions. For production calculations,
  #  uncomment them one after another (the most important basis functions are
  #  listed first).
  #
  ################################################################################
  #  "First tier" - improvements: -699.05 meV to -159.38 meV
       hydro 2 p 1.8
       hydro 3 d 7.6
       hydro 3 s 6.4
  #  "Second tier" - improvements: -49.91 meV to -5.39 meV
  #     hydro 4 f 11.6
  #     hydro 3 p 6.2
  #     hydro 3 d 5.6
  #     hydro 5 g 17.6
  #     hydro 1 s 0.75
  #  "Third tier" - improvements: -2.83 meV to -0.50 meV
  #     ionic 2 p 9.4486
  #     hydro 4 f 10.8
  #     hydro 4 d 4.7
  #     hydro 2 s 6.8
  #  "Fourth tier" - improvements: -0.40 meV to -0.12 meV
  #     hydro 3 p 5
  #     hydro 3 s 3.3
  #     hydro 5 g 15.6
  #     hydro 4 f 17.6
  #     hydro 4 d 14
  # Further basis functions - -0.08 meV and below
  #     hydro 3 s 2.1
  #     hydro 4 d 11.6
  #     hydro 3 p 16
  #     hydro 2 s 17.2
  
  -----------------------------------------------------------------------
  Completed first pass over input file control.in .
  -----------------------------------------------------------------------
  
  
  -----------------------------------------------------------------------
  Parsing geometry.in (first pass over file, find array dimensions only).
  The contents of geometry.in will be repeated verbatim below
  unless switched off by setting 'verbatim_writeout .false.' .
  in the first line of geometry.in .
  -----------------------------------------------------------------------
  
  atom 0.0 0.0 0.0  N
  atom 0.0 0.0 1.2  O
  
  -----------------------------------------------------------------------
  Completed first pass over input file geometry.in .
  -----------------------------------------------------------------------
  

  Basic array size parameters:
  | Number of species                 :        2
  | Number of atoms                   :        2
  | Max. basis fn. angular momentum   :        2
  | Max. atomic/ionic basis occupied n:        2
  | Max. number of basis fn. types    :        2
  | Max. radial fns per species/type  :        3
  | Max. logarithmic grid size        :     1301
  | Max. radial integration grid size :       73
  | Max. angular integration grid size:      302
  | Max. angular grid division number :        8
  | Radial grid for Hartree potential :     1301
  | Number of spin channels           :        2

------------------------------------------------------------
          Reading file control.in.
------------------------------------------------------------
  XC: Using PBE gradient-corrected functionals.
  Non-relativistic treatment of kinetic energy.
  Spin treatment: Spin density functional theory - collinear spins.
  Initial spin moment per atom:   0.5000
  Charge =   0.000000E+00: Neutral system requested explicitly.
  Kohn-Sham eigenvalues and eigenfunctions calculated by LAPACK via ELSI.
  Number of empty states per atom:        5
  Occupation type: Gaussian broadening, width =   0.150000E+00 eV.
  Using pulay charge density mixing.
  Number of initial iterations with linear charge density mixing:     0
  Charge density mixing - mixing parameter:     0.6000
  Convergence accuracy of self-consistent charge density:  0.1000E-05
  Convergence accuracy of sum of eigenvalues:  0.1000E-03
  Convergence accuracy of total energy:  0.1000E-05
  Maximum number of s.-c. iterations  :   200
  Geometry relaxation: Modified BFGS - TRM (trust radius method) for lattice optimization.
  Convergence accuracy for geometry relaxation: Maximum force <   0.100000E-01 eV/A.
  * Deprecated syntax for init_hess; use "init_hess diag  15.0000" or even try "init_hess Lindh".
  Initial Hessian is   0.150000E+02 eV/A^2 times unity.
 
  Reading configuration options for species N                   .
  | Found nuclear charge :   7.0000
  | Found l_max for Hartree potential  :   4
  | Found cutoff potl. onset [A], width [A], scale factor :    4.00000    2.00000    1.00000
  | Found cutoff specification for free atom: Cutoff potential begins at    8.00000 A.
  | Found logarithmic grid data [bohr] : 0.1000E-03 0.1000E+03 0.1012E+01
  | Found data for basic radial integration grid :    35 points, outermost radius =    7.000 A
  | Found multiplier for basic radial grid :   2
  | Found angular grid specification: user-specified.
  | Specified grid contains     4 separate shells.
  | Check grid settings after all constraints further below.
  | Found free-atom valence shell :  2 s   2.000
  | Found free-atom valence shell :  2 p   3.000
  | No ionic wave fns used. Skipping ion_occ.
  | No ionic wave fns used. Skipping ion_occ.
  | Found hydrogenic basis function :  2 p   1.800
  | Found hydrogenic basis function :  3 d   6.800
  | Found hydrogenic basis function :  3 s   5.800
  Species N                   : Missing cutoff potential type.
  Defaulting to exp(1/x)/(1-x)^2 type cutoff potential.
  Species N : On-site basis accuracy parameter (for Gram-Schmidt orthonormalisation) not specified.
  Using default value basis_acc =  0.1000000E-03.
  Species N                   : Using default innermost maximum threshold i_radial=  2 for radial functions.
  Species N                   : Basic radial grid will be enhanced according to radial_multiplier =   2, to contain    71 grid points.
 
  Reading configuration options for species O                   .
  | Found nuclear charge :   8.0000
  | Found l_max for Hartree potential  :   4
  | Found cutoff potl. onset [A], width [A], scale factor :    4.00000    2.00000    1.00000
  | Found cutoff specification for free atom: Cutoff potential begins at    8.00000 A.
  | Found logarithmic grid data [bohr] : 0.1000E-03 0.1000E+03 0.1012E+01
  | Found data for basic radial integration grid :    36 points, outermost radius =    7.000 A
  | Found multiplier for basic radial grid :   2
  | Found angular grid specification: user-specified.
  | Specified grid contains     4 separate shells.
  | Check grid settings after all constraints further below.
  | Found free-atom valence shell :  2 s   2.000
  | Found free-atom valence shell :  2 p   4.000
  | No ionic wave fns used. Skipping ion_occ.
  | No ionic wave fns used. Skipping ion_occ.
  | Found hydrogenic basis function :  2 p   1.800
  | Found hydrogenic basis function :  3 d   7.600
  | Found hydrogenic basis function :  3 s   6.400
  Species O                   : Missing cutoff potential type.
  Defaulting to exp(1/x)/(1-x)^2 type cutoff potential.
  Species O : On-site basis accuracy parameter (for Gram-Schmidt orthonormalisation) not specified.
  Using default value basis_acc =  0.1000000E-03.
  Species O                   : Using default innermost maximum threshold i_radial=  2 for radial functions.
  Species O                   : Basic radial grid will be enhanced according to radial_multiplier =   2, to contain    73 grid points.
 
  Finished reading input file 'control.in'. Consistency checks are next.
 
  MPI_IN_PLACE appears to work with this MPI implementation.
  | Keeping use_mpi_in_place .true. (see manual).
  Target number of points in a grid batch is not set. Defaulting to  100
  Method for grid partitioning is not set. Defaulting to parallel hash+maxmin partitioning.
  Batch size limit is not set. Defaulting to    200
  By default, will store active basis functions for each batch.
  If in need of memory, prune_basis_once .false. can be used to disable this option.
  communication_type for Hartree potential was not specified.
  Defaulting to calc_hartree .
  Pulay mixer: Number of relevant iterations not set.
  Defaulting to    8 iterations.
  Work space size for distributed Hartree potential not set.
  Defaulting to   0.200000E+03 MB.
  Mixing parameter for spin density mixing has not been set.
  Using charge_mix_param as default:     0.6000.
  Algorithm-dependent basis array size parameters:
  | n_max_pulay                         :        8
  Presetting      1001 iterations before the initial mixing cycle
  is restarted anyway using the sc_init_iter criterion / keyword.
  Presetting a factor      1.000 between actual scf density residual
  and density convergence criterion sc_accuracy_rho below which sc_init_iter
  takes no effect.
  No maximum number of relaxation steps, defaulting to     1000
  No maximum energy tolerance for TRM/BFGS moves, defaulting to   0.100000E-02
  Maximum energy tolerance by which TRM/BFGS trajectory may increase over multiple steps:   0.300000E-02
  No harmonic length scale. Defaulting to   0.250000E-01 A.
  No trust radius initializer. Defaulting to   0.200000E+00 A.
  Force calculation: scf convergence accuracy of forces not set.
  Defaulting to 'sc_accuracy_forces not_checked'.
  Handling of forces: Unphysical translation and rotation will be removed from forces.
  No accuracy limit for integral partition fn. given. Defaulting to  0.1000E-14.
  No threshold value for u(r) in integrations given. Defaulting to  0.1000E-05.
  No accuracy for occupation numbers given. Defaulting to  0.1000E-12.
  No threshold value for occupation numbers given. Defaulting to  0.0000E+00.
  No accuracy for fermi level given. Defaulting to  0.1000E-19.
  Maximum # of iterations to find E_F not set. Defaulting to  200.
  Will not use alltoall communication since running on < 1024 CPUs.
  Threshold for basis singularities not set.
  Default threshold for basis singularities:  0.1000E-04
  partition_type (choice of integration weights) for integrals was not specified.
  | Using a version of the partition function of Stratmann and coworkers ('stratmann_sparse').
  | At each grid point, the set of atoms used to build the partition table is smoothly restricted to
  | only those atoms whose free-atom density would be non-zero at that grid point.
  Partitioning for Hartree potential was not defined. Using partition_type for integrals.
  | Adjusted default value of keyword multip_moments_threshold to:       0.10000000E-11
  | This value may affect high angular momentum components of the Hartree potential in periodic systems.
  No q(lm)/r^(l+1) cutoff set for long-range Hartree potential.
  | Using default value of  0.100000E-09 .
  | Verify using the multipole_threshold keyword.
  Defaulting to new monopole extrapolation.
  Density update method: automatic selection selected.
  Geometry relaxation: A file "geometry.in.next_step" is written out by default after each step.
  | This file contains the geometry of the current relaxation step as well as
  | the current Hessian matrix needed to restart the relaxation algorithm.
  | If you do not want part or all of this information, use the keywords
  | "write_restart_geometry" or "hessian_to_restart_geometry" to switch the output off.
  Charge integration errors on the 3D integration grid will be compensated
  by explicit normalization and distribution of residual charges.
  Use the "compensate_multipole_errors" flag to change this behaviour.
------------------------------------------------------------


------------------------------------------------------------
          Reading geometry description geometry.in.
------------------------------------------------------------
  Input structure read successfully.
  The structure contains        2 atoms,  and a total of         15.000 electrons.

  Input geometry:
  | No unit cell requested.
  | Atomic structure:
  |       Atom                x [A]            y [A]            z [A]
  |    1: Species N             0.00000000        0.00000000        0.00000000
  |    2: Species O             0.00000000        0.00000000        1.20000000
  | The smallest distance between any two atoms is         1.20000000 AA.
  | The first atom of this pair is atom number                      1 .
  | The second atom of this pair is atom number                     2 .

  Initial moments and charges:
  |  Atom   Moment         Charge        Species
  |     1   0.500000E+00   0.000000E+00   N
  |     2   0.500000E+00   0.000000E+00   O

  Structure-dependent array size parameters: 
  | Number of distinct atom types in initial rho :        2
  | Maximum number of distinct radial functions  :       12
  | Maximum number of basis functions            :       28
  | Number of Kohn-Sham states (occupied + empty):       13
------------------------------------------------------------

------------------------------------------------------------
          Preparing all fixed parts of the calculation.
------------------------------------------------------------
  Determining machine precision:
    2.225073858507201E-308
  Setting up grids for atomic and cluster calculations.

  Creating wave function, potential, and density for free atoms.

  Species: N

  List of occupied orbitals and eigenvalues:
    n    l              occ      energy [Ha]    energy [eV]
    1    0           2.0000       -14.129248      -384.4764
    2    0           2.0000        -0.681982       -18.5577
    2    1           3.0000        -0.260725        -7.0947


  Species: O

  List of occupied orbitals and eigenvalues:
    n    l              occ      energy [Ha]    energy [eV]
    1    0           2.0000       -18.898644      -514.2583
    2    0           2.0000        -0.878848       -23.9147
    2    1           4.0000        -0.332128        -9.0377

  Spin-polarized or charged system:
  Charge density initialized according to selected moments and charges.

  Creating spin-polarized density from free atoms.

  Species: N
  Charge:   0.000000
  Moment:   0.500000

  List of occupied orbitals and eigenvalues:
    n    l      energy [Ha]    energy [eV]    occupation
  Spin-up
    1    0       -14.132538      -384.5659     1.00000000
    2    0        -0.694647       -18.9023     1.00000000
    2    1        -0.272450        -7.4138     1.75000000
  Spin-down
    1    0       -14.122930      -384.3045     1.00000000
    2    0        -0.667086       -18.1523     1.00000000
    2    1        -0.246992        -6.7210     1.25000000


  Species: O
  Charge:   0.000000
  Moment:   0.500000

  List of occupied orbitals and eigenvalues:
    n    l      energy [Ha]    energy [eV]    occupation
  Spin-up
    1    0       -18.903149      -514.3809     1.00000000
    2    0        -0.892759       -24.2932     1.00000000
    2    1        -0.345270        -9.3953     2.25000000
  Spin-down
    1    0       -18.891745      -514.0705     1.00000000
    2    0        -0.863181       -23.4884     1.00000000
    2    1        -0.317418        -8.6374     1.75000000

  Creating fixed part of basis set: Ionic, confined, hydrogenic.
 
  N                    hydrogenic:
 
  List of hydrogenic basis orbitals: 
    n    l      effective z      eigenvalue [eV]  inner max. [A]     outer max. [A]     outer radius [A]   
    2    1         1.800000       -11.0118           1.177434           1.177434           5.427394
    3    2         6.800000       -69.9029           0.704610           0.704610           3.854186
    3    0         5.800000       -50.8549           0.067387           1.191917           4.629896
 
 
  O                    hydrogenic:
 
  List of hydrogenic basis orbitals: 
    n    l      effective z      eigenvalue [eV]  inner max. [A]     outer max. [A]     outer radius [A]   
    2    1         1.800000       -11.0118           1.178546           1.178546           5.432516
    3    2         7.600000       -87.3182           0.624117           0.624117           3.541422
    3    0         6.400000       -61.9209           0.061166           1.081887           4.306510
 

  Adding cutoff potential to free-atom effective potential.
  Creating atomic-like basis functions for current effective potential.

  Species N                   :

  List of atomic basis orbitals and eigenvalues:
    n    l      energy [Ha]    energy [eV]    outer radius [A]
    1    0       -14.129248      -384.4764       1.637895
    2    0        -0.681982       -18.5577       5.168379
    2    1        -0.260713        -7.0944       5.361448


  Species O                   :

  List of atomic basis orbitals and eigenvalues:
    n    l      energy [Ha]    energy [eV]    outer radius [A]
    1    0       -18.898644      -514.2583       1.415745
    2    0        -0.878848       -23.9147       5.048305
    2    1        -0.332125        -9.0376       5.301302

  Assembling full basis from fixed parts.
  | Species N :   atomic orbital   1 s accepted.
  | Species N :    hydro orbital   3 s accepted.
  | Species N :   atomic orbital   2 s accepted.
  | Species N :   atomic orbital   2 p accepted.
  | Species N :    hydro orbital   2 p accepted.
  | Species N :    hydro orbital   3 d accepted.
  | Species O :   atomic orbital   1 s accepted.
  | Species O :    hydro orbital   3 s accepted.
  | Species O :   atomic orbital   2 s accepted.
  | Species O :   atomic orbital   2 p accepted.
  | Species O :    hydro orbital   2 p accepted.
  | Species O :    hydro orbital   3 d accepted.
 
  Basis size parameters after reduction:
  | Total number of radial functions:       12
  | Total number of basis functions :       28
 
  Per-task memory consumption for arrays in subroutine allocate_ext:
  |           2.998888MB.
  Testing on-site integration grid accuracy.
  |  Species  Function  <phi|h_atom|phi> (log., in eV)  <phi|h_atom|phi> (rad., in eV)
           1        1               -384.4764072334               -384.4764044909
           1        2                 12.5660406021                 12.5660294165
           1        3                -15.7544197484                -15.7544265552
           1        4                 -7.0944658603                 -7.0944628318
           1        5                  8.3433636989                  8.3435391054
           1        6                 35.9336454285                 35.9336453449
           2        7               -514.2582716705               -514.2582672011
           2        8                 15.1717785310                 15.1717637644
           2        9                -21.5463448589                -21.5463538256
           2       10                 -9.0376100009                 -9.0376102115
           2       11                  7.9045967203                  7.9045926734
           2       12                 45.8230583372                 45.8230583430

  Preparing densities etc. for the partition functions (integrals / Hartree potential).

  Preparations completed.
  max(cpu_time)          :      0.254 s.
  Wall clock time (cpu1) :      0.254 s.
------------------------------------------------------------

------------------------------------------------------------
          Begin self-consistency loop: Initialization.

          Date     :  20190817, Time     :  154523.441
------------------------------------------------------------

  Initializing index lists of integration centers etc. from given atomic structure:
  | Number of centers in hartree potential         :         2
  | Number of centers in hartree multipole         :         2
  | Number of centers in electron density summation:         2
  | Number of centers in basis integrals           :         2
  | Number of centers in integrals                 :         2
  | Number of centers in hamiltonian               :         2

  Initializing relaxation algorithms.
  Finished initialization of distributed Hessian storage.
  | Global dimension:         6
  | BLACS block size:         1
  | Number of workers:        6

  Partitioning the integration grid into batches with parallel hashing+maxmin method.
  | Number of batches:      491
  | Maximal batch size:     144
  | Minimal batch size:      50
  | Average batch size:      65.132
  | Standard deviation of batch sizes:      12.846

  Integration load balanced across     8 MPI tasks.
  Work distribution over tasks is as follows:
  Task     0 has       4069 integration points.
  Task     1 has       3989 integration points.
  Task     2 has       4003 integration points.
  Task     3 has       4000 integration points.
  Task     4 has       3980 integration points.
  Task     5 has       4010 integration points.
  Task     6 has       3966 integration points.
  Task     7 has       3963 integration points.
  Initializing partition tables, free-atom densities, potentials, etc. across the integration grid (initialize_grid_storage).
  | initialize_grid_storage: Actual outermost partition radius vs. multipole_radius_free
  | (-- VB: in principle, multipole_radius_free should be larger, hence this output)
  | Species        1: Confinement radius =              9.999999999999998 AA, multipole_radius_free =             10.001224556210934 AA.
  | Species        1: outer_partition_radius set to             10.001224556210934 AA .
  | Species        2: Confinement radius =              9.999999999999998 AA, multipole_radius_free =             10.010662894305348 AA.
  | Species        2: outer_partition_radius set to             10.010662894305348 AA .
  | The sparse table of interatomic distances needs          0.04 kbyte instead of         0.03 kbyte of memory.
  | Using the partition_type stratmann_smoother will reduce your memory usage.
  | Net number of integration points:    31980
  | of which are non-zero points    :    30148
  Renormalizing the initial density to the exact electron count on the 3D integration grid.
  | Initial density: Formal number of electrons (from input files) :      15.0000000000
  | Integrated number of electrons on 3D grid     :      15.0000001269
  | Charge integration error                      :       0.0000001269
  | Normalization factor for density and gradient :       0.9999999915
  Renormalizing the free-atom superposition density to the exact electron count on the 3D integration grid.
  | Formal number of electrons (from input files) :      15.0000000000
  | Integrated number of electrons on 3D grid     :      15.0000000924
  | Charge integration error                      :       0.0000000924
  | Normalization factor for density and gradient :       0.9999999938
  Obtaining max. number of non-zero basis functions in each batch (get_n_compute_maxes).
  | Maximal number of non-zero basis functions:       28 in task     0
  | Maximal number of non-zero basis functions:       28 in task     1
  | Maximal number of non-zero basis functions:       28 in task     2
  | Maximal number of non-zero basis functions:       28 in task     3
  | Maximal number of non-zero basis functions:       28 in task     4
  | Maximal number of non-zero basis functions:       28 in task     5
  | Maximal number of non-zero basis functions:       28 in task     6
  | Maximal number of non-zero basis functions:       28 in task     7
  Selecting the method for density update.
  Loop over occupied states selected for charge density update.
  Allocating        0.006 MB for KS_eigenvector
  Integrating Hamiltonian matrix: batch-based integration.
  Time summed over all CPUs for integration: real work        0.077 s, elapsed        0.079 s
  Integrating overlap matrix.
  Time summed over all CPUs for integration: real work        0.019 s, elapsed        0.020 s

  Updating Kohn-Sham eigenvalues and eigenvectors using ELSI and the (modified) LAPACK eigensolver.
  Overlap matrix is not singular
  | Lowest and highest eigenvalues :  0.3302E-01,  0.1967E+01
  Finished singularity check of overlap matrix
  | Time :     0.000 s
  Starting LAPACK eigensolver
  Finished Cholesky decomposition
  | Time :     0.000 s
  Finished transformation to standard eigenproblem
  | Time :     0.000 s
  Finished solving standard eigenproblem
  | Time :     0.001 s
  Finished back-transformation of eigenvectors
  | Time :     0.000 s

  Obtaining occupation numbers and chemical potential using ELSI.
  | Chemical potential (Fermi level):    -5.58219363 eV
  Writing Kohn-Sham eigenvalues.

  Spin-up eigenvalues:

  State    Occupation    Eigenvalue [Ha]    Eigenvalue [eV]
      1       1.00000         -18.960321         -515.93660
      2       1.00000         -14.172932         -385.66509
      3       1.00000          -1.162793          -31.64120
      4       1.00000          -0.676071          -18.39683
      5       1.00000          -0.489177          -13.31120
      6       1.00000          -0.489177          -13.31120
      7       1.00000          -0.483468          -13.15584
      8       0.50000          -0.205142           -5.58219
      9       0.50000          -0.205142           -5.58219
     10       0.00000           0.097857            2.66282
     11       0.00000           0.235595            6.41088
     12       0.00000           0.235595            6.41088
     13       0.00000           0.300518            8.17751

  Spin-down eigenvalues:

  State    Occupation    Eigenvalue [Ha]    Eigenvalue [eV]
      1       1.00000         -18.948801         -515.62312
      2       1.00000         -14.163233         -385.40119
      3       1.00000          -1.130279          -30.75646
      4       1.00000          -0.646435          -17.59040
      5       1.00000          -0.460562          -12.53252
      6       1.00000          -0.460562          -12.53252
      7       1.00000          -0.454431          -12.36570
      8       0.00000          -0.176882           -4.81320
      9       0.00000          -0.176882           -4.81320
     10       0.00000           0.106968            2.91075
     11       0.00000           0.246737            6.71405
     12       0.00000           0.246737            6.71405
     13       0.00000           0.325197            8.84907

  Current spin moment of the entire structure :
  | N = N_up - N_down :    1.00
  | S                 :    0.50
  | J                 :    2.00

  Highest occupied state (VBM) at    -12.36570113 eV
  | Occupation number:      1.00000000
  | Spin channel:        2

  Lowest unoccupied state (CBM) at    -5.58219363 eV
  | Occupation number:      0.50000000
  | Spin channel:        1

  Overall HOMO-LUMO gap:      6.78350750 eV.
  This system has fractional occupation numbers. Thus, it is a degenerate system
  within the approximate finite broadening function (occupation_type)
  applied to determine the occupation numbers.
  This may not be harmful. However, for some systems (free atoms), a different, non-degenerate
  ground state might exist by using a smaller broadening (see keyword occupation_type).
  Calculating total energy contributions from superposition of free atom densities.

  Total energy components:
  | Sum of eigenvalues            :         -72.90338607 Ha       -1983.80206958 eV
  | XC energy correction          :         -15.07835910 Ha        -410.30302705 eV
  | XC potential correction       :          19.37269082 Ha         527.15773863 eV
  | Free-atom electrostatic energy:         -61.20765449 Ha       -1665.54502063 eV
  | Hartree energy correction     :           0.00000000 Ha           0.00000000 eV
  | Entropy correction            :          -0.00155502 Ha          -0.04231422 eV
  | ---------------------------
  | Total energy                  :        -129.81670883 Ha       -3532.49237861 eV
  | Total energy, T -> 0          :        -129.81826385 Ha       -3532.53469283 eV  <-- do not rely on this value for anything but (periodic) metals
  | Electronic free energy        :        -129.81981887 Ha       -3532.57700705 eV

  Derived energy quantities:
  | Kinetic energy                :         129.17519903 Ha        3515.03600855 eV
  | Electrostatic energy          :        -243.91354876 Ha       -6637.22536012 eV
  | Energy correction for multipole
  | error in Hartree potential    :           0.00000000 Ha           0.00000000 eV
  | Sum of eigenvalues per atom                           :        -991.90103479 eV
  | Total energy (T->0) per atom                          :       -1766.26734642 eV  <-- do not rely on this value for anything but (periodic) metals
  | Electronic free energy per atom                       :       -1766.28850353 eV
  Initialize hartree_potential_storage
  Max. number of atoms included in rho_multipole:            2

  End scf initialization - timings             :  max(cpu_time)    wall_clock(cpu1)
  | Time for scf. initialization               :        0.037 s           0.037 s
  | Boundary condition initialization          :        0.000 s           0.000 s
  | Relaxation initialization                  :        0.001 s           0.000 s
  | Integration                                :        0.013 s           0.013 s
  | Solution of K.-S. eqns.                    :        0.002 s           0.002 s
  | Grid partitioning                          :        0.009 s           0.008 s
  | Preloading free-atom quantities on grid    :        0.004 s           0.004 s
  | Free-atom superposition energy             :        0.003 s           0.004 s
  | Total energy evaluation                    :        0.000 s           0.000 s

  Partial memory accounting:
  | Current value for overall tracked memory usage:
  |   Minimum:        0.016 MB (on task 0)
  |   Maximum:        0.016 MB (on task 0)
  |   Average:        0.016 MB
  | Peak value for overall tracked memory usage:
  |   Minimum:        0.176 MB (on task 0 after allocating wave)
  |   Maximum:        0.176 MB (on task 0 after allocating wave)
  |   Average:        0.176 MB
  | Largest tracked array allocation so far:
  |   Minimum:        0.078 MB (all_coords on task 3)
  |   Maximum:        0.107 MB (all_coords on task 4)
  |   Average:        0.091 MB
  Note:  These values currently only include a subset of arrays which are explicitly tracked.
  The "true" memory usage will be greater.
------------------------------------------------------------

------------------------------------------------------------
          Begin self-consistency iteration #    1

  Date     :  20190817, Time     :  154523.478
------------------------------------------------------------
  Evaluating new KS density.
  Integration grid: deviation in total charge (<rho> - N_e) =  -1.598721E-14
  | <rho_up-rho_dn> = N_up-N_dn =      1.0000; <|rho_up-rho_dn|> =      1.0049
  Pulay mixing of updated and previous charge densities.
  Renormalizing the density to the exact electron count on the 3D integration grid.
  | Formal number of electrons (from input files) :      15.0000000000
  | Integrated number of electrons on 3D grid     :      15.0000000000
  | Charge integration error                      :       0.0000000000
  | Normalization factor for density and gradient :       1.0000000000

  Evaluating partitioned Hartree potential by multipole expansion.
  | Original multipole sum: apparent total charge =   0.218735E-13
  | Sum of charges compensated after spline to logarithmic grids =   0.303667E-06
  | Analytical far-field extrapolation by fixed multipoles:
  | Hartree multipole sum: apparent total charge =   0.217444E-13
  Summing up the Hartree potential.
  Time summed over all CPUs for potential: real work        0.030 s, elapsed        0.032 s
  | RMS charge density error from multipole expansion :   0.380668E-02

  Integrating Hamiltonian matrix: batch-based integration.
  Time summed over all CPUs for integration: real work        0.075 s, elapsed        0.079 s

  Updating Kohn-Sham eigenvalues and eigenvectors using ELSI and the (modified) LAPACK eigensolver.
  Starting LAPACK eigensolver
  Finished Cholesky decomposition
  | Time :     0.000 s
  Finished transformation to standard eigenproblem
  | Time :     0.000 s
  Finished solving standard eigenproblem
  | Time :     0.000 s
  Finished back-transformation of eigenvectors
  | Time :     0.000 s

  Obtaining occupation numbers and chemical potential using ELSI.
  | Chemical potential (Fermi level):    -4.71699670 eV
  Writing Kohn-Sham eigenvalues.

  Spin-up eigenvalues:

  State    Occupation    Eigenvalue [Ha]    Eigenvalue [eV]
      1       1.00000         -18.844536         -512.78591
      2       1.00000         -14.136024         -384.66079
      3       1.00000          -1.119624          -30.46652
      4       1.00000          -0.626478          -17.04735
      5       1.00000          -0.450757          -12.26572
      6       1.00000          -0.450757          -12.26572
      7       1.00000          -0.434597          -11.82600
      8       0.50000          -0.173346           -4.71700
      9       0.50000          -0.173346           -4.71700
     10       0.00000           0.113110            3.07788
     11       0.00000           0.249403            6.78660
     12       0.00000           0.249403            6.78660
     13       0.00000           0.343393            9.34419

  Spin-down eigenvalues:

  State    Occupation    Eigenvalue [Ha]    Eigenvalue [eV]
      1       1.00000         -18.833981         -512.49870
      2       1.00000         -14.123687         -384.32508
      3       1.00000          -1.095414          -29.80773
      4       1.00000          -0.596424          -16.22951
      5       1.00000          -0.420899          -11.45323
      6       1.00000          -0.420899          -11.45323
      7       1.00000          -0.410790          -11.17816
      8       0.00000          -0.137003           -3.72803
      9       0.00000          -0.137003           -3.72803
     10       0.00000           0.122069            3.32167
     11       0.00000           0.263555            7.17170
     12       0.00000           0.263555            7.17170
     13       0.00000           0.359591            9.78496

  Current spin moment of the entire structure :
  | N = N_up - N_down :    1.00
  | S                 :    0.50
  | J                 :    2.00

  Highest occupied state (VBM) at     -4.71699670 eV
  | Occupation number:      0.50000000
  | Spin channel:        1

  Lowest unoccupied state (CBM) at    -4.71699670 eV
  | Occupation number:      0.50000000
  | Spin channel:        1

  Overall HOMO-LUMO gap:      0.00000000 eV.
  This system has fractional occupation numbers. Thus, it is a degenerate system
  within the approximate finite broadening function (occupation_type)
  applied to determine the occupation numbers.
  This may not be harmful. However, for some systems (free atoms), a different, non-degenerate
  ground state might exist by using a smaller broadening (see keyword occupation_type).

  Total energy components:
  | Sum of eigenvalues            :         -72.13821277 Ha       -1962.98064491 eV
  | XC energy correction          :         -15.17822368 Ha        -413.02048061 eV
  | XC potential correction       :          19.50334333 Ha         530.71297439 eV
  | Free-atom electrostatic energy:         -61.20765449 Ha       -1665.54502063 eV
  | Hartree energy correction     :          -0.79289778 Ha         -21.57584630 eV
  | Entropy correction            :          -0.00155502 Ha          -0.04231422 eV
  | ---------------------------
  | Total energy                  :        -129.81364539 Ha       -3532.40901806 eV
  | Total energy, T -> 0          :        -129.81520041 Ha       -3532.45133228 eV  <-- do not rely on this value for anything but (periodic) metals
  | Electronic free energy        :        -129.81675543 Ha       -3532.49364650 eV

  Derived energy quantities:
  | Kinetic energy                :         129.61526993 Ha        3527.01094706 eV
  | Electrostatic energy          :        -244.25069164 Ha       -6646.39948451 eV
  | Energy correction for multipole
  | error in Hartree potential    :           0.00366574 Ha           0.09974985 eV
  | Sum of eigenvalues per atom                           :        -981.49032246 eV
  | Total energy (T->0) per atom                          :       -1766.22566614 eV  <-- do not rely on this value for anything but (periodic) metals
  | Electronic free energy per atom                       :       -1766.24682325 eV

  Self-consistency convergence accuracy:
  | Change of charge/spin density :  0.1455E+00  0.1032E+00
  | Change of sum of eigenvalues  :  0.2082E+02 eV
  | Change of total energy        :  0.8336E-01 eV

  End self-consistency iteration #     1       :  max(cpu_time)    wall_clock(cpu1)
  | Time for this iteration                    :        0.025 s           0.025 s
  | Charge density update                      :        0.008 s           0.008 s
  | Density mixing                             :        0.001 s           0.001 s
  | Hartree multipole update                   :        0.001 s           0.001 s
  | Hartree multipole summation                :        0.004 s           0.004 s
  | Integration                                :        0.010 s           0.010 s
  | Solution of K.-S. eqns.                    :        0.001 s           0.001 s
  | Total energy evaluation                    :        0.000 s           0.000 s

  Partial memory accounting:
  | Current value for overall tracked memory usage:
  |   Minimum:        0.016 MB (on task 0)
  |   Maximum:        0.016 MB (on task 0)
  |   Average:        0.016 MB
  | Peak value for overall tracked memory usage:
  |   Minimum:        0.176 MB (on task 0 after allocating wave)
  |   Maximum:        0.176 MB (on task 0 after allocating wave)
  |   Average:        0.176 MB
  | Largest tracked array allocation so far:
  |   Minimum:        0.092 MB (gradient_basis_wave on task 1)
  |   Maximum:        0.107 MB (all_coords on task 4)
  |   Average:        0.096 MB
  Note:  These values currently only include a subset of arrays which are explicitly tracked.
  The "true" memory usage will be greater.
------------------------------------------------------------

------------------------------------------------------------
          Begin self-consistency iteration #    2

  Date     :  20190817, Time     :  154523.504
------------------------------------------------------------
  Evaluating new KS density.
  Integration grid: deviation in total charge (<rho> - N_e) =  -2.842171E-14
  | <rho_up-rho_dn> = N_up-N_dn =      1.0000; <|rho_up-rho_dn|> =      1.0088
  Pulay mixing of updated and previous charge densities.
  Renormalizing the density to the exact electron count on the 3D integration grid.
  | Formal number of electrons (from input files) :      15.0000000000
  | Integrated number of electrons on 3D grid     :      15.0000000000
  | Charge integration error                      :      -0.0000000000
  | Normalization factor for density and gradient :       1.0000000000

  Evaluating partitioned Hartree potential by multipole expansion.
  | Original multipole sum: apparent total charge =   0.298924E-13
  | Sum of charges compensated after spline to logarithmic grids =   0.367004E-06
  | Analytical far-field extrapolation by fixed multipoles:
  | Hartree multipole sum: apparent total charge =   0.299908E-13
  Summing up the Hartree potential.
  Time summed over all CPUs for potential: real work        0.029 s, elapsed        0.030 s
  | RMS charge density error from multipole expansion :   0.487511E-02

  Integrating Hamiltonian matrix: batch-based integration.
  Time summed over all CPUs for integration: real work        0.077 s, elapsed        0.081 s

  Updating Kohn-Sham eigenvalues and eigenvectors using ELSI and the (modified) LAPACK eigensolver.
  Starting LAPACK eigensolver
  Finished Cholesky decomposition
  | Time :     0.000 s
  Finished transformation to standard eigenproblem
  | Time :     0.000 s
  Finished solving standard eigenproblem
  | Time :     0.000 s
  Finished back-transformation of eigenvectors
  | Time :     0.000 s

  Obtaining occupation numbers and chemical potential using ELSI.
  | Chemical potential (Fermi level):    -4.72515751 eV
  Current spin moment of the entire structure :
  | N = N_up - N_down :    1.00
  | S                 :    0.50
  | J                 :    2.00

  Highest occupied state (VBM) at     -4.72515751 eV
  | Occupation number:      0.50000000
  | Spin channel:        1

  Lowest unoccupied state (CBM) at    -4.72515751 eV
  | Occupation number:      0.50000000
  | Spin channel:        1

  Overall HOMO-LUMO gap:      0.00000000 eV.
  This system has fractional occupation numbers. Thus, it is a degenerate system
  within the approximate finite broadening function (occupation_type)
  applied to determine the occupation numbers.
  This may not be harmful. However, for some systems (free atoms), a different, non-degenerate
  ground state might exist by using a smaller broadening (see keyword occupation_type).

  Checking to see if s.c.f. parameters should be adjusted.

  Total energy components:
  | Sum of eigenvalues            :         -72.34048407 Ha       -1968.48472684 eV
  | XC energy correction          :         -15.15522248 Ha        -412.39458618 eV
  | XC potential correction       :          19.47320838 Ha         529.89296061 eV
  | Free-atom electrostatic energy:         -61.20765449 Ha       -1665.54502063 eV
  | Hartree energy correction     :          -0.58735022 Ha         -15.98261264 eV
  | Entropy correction            :          -0.00155502 Ha          -0.04231422 eV
  | ---------------------------
  | Total energy                  :        -129.81750288 Ha       -3532.51398568 eV
  | Total energy, T -> 0          :        -129.81905790 Ha       -3532.55629990 eV  <-- do not rely on this value for anything but (periodic) metals
  | Electronic free energy        :        -129.82061292 Ha       -3532.59861412 eV

  Derived energy quantities:
  | Kinetic energy                :         129.33904487 Ha        3519.49448080 eV
  | Electrostatic energy          :        -244.00132527 Ha       -6639.61388030 eV
  | Energy correction for multipole
  | error in Hartree potential    :           0.00414228 Ha           0.11271721 eV
  | Sum of eigenvalues per atom                           :        -984.24236342 eV
  | Total energy (T->0) per atom                          :       -1766.27814995 eV  <-- do not rely on this value for anything but (periodic) metals
  | Electronic free energy per atom                       :       -1766.29930706 eV

  Self-consistency convergence accuracy:
  | Change of charge/spin density :  0.8860E-01  0.4154E-01
  | Change of sum of eigenvalues  : -0.5504E+01 eV
  | Change of total energy        : -0.1050E+00 eV

  End self-consistency iteration #     2       :  max(cpu_time)    wall_clock(cpu1)
  | Time for this iteration                    :        0.025 s           0.024 s
  | Charge density update                      :        0.007 s           0.006 s
  | Density mixing                             :        0.001 s           0.002 s
  | Hartree multipole update                   :        0.001 s           0.001 s
  | Hartree multipole summation                :        0.004 s           0.004 s
  | Integration                                :        0.010 s           0.010 s
  | Solution of K.-S. eqns.                    :        0.001 s           0.001 s
  | Total energy evaluation                    :        0.000 s           0.000 s

  Partial memory accounting:
  | Current value for overall tracked memory usage:
  |   Minimum:        0.017 MB (on task 0)
  |   Maximum:        0.017 MB (on task 0)
  |   Average:        0.017 MB
  | Peak value for overall tracked memory usage:
  |   Minimum:        0.177 MB (on task 0 after allocating wave)
  |   Maximum:        0.177 MB (on task 0 after allocating wave)
  |   Average:        0.177 MB
  | Largest tracked array allocation so far:
  |   Minimum:        0.092 MB (gradient_basis_wave on task 1)
  |   Maximum:        0.107 MB (all_coords on task 4)
  |   Average:        0.096 MB
  Note:  These values currently only include a subset of arrays which are explicitly tracked.
  The "true" memory usage will be greater.
------------------------------------------------------------

------------------------------------------------------------
          Begin self-consistency iteration #    3

  Date     :  20190817, Time     :  154523.529
------------------------------------------------------------
  Evaluating new KS density.
  Integration grid: deviation in total charge (<rho> - N_e) =   4.085621E-14
  | <rho_up-rho_dn> = N_up-N_dn =      1.0000; <|rho_up-rho_dn|> =      1.0107
  Pulay mixing of updated and previous charge densities.
  Renormalizing the density to the exact electron count on the 3D integration grid.
  | Formal number of electrons (from input files) :      15.0000000000
  | Integrated number of electrons on 3D grid     :      15.0000000000
  | Charge integration error                      :       0.0000000000
  | Normalization factor for density and gradient :       1.0000000000

  Evaluating partitioned Hartree potential by multipole expansion.
  | Original multipole sum: apparent total charge =   0.337665E-13
  | Sum of charges compensated after spline to logarithmic grids =   0.419500E-06
  | Analytical far-field extrapolation by fixed multipoles:
  | Hartree multipole sum: apparent total charge =   0.336620E-13
  Summing up the Hartree potential.
  Time summed over all CPUs for potential: real work        0.029 s, elapsed        0.030 s
  | RMS charge density error from multipole expansion :   0.576383E-02

  Integrating Hamiltonian matrix: batch-based integration.
  Time summed over all CPUs for integration: real work        0.075 s, elapsed        0.077 s

  Updating Kohn-Sham eigenvalues and eigenvectors using ELSI and the (modified) LAPACK eigensolver.
  Starting LAPACK eigensolver
  Finished Cholesky decomposition
  | Time :     0.000 s
  Finished transformation to standard eigenproblem
  | Time :     0.000 s
  Finished solving standard eigenproblem
  | Time :     0.000 s
  Finished back-transformation of eigenvectors
  | Time :     0.000 s

  Obtaining occupation numbers and chemical potential using ELSI.
  | Chemical potential (Fermi level):    -4.82696465 eV
  Current spin moment of the entire structure :
  | N = N_up - N_down :    1.00
  | S                 :    0.50
  | J                 :    2.00

  Highest occupied state (VBM) at     -4.82696465 eV
  | Occupation number:      0.50000000
  | Spin channel:        1

  Lowest unoccupied state (CBM) at    -4.82696465 eV
  | Occupation number:      0.50000000
  | Spin channel:        1

  Overall HOMO-LUMO gap:      0.00000000 eV.
  This system has fractional occupation numbers. Thus, it is a degenerate system
  within the approximate finite broadening function (occupation_type)
  applied to determine the occupation numbers.
  This may not be harmful. However, for some systems (free atoms), a different, non-degenerate
  ground state might exist by using a smaller broadening (see keyword occupation_type).

  Total energy components:
  | Sum of eigenvalues            :         -72.25934787 Ha       -1966.27689865 eV
  | XC energy correction          :         -15.16429661 Ha        -412.64150569 eV
  | XC potential correction       :          19.48516842 Ha         530.21841006 eV
  | Free-atom electrostatic energy:         -61.20765449 Ha       -1665.54502063 eV
  | Hartree energy correction     :          -0.66547218 Ha         -18.10841926 eV
  | Entropy correction            :          -0.00155502 Ha          -0.04231422 eV
  | ---------------------------
  | Total energy                  :        -129.81160272 Ha       -3532.35343417 eV
  | Total energy, T -> 0          :        -129.81315774 Ha       -3532.39574838 eV  <-- do not rely on this value for anything but (periodic) metals
  | Electronic free energy        :        -129.81471276 Ha       -3532.43806260 eV

  Derived energy quantities:
  | Kinetic energy                :         129.32730592 Ha        3519.17504775 eV
  | Electrostatic energy          :        -243.97461203 Ha       -6638.88697622 eV
  | Energy correction for multipole
  | error in Hartree potential    :           0.00492942 Ha           0.13413624 eV
  | Sum of eigenvalues per atom                           :        -983.13844932 eV
  | Total energy (T->0) per atom                          :       -1766.19787419 eV  <-- do not rely on this value for anything but (periodic) metals
  | Electronic free energy per atom                       :       -1766.21903130 eV

  Self-consistency convergence accuracy:
  | Change of charge/spin density :  0.1178E+00  0.3856E-01
  | Change of sum of eigenvalues  :  0.2208E+01 eV
  | Change of total energy        :  0.1606E+00 eV

  End self-consistency iteration #     3       :  max(cpu_time)    wall_clock(cpu1)
  | Time for this iteration                    :        0.024 s           0.024 s
  | Charge density update                      :        0.007 s           0.006 s
  | Density mixing                             :        0.001 s           0.002 s
  | Hartree multipole update                   :        0.001 s           0.001 s
  | Hartree multipole summation                :        0.004 s           0.004 s
  | Integration                                :        0.010 s           0.010 s
  | Solution of K.-S. eqns.                    :        0.001 s           0.001 s
  | Total energy evaluation                    :        0.000 s           0.000 s

  Partial memory accounting:
  | Current value for overall tracked memory usage:
  |   Minimum:        0.017 MB (on task 0)
  |   Maximum:        0.017 MB (on task 0)
  |   Average:        0.017 MB
  | Peak value for overall tracked memory usage:
  |   Minimum:        0.177 MB (on task 0 after allocating wave)
  |   Maximum:        0.177 MB (on task 0 after allocating wave)
  |   Average:        0.177 MB
  | Largest tracked array allocation so far:
  |   Minimum:        0.092 MB (gradient_basis_wave on task 1)
  |   Maximum:        0.107 MB (all_coords on task 4)
  |   Average:        0.096 MB
  Note:  These values currently only include a subset of arrays which are explicitly tracked.
  The "true" memory usage will be greater.
------------------------------------------------------------

------------------------------------------------------------
          Begin self-consistency iteration #    4

  Date     :  20190817, Time     :  154523.553
------------------------------------------------------------
  Evaluating new KS density.
  Integration grid: deviation in total charge (<rho> - N_e) =   5.684342E-14
  | <rho_up-rho_dn> = N_up-N_dn =      1.0000; <|rho_up-rho_dn|> =      1.0124
  Pulay mixing of updated and previous charge densities.
  Renormalizing the density to the exact electron count on the 3D integration grid.
  | Formal number of electrons (from input files) :      15.0000000000
  | Integrated number of electrons on 3D grid     :      15.0000000000
  | Charge integration error                      :       0.0000000000
  | Normalization factor for density and gradient :       1.0000000000

  Evaluating partitioned Hartree potential by multipole expansion.
  | Original multipole sum: apparent total charge =   0.251681E-13
  | Sum of charges compensated after spline to logarithmic grids =   0.445240E-06
  | Analytical far-field extrapolation by fixed multipoles:
  | Hartree multipole sum: apparent total charge =   0.252404E-13
  Summing up the Hartree potential.
  Time summed over all CPUs for potential: real work        0.030 s, elapsed        0.032 s
  | RMS charge density error from multipole expansion :   0.619255E-02

  Integrating Hamiltonian matrix: batch-based integration.
  Time summed over all CPUs for integration: real work        0.075 s, elapsed        0.079 s

  Updating Kohn-Sham eigenvalues and eigenvectors using ELSI and the (modified) LAPACK eigensolver.
  Starting LAPACK eigensolver
  Finished Cholesky decomposition
  | Time :     0.000 s
  Finished transformation to standard eigenproblem
  | Time :     0.000 s
  Finished solving standard eigenproblem
  | Time :     0.001 s
  Finished back-transformation of eigenvectors
  | Time :     0.000 s

  Obtaining occupation numbers and chemical potential using ELSI.
  | Chemical potential (Fermi level):    -4.80464357 eV
  Current spin moment of the entire structure :
  | N = N_up - N_down :    1.00
  | S                 :    0.50
  | J                 :    2.00

  Highest occupied state (VBM) at     -4.80464357 eV
  | Occupation number:      0.50000000
  | Spin channel:        1

  Lowest unoccupied state (CBM) at    -3.61193130 eV
  | Occupation number:      0.00000000
  | Spin channel:        2

  Overall HOMO-LUMO gap:      1.19271227 eV.
  This system has fractional occupation numbers. Thus, it is a degenerate system
  within the approximate finite broadening function (occupation_type)
  applied to determine the occupation numbers.
  This may not be harmful. However, for some systems (free atoms), a different, non-degenerate
  ground state might exist by using a smaller broadening (see keyword occupation_type).

  Total energy components:
  | Sum of eigenvalues            :         -72.24073565 Ha       -1965.77043421 eV
  | XC energy correction          :         -15.16632487 Ha        -412.69669742 eV
  | XC potential correction       :          19.48783994 Ha         530.29110575 eV
  | Free-atom electrostatic energy:         -61.20765449 Ha       -1665.54502063 eV
  | Hartree energy correction     :          -0.68477768 Ha         -18.63374882 eV
  | Entropy correction            :          -0.00155502 Ha          -0.04231422 eV
  | ---------------------------
  | Total energy                  :        -129.81165274 Ha       -3532.35479532 eV
  | Total energy, T -> 0          :        -129.81320776 Ha       -3532.39710954 eV  <-- do not rely on this value for anything but (periodic) metals
  | Electronic free energy        :        -129.81476278 Ha       -3532.43942376 eV

  Derived energy quantities:
  | Kinetic energy                :         129.30021081 Ha        3518.43775219 eV
  | Electrostatic energy          :        -243.94553868 Ha       -6638.09585010 eV
  | Energy correction for multipole
  | error in Hartree potential    :           0.00518587 Ha           0.14111464 eV
  | Sum of eigenvalues per atom                           :        -982.88521710 eV
  | Total energy (T->0) per atom                          :       -1766.19855477 eV  <-- do not rely on this value for anything but (periodic) metals
  | Electronic free energy per atom                       :       -1766.21971188 eV

  Self-consistency convergence accuracy:
  | Change of charge/spin density :  0.8733E-02  0.1375E-01
  | Change of sum of eigenvalues  :  0.5065E+00 eV
  | Change of total energy        : -0.1361E-02 eV

  End self-consistency iteration #     4       :  max(cpu_time)    wall_clock(cpu1)
  | Time for this iteration                    :        0.025 s           0.025 s
  | Charge density update                      :        0.007 s           0.007 s
  | Density mixing                             :        0.002 s           0.002 s
  | Hartree multipole update                   :        0.001 s           0.001 s
  | Hartree multipole summation                :        0.004 s           0.004 s
  | Integration                                :        0.010 s           0.010 s
  | Solution of K.-S. eqns.                    :        0.001 s           0.001 s
  | Total energy evaluation                    :        0.000 s           0.000 s

  Partial memory accounting:
  | Current value for overall tracked memory usage:
  |   Minimum:        0.017 MB (on task 0)
  |   Maximum:        0.017 MB (on task 0)
  |   Average:        0.017 MB
  | Peak value for overall tracked memory usage:
  |   Minimum:        0.177 MB (on task 0 after allocating wave)
  |   Maximum:        0.177 MB (on task 0 after allocating wave)
  |   Average:        0.177 MB
  | Largest tracked array allocation so far:
  |   Minimum:        0.092 MB (gradient_basis_wave on task 1)
  |   Maximum:        0.107 MB (all_coords on task 4)
  |   Average:        0.096 MB
  Note:  These values currently only include a subset of arrays which are explicitly tracked.
  The "true" memory usage will be greater.
------------------------------------------------------------

------------------------------------------------------------
          Begin self-consistency iteration #    5

  Date     :  20190817, Time     :  154523.578
------------------------------------------------------------
  Evaluating new KS density.
  Integration grid: deviation in total charge (<rho> - N_e) =   8.171241E-14
  | <rho_up-rho_dn> = N_up-N_dn =      1.0000; <|rho_up-rho_dn|> =      1.0136
  Pulay mixing of updated and previous charge densities.
  Renormalizing the density to the exact electron count on the 3D integration grid.
  | Formal number of electrons (from input files) :      15.0000000000
  | Integrated number of electrons on 3D grid     :      15.0000000000
  | Charge integration error                      :       0.0000000000
  | Normalization factor for density and gradient :       1.0000000000

  Evaluating partitioned Hartree potential by multipole expansion.
  | Original multipole sum: apparent total charge =   0.171538E-13
  | Sum of charges compensated after spline to logarithmic grids =   0.446338E-06
  | Analytical far-field extrapolation by fixed multipoles:
  | Hartree multipole sum: apparent total charge =   0.170247E-13
  Summing up the Hartree potential.
  Time summed over all CPUs for potential: real work        0.030 s, elapsed        0.032 s
  | RMS charge density error from multipole expansion :   0.620464E-02

  Integrating Hamiltonian matrix: batch-based integration.
  Time summed over all CPUs for integration: real work        0.075 s, elapsed        0.079 s

  Updating Kohn-Sham eigenvalues and eigenvectors using ELSI and the (modified) LAPACK eigensolver.
  Starting LAPACK eigensolver
  Finished Cholesky decomposition
  | Time :     0.000 s
  Finished transformation to standard eigenproblem
  | Time :     0.000 s
  Finished solving standard eigenproblem
  | Time :     0.000 s
  Finished back-transformation of eigenvectors
  | Time :     0.000 s

  Obtaining occupation numbers and chemical potential using ELSI.
  | Chemical potential (Fermi level):    -4.81841916 eV
  Current spin moment of the entire structure :
  | N = N_up - N_down :    1.00
  | S                 :    0.50
  | J                 :    2.00

  Highest occupied state (VBM) at     -4.81841916 eV
  | Occupation number:      0.50000000
  | Spin channel:        1

  Lowest unoccupied state (CBM) at    -3.61319968 eV
  | Occupation number:      0.00000000
  | Spin channel:        2

  Overall HOMO-LUMO gap:      1.20521948 eV.
  This system has fractional occupation numbers. Thus, it is a degenerate system
  within the approximate finite broadening function (occupation_type)
  applied to determine the occupation numbers.
  This may not be harmful. However, for some systems (free atoms), a different, non-degenerate
  ground state might exist by using a smaller broadening (see keyword occupation_type).

  Total energy components:
  | Sum of eigenvalues            :         -72.24702994 Ha       -1965.94171070 eV
  | XC energy correction          :         -15.16573685 Ha        -412.68069672 eV
  | XC potential correction       :          19.48707407 Ha         530.27026534 eV
  | Free-atom electrostatic energy:         -61.20765449 Ha       -1665.54502063 eV
  | Hartree energy correction     :          -0.67831495 Ha         -18.45788882 eV
  | Entropy correction            :          -0.00155502 Ha          -0.04231422 eV
  | ---------------------------
  | Total energy                  :        -129.81166216 Ha       -3532.35505152 eV
  | Total energy, T -> 0          :        -129.81321718 Ha       -3532.39736574 eV  <-- do not rely on this value for anything but (periodic) metals
  | Electronic free energy        :        -129.81477219 Ha       -3532.43967996 eV

  Derived energy quantities:
  | Kinetic energy                :         129.29317557 Ha        3518.24631357 eV
  | Electrostatic energy          :        -243.93910087 Ha       -6637.92066837 eV
  | Energy correction for multipole
  | error in Hartree potential    :           0.00516848 Ha           0.14064155 eV
  | Sum of eigenvalues per atom                           :        -982.97085535 eV
  | Total energy (T->0) per atom                          :       -1766.19868287 eV  <-- do not rely on this value for anything but (periodic) metals
  | Electronic free energy per atom                       :       -1766.21983998 eV

  Self-consistency convergence accuracy:
  | Change of charge/spin density :  0.1353E-02  0.5837E-02
  | Change of sum of eigenvalues  : -0.1713E+00 eV
  | Change of total energy        : -0.2562E-03 eV

  End self-consistency iteration #     5       :  max(cpu_time)    wall_clock(cpu1)
  | Time for this iteration                    :        0.025 s           0.025 s
  | Charge density update                      :        0.007 s           0.006 s
  | Density mixing                             :        0.002 s           0.002 s
  | Hartree multipole update                   :        0.001 s           0.001 s
  | Hartree multipole summation                :        0.004 s           0.004 s
  | Integration                                :        0.010 s           0.010 s
  | Solution of K.-S. eqns.                    :        0.001 s           0.001 s
  | Total energy evaluation                    :        0.000 s           0.000 s

  Partial memory accounting:
  | Current value for overall tracked memory usage:
  |   Minimum:        0.017 MB (on task 0)
  |   Maximum:        0.017 MB (on task 0)
  |   Average:        0.017 MB
  | Peak value for overall tracked memory usage:
  |   Minimum:        0.177 MB (on task 0 after allocating wave)
  |   Maximum:        0.177 MB (on task 0 after allocating wave)
  |   Average:        0.177 MB
  | Largest tracked array allocation so far:
  |   Minimum:        0.092 MB (gradient_basis_wave on task 1)
  |   Maximum:        0.107 MB (all_coords on task 4)
  |   Average:        0.096 MB
  Note:  These values currently only include a subset of arrays which are explicitly tracked.
  The "true" memory usage will be greater.
------------------------------------------------------------

------------------------------------------------------------
          Begin self-consistency iteration #    6

  Date     :  20190817, Time     :  154523.604
------------------------------------------------------------
  Evaluating new KS density.
  Integration grid: deviation in total charge (<rho> - N_e) =   6.039613E-14
  | <rho_up-rho_dn> = N_up-N_dn =      1.0000; <|rho_up-rho_dn|> =      1.0139
  Pulay mixing of updated and previous charge densities.
  Renormalizing the density to the exact electron count on the 3D integration grid.
  | Formal number of electrons (from input files) :      15.0000000000
  | Integrated number of electrons on 3D grid     :      15.0000000000
  | Charge integration error                      :       0.0000000000
  | Normalization factor for density and gradient :       1.0000000000

  Evaluating partitioned Hartree potential by multipole expansion.
  | Original multipole sum: apparent total charge =   0.179717E-13
  | Sum of charges compensated after spline to logarithmic grids =   0.444239E-06
  | Analytical far-field extrapolation by fixed multipoles:
  | Hartree multipole sum: apparent total charge =   0.179994E-13
  Summing up the Hartree potential.
  Time summed over all CPUs for potential: real work        0.029 s, elapsed        0.030 s
  | RMS charge density error from multipole expansion :   0.616070E-02

  Integrating Hamiltonian matrix: batch-based integration.
  Time summed over all CPUs for integration: real work        0.075 s, elapsed        0.078 s

  Updating Kohn-Sham eigenvalues and eigenvectors using ELSI and the (modified) LAPACK eigensolver.
  Starting LAPACK eigensolver
  Finished Cholesky decomposition
  | Time :     0.000 s
  Finished transformation to standard eigenproblem
  | Time :     0.000 s
  Finished solving standard eigenproblem
  | Time :     0.000 s
  Finished back-transformation of eigenvectors
  | Time :     0.000 s

  Obtaining occupation numbers and chemical potential using ELSI.
  | Chemical potential (Fermi level):    -4.81520809 eV
  Current spin moment of the entire structure :
  | N = N_up - N_down :    1.00
  | S                 :    0.50
  | J                 :    2.00

  Highest occupied state (VBM) at    -11.09145807 eV
  | Occupation number:      1.00000000
  | Spin channel:        2

  Lowest unoccupied state (CBM) at    -4.81520809 eV
  | Occupation number:      0.50000000
  | Spin channel:        1

  Overall HOMO-LUMO gap:      6.27624999 eV.
  This system has fractional occupation numbers. Thus, it is a degenerate system
  within the approximate finite broadening function (occupation_type)
  applied to determine the occupation numbers.
  This may not be harmful. However, for some systems (free atoms), a different, non-degenerate
  ground state might exist by using a smaller broadening (see keyword occupation_type).

  Total energy components:
  | Sum of eigenvalues            :         -72.24292969 Ha       -1965.83013727 eV
  | XC energy correction          :         -15.16645085 Ha        -412.70012569 eV
  | XC potential correction       :          19.48800769 Ha         530.29567043 eV
  | Free-atom electrostatic energy:         -61.20765449 Ha       -1665.54502063 eV
  | Hartree energy correction     :          -0.68263673 Ha         -18.57549050 eV
  | Entropy correction            :          -0.00155502 Ha          -0.04231422 eV
  | ---------------------------
  | Total energy                  :        -129.81166407 Ha       -3532.35510366 eV
  | Total energy, T -> 0          :        -129.81321909 Ha       -3532.39741788 eV  <-- do not rely on this value for anything but (periodic) metals
  | Electronic free energy        :        -129.81477411 Ha       -3532.43973209 eV

  Derived energy quantities:
  | Kinetic energy                :         129.30184496 Ha        3518.48221989 eV
  | Electrostatic energy          :        -243.94705818 Ha       -6638.13719786 eV
  | Energy correction for multipole
  | error in Hartree potential    :           0.00514482 Ha           0.13999766 eV
  | Sum of eigenvalues per atom                           :        -982.91506863 eV
  | Total energy (T->0) per atom                          :       -1766.19870894 eV  <-- do not rely on this value for anything but (periodic) metals
  | Electronic free energy per atom                       :       -1766.21986605 eV

  Self-consistency convergence accuracy:
  | Change of charge/spin density :  0.1330E-02  0.2327E-02
  | Change of sum of eigenvalues  :  0.1116E+00 eV
  | Change of total energy        : -0.5214E-04 eV

  End self-consistency iteration #     6       :  max(cpu_time)    wall_clock(cpu1)
  | Time for this iteration                    :        0.025 s           0.025 s
  | Charge density update                      :        0.007 s           0.006 s
  | Density mixing                             :        0.002 s           0.002 s
  | Hartree multipole update                   :        0.001 s           0.001 s
  | Hartree multipole summation                :        0.004 s           0.004 s
  | Integration                                :        0.010 s           0.010 s
  | Solution of K.-S. eqns.                    :        0.001 s           0.001 s
  | Total energy evaluation                    :        0.000 s           0.001 s

  Partial memory accounting:
  | Current value for overall tracked memory usage:
  |   Minimum:        0.017 MB (on task 0)
  |   Maximum:        0.017 MB (on task 0)
  |   Average:        0.017 MB
  | Peak value for overall tracked memory usage:
  |   Minimum:        0.177 MB (on task 0 after allocating wave)
  |   Maximum:        0.177 MB (on task 0 after allocating wave)
  |   Average:        0.177 MB
  | Largest tracked array allocation so far:
  |   Minimum:        0.092 MB (gradient_basis_wave on task 1)
  |   Maximum:        0.107 MB (all_coords on task 4)
  |   Average:        0.096 MB
  Note:  These values currently only include a subset of arrays which are explicitly tracked.
  The "true" memory usage will be greater.
------------------------------------------------------------

------------------------------------------------------------
          Begin self-consistency iteration #    7

  Date     :  20190817, Time     :  154523.629
------------------------------------------------------------
  Evaluating new KS density.
  Integration grid: deviation in total charge (<rho> - N_e) =  -7.638334E-14
  | <rho_up-rho_dn> = N_up-N_dn =      1.0000; <|rho_up-rho_dn|> =      1.0139
  Pulay mixing of updated and previous charge densities.
  Renormalizing the density to the exact electron count on the 3D integration grid.
  | Formal number of electrons (from input files) :      15.0000000000
  | Integrated number of electrons on 3D grid     :      15.0000000000
  | Charge integration error                      :      -0.0000000000
  | Normalization factor for density and gradient :       1.0000000000

  Evaluating partitioned Hartree potential by multipole expansion.
  | Original multipole sum: apparent total charge =   0.108445E-13
  | Sum of charges compensated after spline to logarithmic grids =   0.444680E-06
  | Analytical far-field extrapolation by fixed multipoles:
  | Hartree multipole sum: apparent total charge =   0.109429E-13
  Summing up the Hartree potential.
  Time summed over all CPUs for potential: real work        0.030 s, elapsed        0.031 s
  | RMS charge density error from multipole expansion :   0.616845E-02

  Integrating Hamiltonian matrix: batch-based integration.
  Time summed over all CPUs for integration: real work        0.076 s, elapsed        0.079 s

  Updating Kohn-Sham eigenvalues and eigenvectors using ELSI and the (modified) LAPACK eigensolver.
  Starting LAPACK eigensolver
  Finished Cholesky decomposition
  | Time :     0.000 s
  Finished transformation to standard eigenproblem
  | Time :     0.000 s
  Finished solving standard eigenproblem
  | Time :     0.001 s
  Finished back-transformation of eigenvectors
  | Time :     0.000 s

  Obtaining occupation numbers and chemical potential using ELSI.
  | Chemical potential (Fermi level):    -4.81626213 eV
  Current spin moment of the entire structure :
  | N = N_up - N_down :    1.00
  | S                 :    0.50
  | J                 :    2.00

  Highest occupied state (VBM) at     -4.81626213 eV
  | Occupation number:      0.50000000
  | Spin channel:        1

  Lowest unoccupied state (CBM) at    -4.81626213 eV
  | Occupation number:      0.50000000
  | Spin channel:        1

  Overall HOMO-LUMO gap:      0.00000000 eV.
  This system has fractional occupation numbers. Thus, it is a degenerate system
  within the approximate finite broadening function (occupation_type)
  applied to determine the occupation numbers.
  This may not be harmful. However, for some systems (free atoms), a different, non-degenerate
[...]
------------------------------------------------------------

------------------------------------------------------------
          Begin self-consistency iteration #    8

  Date     :  20190817, Time     :  154525.387
------------------------------------------------------------
  Evaluating new KS density and force components.
  Integration grid: deviation in total charge (<rho> - N_e) =  -1.776357E-14
  | <rho_up-rho_dn> = N_up-N_dn =      1.0000; <|rho_up-rho_dn|> =      1.0129
  Pulay mixing of updated and previous charge densities.
  Renormalizing the density to the exact electron count on the 3D integration grid.
  | Formal number of electrons (from input files) :      15.0000000000
  | Integrated number of electrons on 3D grid     :      15.0000000000
  | Charge integration error                      :      -0.0000000000
  | Normalization factor for density and gradient :       1.0000000000

  Evaluating partitioned Hartree potential by multipole expansion.
  | Original multipole sum: apparent total charge =  -0.188326E-14
  | Sum of charges compensated after spline to logarithmic grids =   0.455894E-06
  | Analytical far-field extrapolation by fixed multipoles:
  | Hartree multipole sum: apparent total charge =  -0.186943E-14
  Summing up the Hartree potential.
  Time summed over all CPUs for potential: real work        0.077 s, elapsed        0.081 s
  | RMS charge density error from multipole expansion :   0.680619E-02

  Integrating Hamiltonian matrix: batch-based integration.
  Time summed over all CPUs for integration: real work        0.076 s, elapsed        0.078 s

  Updating Kohn-Sham eigenvalues and eigenvectors using ELSI and the (modified) LAPACK eigensolver.
  Starting LAPACK eigensolver
  Finished Cholesky decomposition
  | Time :     0.000 s
  Finished transformation to standard eigenproblem
  | Time :     0.000 s
  Finished solving standard eigenproblem
  | Time :     0.000 s
  Finished back-transformation of eigenvectors
  | Time :     0.000 s

  Obtaining occupation numbers and chemical potential using ELSI.
  | Chemical potential (Fermi level):    -4.48845951 eV
  Current spin moment of the entire structure :
  | N = N_up - N_down :    1.00
  | S                 :    0.50
  | J                 :    2.00

  Highest occupied state (VBM) at     -4.48845951 eV
  | Occupation number:      0.50000000
  | Spin channel:        1

  Lowest unoccupied state (CBM) at    -3.28930688 eV
  | Occupation number:      0.00000000
  | Spin channel:        2

  Overall HOMO-LUMO gap:      1.19915263 eV.
  This system has fractional occupation numbers. Thus, it is a degenerate system
  within the approximate finite broadening function (occupation_type)
  applied to determine the occupation numbers.
  This may not be harmful. However, for some systems (free atoms), a different, non-degenerate
  ground state might exist by using a smaller broadening (see keyword occupation_type).

  Total energy components:
  | Sum of eigenvalues            :         -72.30116145 Ha       -1967.41470391 eV
  | XC energy correction          :         -15.19773266 Ha        -413.55134707 eV
  | XC potential correction       :          19.52976929 Ha         531.43206144 eV
  | Free-atom electrostatic energy:         -61.05559023 Ha       -1661.40714174 eV
  | Hartree energy correction     :          -0.78896756 Ha         -21.46889968 eV
  | Entropy correction            :          -0.00155502 Ha          -0.04231422 eV
  | ---------------------------
  | Total energy                  :        -129.81368261 Ha       -3532.41003096 eV
  | Total energy, T -> 0          :        -129.81523763 Ha       -3532.45234518 eV  <-- do not rely on this value for anything but (periodic) metals
  | Electronic free energy        :        -129.81679265 Ha       -3532.49465940 eV

  Derived energy quantities:
  | Kinetic energy                :         129.41350645 Ha        3521.52068360 eV
  | Electrostatic energy          :        -244.02945640 Ha       -6640.37936749 eV
  | Energy correction for multipole
  | error in Hartree potential    :           0.00602599 Ha           0.16397553 eV
  | Sum of eigenvalues per atom                           :        -983.70735196 eV
  | Total energy (T->0) per atom                          :       -1766.22617259 eV  <-- do not rely on this value for anything but (periodic) metals
  | Electronic free energy per atom                       :       -1766.24732970 eV

  atomic forces [eV/Ang]:
  -----------------------
  atom #    1
   Hellmann-Feynman              : -0.648182E-14  0.142299E-12 -0.162944E+02
   Ionic forces                  :  0.000000E+00  0.000000E+00  0.000000E+00
   Multipole                     :  0.148941E-13  0.493962E-14 -0.110239E+00
   Pulay + GGA                   : -0.699352E-13 -0.107044E-12  0.164049E+02
   ----------------------------------------------------------------
   Total forces(   1)            : -0.615229E-13  0.401951E-13  0.297725E-03
  atom #    2
   Hellmann-Feynman              : -0.230152E-12 -0.147826E-12  0.159935E+02
   Ionic forces                  :  0.000000E+00  0.000000E+00  0.000000E+00
   Multipole                     :  0.670556E-13  0.163102E-13  0.507997E+00
   Pulay + GGA                   : -0.382503E-12 -0.292586E-13 -0.165018E+02
   ----------------------------------------------------------------
   Total forces(   2)            : -0.545599E-12 -0.160774E-12 -0.312251E-03


  Self-consistency convergence accuracy:
  | Change of charge/spin density :  0.4626E-07  0.1159E-06
  | Change of sum of eigenvalues  :  0.2472E-05 eV
  | Change of total energy        : -0.1761E-08 eV
  | Change of forces              :  0.1645E+02 eV/A

  Writing Kohn-Sham eigenvalues.

  Spin-up eigenvalues:

  State    Occupation    Eigenvalue [Ha]    Eigenvalue [eV]
      1       1.00000         -18.887490         -513.95475
      2       1.00000         -14.120269         -384.23206
      3       1.00000          -1.147591          -31.22753
      4       1.00000          -0.622717          -16.94498
      5       1.00000          -0.468302          -12.74316
      6       1.00000          -0.468302          -12.74316
      7       1.00000          -0.429564          -11.68903
      8       0.50000          -0.164948           -4.48846
      9       0.50000          -0.164948           -4.48846
     10       0.00000           0.119309            3.24656
     11       0.00000           0.245451            6.67906
     12       0.00000           0.245451            6.67906
     13       0.00000           0.357571            9.72999

  Spin-down eigenvalues:

  State    Occupation    Eigenvalue [Ha]    Eigenvalue [eV]
      1       1.00000         -18.878774         -513.71757
      2       1.00000         -14.105312         -383.82506
      3       1.00000          -1.130107          -30.75179
      4       1.00000          -0.593646          -16.15394
      5       1.00000          -0.438233          -11.92492
      6       1.00000          -0.438233          -11.92492
      7       1.00000          -0.407674          -11.09337
      8       0.00000          -0.120880           -3.28931
      9       0.00000          -0.120880           -3.28931
     10       0.00000           0.129103            3.51307
     11       0.00000           0.261532            7.11666
     12       0.00000           0.261532            7.11666
     13       0.00000           0.365490            9.94548

  Current spin moment of the entire structure :
  | N = N_up - N_down :    1.00
  | S                 :    0.50
  | J                 :    2.00

  Highest occupied state (VBM) at     -4.48845951 eV
  | Occupation number:      0.50000000
  | Spin channel:        1

  Lowest unoccupied state (CBM) at    -3.28930688 eV
  | Occupation number:      0.00000000
  | Spin channel:        2

  Overall HOMO-LUMO gap:      1.19915263 eV.
  This system has fractional occupation numbers. Thus, it is a degenerate system
  within the approximate finite broadening function (occupation_type)
  applied to determine the occupation numbers.
  This may not be harmful. However, for some systems (free atoms), a different, non-degenerate
  ground state might exist by using a smaller broadening (see keyword occupation_type).

  Self-consistency cycle converged.

  End self-consistency iteration #     8       :  max(cpu_time)    wall_clock(cpu1)
  | Time for this iteration                    :        0.050 s           0.050 s
  | Charge density & force component update    :        0.024 s           0.024 s
  | Density mixing                             :        0.002 s           0.002 s
  | Hartree multipole update                   :        0.001 s           0.001 s
  | Hartree multipole summation                :        0.010 s           0.011 s
  | Integration                                :        0.010 s           0.010 s
  | Solution of K.-S. eqns.                    :        0.001 s           0.001 s
  | Total energy evaluation                    :        0.000 s           0.000 s

  Partial memory accounting:
  | Current value for overall tracked memory usage:
  |   Minimum:        0.023 MB (on task 0)
  |   Maximum:        0.023 MB (on task 0)
  |   Average:        0.023 MB
  | Peak value for overall tracked memory usage:
  |   Minimum:        0.402 MB (on task 0 after allocating hessian_basis_wave)
  |   Maximum:        0.402 MB (on task 0 after allocating hessian_basis_wave)
  |   Average:        0.402 MB
  | Largest tracked array allocation so far:
  |   Minimum:        0.190 MB (hessian_basis_wave on task 0)
  |   Maximum:        0.190 MB (hessian_basis_wave on task 0)
  |   Average:        0.190 MB
  Note:  These values currently only include a subset of arrays which are explicitly tracked.
  The "true" memory usage will be greater.
------------------------------------------------------------
  Removing unitary transformations (pure translations, rotations) from forces on atoms.
  Atomic forces before filtering:
  | Net force on center of mass :  -0.607122E-12 -0.120579E-12 -0.145261E-04 eV/A
  | Net torque on center of mass:   0.117100E-12 -0.282059E-12 -0.770836E-48 eV
  Atomic forces after filtering:
  | Net force on center of mass :  -0.121695E-27 -0.202824E-28  0.000000E+00 eV/A
  | Net torque on center of mass:  -0.236361E-28  0.236361E-28  0.645949E-64 eV

  Energy and forces in a compact form:
  | Total energy uncorrected      :         -0.353241003096352E+04 eV
  | Total energy corrected        :         -0.353245234518229E+04 eV  <-- do not rely on this value for anything but (periodic) metals
  | Electronic free energy        :         -0.353249465940105E+04 eV
  Total atomic forces (unitary forces cleaned) [eV/Ang]:
  |    1         -0.811297123282653E-28         -0.304236421230995E-28          0.304988305037274E-03
  |    2         -0.405648561641326E-28          0.101412140410332E-28         -0.304988305037274E-03

  ------------------------------------ 
  Start decomposition of the XC Energy 
  ------------------------------------ 
  X and C from original XC functional choice 
  Hartree-Fock Energy :          0.000000000 Ha              0.000000000 eV
  X Energy            :        -14.706383421 Ha           -400.181053860 eV
  C Energy            :         -0.491349244 Ha            -13.370293210 eV
  Total XC Energy     :        -15.197732665 Ha           -413.551347070 eV
  ------------------------------------ 
  LDA X and C from self-consistent density 
  X Energy LDA        :        -13.327358813 Ha           -362.655885020 eV
  C Energy LDA        :         -1.023616951 Ha            -27.854034431 eV
  ------------------------------------ 
  End decomposition of the XC Energy 
  ------------------------------------ 

------------------------------------------------------------
  Relaxation / MD: End force evaluation.       :  max(cpu_time)    wall_clock(cpu1)
  | Time for this force evaluation             :        0.245 s           0.245 s

------------------------------------------------------------
  Geometry optimization: Attempting to predict improved coordinates.

  Removing unitary transformations (pure translations, rotations) from forces on atoms.
  Atomic forces before filtering:
  | Net force on center of mass :  -0.121695E-27 -0.202824E-28  0.000000E+00 eV/A
  | Net torque on center of mass:  -0.236361E-28  0.236361E-28  0.645949E-64 eV
  Atomic forces after filtering:
  | Net force on center of mass :  -0.900721E-44 -0.450360E-44  0.000000E+00 eV/A
  | Net torque on center of mass:   0.575894E-44  0.524827E-44  0.143430E-79 eV
  Net remaining forces (excluding translations, rotations) in present geometry:
  || Forces on atoms   || =   0.304988E-03 eV/A.
  Maximum force component is  0.304988E-03 eV/A.
  Present geometry is converged.

------------------------------------------------------------
  Final atomic structure:
                         x [A]             y [A]             z [A]
            atom         0.00000000        0.00000000        0.01732583  N
            atom        -0.00000000        0.00000000        1.18267417  O
------------------------------------------------------------
  |------------------------------------------------------
  | Final ELSI Output
  |------------------------------------------------------
  |
  | Physical Properties
  |   Number of electrons       :        0.15000000E+02
  |   Number of states          :                    13
  |
  | Matrix Properties
  |   Matrix format             :           BLACS_DENSE
  |   Number of basis functions :                    28
  |
  | Computational Details
  |   Parallel mode             :           SINGLE_PROC
  |   Solver requested          :                LAPACK
  |   Number of ELSI calls      :                   132
  |
  |------------------------------------------------------
  | ELSI Project (c)  elsi-interchange.org
  |------------------------------------------------------

------------------------------------------------------------------------------
  Final output of selected total energy values:

  The following output summarizes some interesting total energy values
  at the end of a run (AFTER all relaxation, molecular dynamics, etc.).

  | Total energy of the DFT / Hartree-Fock s.c.f. calculation      :          -3532.410030964 eV
  | Final zero-broadening corrected energy (caution - metals only) :          -3532.452345182 eV
  | For reference only, the value of 1 Hartree used in FHI-aims is :             27.211384500 eV

  Before relying on these values, please be sure to understand exactly which
  total energy value is referred to by a given number. Different objects may
  all carry the same name 'total energy'. Definitions:

  Total energy of the DFT / Hartree-Fock s.c.f. calculation:
  | Note that this energy does not include ANY quantities calculated after the
  | s.c.f. cycle, in particular not ANY RPA, MP2, etc. many-body perturbation terms.

  Final zero-broadening corrected energy:
  | For metallic systems only, a broadening of the occupation numbers at the Fermi
  | level can be extrapolated back to zero broadening by an electron-gas inspired
  | formula. For all systems that are not real metals, this value can be
  | meaningless and should be avoided.

------------------------------------------------------------------------------
  Methods described in the following list of references were used in this FHI-aims run.
  If you publish the results, please make sure to cite these reference if they apply.
  FHI-aims is an academic code, and for our developers (often, Ph.D. students
  and postdocs), scientific credit in the community is essential.
  Thank you for helping us!

  For any use of FHI-aims, please cite:

    Volker Blum, Ralf Gehrke, Felix Hanke, Paula Havu, Ville Havu,
    Xinguo Ren, Karsten Reuter, and Matthias Scheffler
    'Ab initio molecular simulations with numeric atom-centered orbitals'
    Computer Physics Communications 180, 2175-2196 (2009)
    http://dx.doi.org/10.1016/j.cpc.2009.06.022


  The ELSI infrastructure was used in your run to solve the Kohn-Sham electronic structure.
  Please check out http://elsi-interchange.org to learn more.
  If scalability is important for your project, please acknowledge ELSI by citing:

    V. W-z. Yu, F. Corsetti, A. Garcia, W. P. Huhn, M. Jacquelin, W. Jia,
    B. Lange, L. Lin, J. Lu, W. Mi, A. Seifitokaldani, A. Vazquez-Mayagoitia,
    C. Yang, H. Yang, and V. Blum
    'ELSI: A unified software interface for Kohn-Sham electronic structure solvers'
    Computer Physics Communications 222, 267-285 (2018).
    http://dx.doi.org/10.1016/j.cpc.2017.09.007


  For the real-space grid partitioning and parallelization used in this calculation, please cite:

    Ville Havu, Volker Blum, Paula Havu, and Matthias Scheffler,
    'Efficient O(N) integration for all-electron electronic structure calculation'
    'using numerically tabulated basis functions'
    Journal of Computational Physics 228, 8367-8379 (2009).
    http://dx.doi.org/10.1016/j.jcp.2009.08.008

  Of course, there are many other important community references, e.g., those cited in the
  above references. Our list is limited to references that describe implementations in the
  FHI-aims code. The reason is purely practical (length of this list) - please credit others as well.

------------------------------------------------------------
          Leaving FHI-aims.
          Date     :  20190817, Time     :  154525.442

          Computational steps:
          | Number of self-consistency cycles          :           65
          | Number of SCF (re)initializations          :            6
          | Number of relaxation steps                 :            5

          Detailed time accounting                     :  max(cpu_time)    wall_clock(cpu1)
          | Total time                                 :        2.299 s           2.312 s
          | Preparation time                           :        0.254 s           0.254 s
          | Boundary condition initalization           :        0.000 s           0.000 s
          | Grid partitioning                          :        0.048 s           0.049 s
          | Preloading free-atom quantities on grid    :        0.022 s           0.021 s
          | Free-atom superposition energy             :        0.021 s           0.021 s
          | Total time for integrations                :        0.685 s           0.688 s
          | Total time for solution of K.-S. equations :        0.070 s           0.070 s
          | Total time for EV reorthonormalization     :        0.000 s           0.000 s
          | Total time for density & force components  :        0.547 s           0.541 s
          | Total time for mixing                      :        0.111 s           0.112 s
          | Total time for Hartree multipole update    :        0.076 s           0.073 s
          | Total time for Hartree multipole sum       :        0.312 s           0.312 s
          | Total time for total energy evaluation     :        0.009 s           0.007 s

          Partial memory accounting:
          | Residual value for overall tracked memory usage across tasks:     0.000000 MB (should be 0.000000 MB)
          | Peak values for overall tracked memory usage:
          |   Minimum:        0.402 MB (on task 0 after allocating hessian_basis_wave)
          |   Maximum:        0.402 MB (on task 0 after allocating hessian_basis_wave)
          |   Average:        0.402 MB
          | Largest tracked array allocation:
          |   Minimum:        0.190 MB (hessian_basis_wave on task 0)
          |   Maximum:        0.190 MB (hessian_basis_wave on task 0)
          |   Average:        0.190 MB
          Note:  These values currently only include a subset of arrays which are explicitly tracked.
          The "true" memory usage will be greater.

          Have a nice day.
------------------------------------------------------------
