  MPI-parallelism will be employed.
------------------------------------------------------------
          Invoking FHI-aims ...
          Version 180101-
          Git rev. (modified): fa29f3a Merge branch master of fhiaims.rzberlin.mp[...]
          Compiled on 2018/01/19 at 14:47:46 on host theobook132.

          When using FHI-aims, please cite the following reference:

          Volker Blum, Ralf Gehrke, Felix Hanke, Paula Havu,
          Ville Havu, Xinguo Ren, Karsten Reuter, and Matthias Scheffler,
          'Ab Initio Molecular Simulations with Numeric Atom-Centered Orbitals',
          Computer Physics Communications 180, 2175-2196 (2009)

          For any questions about FHI-aims, please visit the aimsclub website
          with its forums and wiki. Contributions to both the forums and the
          wiki are warmly encouraged - they are for you, and everyone is welcome there.

------------------------------------------------------------



  Date     :  20180214, Time     :  152434.965
  Time zero on CPU 1             :   0.480000000000000E-01  s.
  Internal wall clock time zero  :           287853874.965  s.

  FHI-aims created a unique identifier for this run for later identification
  aims_uuid : 49DAA2E8-8E0E-45C4-AB68-A3ECCC6572A4

  Using        8 parallel tasks.
  Task        0 on host theobook132 reporting.
  Task        1 on host theobook132 reporting.
  Task        2 on host theobook132 reporting.
  Task        3 on host theobook132 reporting.
  Task        4 on host theobook132 reporting.
  Task        5 on host theobook132 reporting.
  Task        6 on host theobook132 reporting.
  Task        7 on host theobook132 reporting.

  Performing system and environment tests:
  *** Environment variable OMP_NUM_THREADS is not set
  *** For performance reasons you might want to set it to 1
  | Stacksize not measured: no C compiler
  | Checking for scalapack...
  | No scalapack compiled in.

  Obtaining array dimensions for all initial allocations:
  
  -----------------------------------------------------------------------
  Parsing control.in (first pass over file, find array dimensions only).
  The contents of control.in will be repeated verbatim below
  unless switched off by setting 'verbatim_writeout .false.' .
  in the first line of control.in .
  -----------------------------------------------------------------------
  
  ################################################################################
  #
  #		Control.in generated by mkcontrol
  #
  ################################################################################
  xc			pbe
  vdw_correction_hirshfeld
  charge			0.0
  relativistic		atomic_zora scalar
  
  sc_accuracy_rho		1E-5
  sc_accuracy_eev		1E-3
  sc_accuracy_etot	1E-6
  sc_iter_limit		1000	
  
  compute_forces .true.
  final_forces_cleaned .true.
  
  
  ################################################################################
  #
  #  FHI-aims code project
  # Volker Blum, Fritz Haber Institute Berlin, 2009
  #
  #  Suggested "tight" defaults for H atom (to be pasted into control.in file)
  #
  ################################################################################
    species        H
  #     global species definitions
      nucleus             1
      mass                1.00794
  #
      l_hartree           6
  #
      cut_pot             4.0  2.0  1.0
      basis_dep_cutoff    1e-4
  #
      radial_base         24 7.0
      radial_multiplier   2
      angular_grids       specified
        division   0.1930   50
        division   0.3175  110
        division   0.4293  194
        division   0.5066  302
        division   0.5626  434
  #      division   0.5922  590
  #      division   0.6227  974
  #      division   0.6868 1202
  #      outer_grid  770
        outer_grid  434
  ################################################################################
  #
  #  Definition of "minimal" basis
  #
  ################################################################################
  #     valence basis states
      valence      1  s   1.
  #     ion occupancy
      ion_occ      1  s   0.5
  ################################################################################
  #
  #  Suggested additional basis functions. For production calculations,
  #  uncomment them one after another (the most important basis functions are
  #  listed first).
  #
  #  Basis constructed for dimers: 0.5 A, 0.7 A, 1.0 A, 1.5 A, 2.5 A
  #
  ################################################################################
  #  "First tier" - improvements: -1014.90 meV to -62.69 meV
       hydro 2 s 2.1
       hydro 2 p 3.5
  #  "Second tier" - improvements: -12.89 meV to -1.83 meV
       hydro 1 s 0.85
       hydro 2 p 3.7
       hydro 2 s 1.2
       hydro 3 d 7
  #  "Third tier" - improvements: -0.25 meV to -0.12 meV
  #     hydro 4 f 11.2
  #     hydro 3 p 4.8
  #     hydro 4 d 9
  #     hydro 3 s 3.2
  
  
  
  ################################################################################
  #
  #  FHI-aims code project
  # Volker Blum, Fritz Haber Institute Berlin, 2009
  #
  #  Suggested "tight" defaults for N atom (to be pasted into control.in file)
  #
  ################################################################################
    species        N
  #     global species definitions
      nucleus             7
      mass                14.0067
  #
      l_hartree           6
  #
      cut_pot             4.0  2.0  1.0
      basis_dep_cutoff    1e-4
  #
      radial_base         35 7.0
      radial_multiplier   2
      angular_grids       specified
        division   0.1841   50
        division   0.3514  110
        division   0.5126  194
        division   0.6292  302
        division   0.6939  434
  #      division   0.7396  590
  #      division   0.7632  770
  #      division   0.8122  974
  #      division   1.1604 1202
  #      outer_grid  974
        outer_grid  434
  ################################################################################
  #
  #  Definition of "minimal" basis
  #
  ################################################################################
  #     valence basis states
      valence      2  s   2.
      valence      2  p   3.
  #     ion occupancy
      ion_occ      2  s   1.
      ion_occ      2  p   2.
  ################################################################################
  #
  #  Suggested additional basis functions. For production calculations,
  #  uncomment them one after another (the most important basis functions are
  #  listed first).
  #
  #  Constructed for dimers: 1.0 A, 1.1 A, 1.5 A, 2.0 A, 3.0 A
  #
  ################################################################################
  #  "First tier" - improvements: -1193.42 meV to -220.60 meV
       hydro 2 p 1.8
       hydro 3 d 6.8
       hydro 3 s 5.8
  #  "Second tier" - improvements: -80.21 meV to -6.86 meV
       hydro 4 f 10.8
       hydro 3 p 5.8
       hydro 1 s 0.8
       hydro 5 g 16
       hydro 3 d 4.9
  #  "Third tier" - improvements: -4.29 meV to -0.53 meV
  #     hydro 3 s 16
  #     ionic 2 p auto
  #     hydro 3 d 6.6
  #     hydro 4 f 11.6
  #  "Fourth tier" - improvements: -0.75 meV to -0.25 meV
  #     hydro 2 p 4.5
  #     hydro 2 s 2.4
  #     hydro 5 g 14.4
  #     hydro 4 d 14.4
  #     hydro 4 f 16.8
  # Further basis functions - -0.21 meV and below
  #     hydro 3 p 14.8
  #     hydro 3 s 4.4
  #     hydro 3 d 19.6
  #     hydro 5 g 12.8
  
  -----------------------------------------------------------------------
  Completed first pass over input file control.in .
  -----------------------------------------------------------------------
  
  
  -----------------------------------------------------------------------
  Parsing geometry.in (first pass over file, find array dimensions only).
  The contents of geometry.in will be repeated verbatim below
  unless switched off by setting 'verbatim_writeout .false.' .
  in the first line of geometry.in .
  -----------------------------------------------------------------------
  
  #=======================================#
  # iterations/iteration0064/aims-chain-node-0.55556/geometry.in
  #=======================================#
  atom -0.0000000000000496 0.0000045976836729 0.0964475641856213 N
  atom 0.8630168069689723 -0.4982559845111658 -0.0321370041873404 H
  atom -0.8630168069690221 -0.4982559845113166 -0.0321370041873393 H
  atom 0.0000000000001017 0.9965298713388049 -0.0321368607490470 H
  
  -----------------------------------------------------------------------
  Completed first pass over input file geometry.in .
  -----------------------------------------------------------------------
  

  Basic array size parameters:
  | Number of species                 :        2
  | Number of atoms                   :        4
  | Max. basis fn. angular momentum   :        4
  | Max. atomic/ionic basis occupied n:        2
  | Max. number of basis fn. types    :        2
  | Max. radial fns per species/type  :        8
  | Max. logarithmic grid size        :     1290
  | Max. radial integration grid size :       71
  | Max. angular integration grid size:      434
  | Max. angular grid division number :        8
  | Radial grid for Hartree potential :     1290
  | Number of spin channels           :        1

------------------------------------------------------------
          Reading file control.in.
------------------------------------------------------------
  XC: Using PBE gradient-corrected functionals.
  Charge =   0.000000E+00: Neutral system requested explicitly.
  Scalar relativistic treatment of kinetic energy: on-site free-atom approximation to ZORA.
  Convergence accuracy of self-consistent charge density:  0.1000E-04
  Convergence accuracy of sum of eigenvalues:  0.1000E-02
  Convergence accuracy of total energy:  0.1000E-05
  Maximum number of s.-c. iterations  :  1000
  Forces will be computed.
  Cleaning forces before final output.
 
  Reading configuration options for species H                   .
  | Found nuclear charge :   1.0000
  | Found atomic mass :    1.00794000000000      amu
  | Found l_max for Hartree potential  :   6
  | Found cutoff potl. onset [A], width [A], scale factor :    4.00000    2.00000    1.00000
  | Threshold for basis-dependent cutoff potential is   0.100000E-03
  | Found data for basic radial integration grid :    24 points, outermost radius =    7.000 A
  | Found multiplier for basic radial grid :   2
  | Found angular grid specification: user-specified.
  | Specified grid contains     6 separate shells.
  | Check grid settings after all constraints further below.
  | Found free-atom valence shell :  1 s   1.000
  | No ionic wave fns used. Skipping ion_occ.
  | Found hydrogenic basis function :  2 s   2.100
  | Found hydrogenic basis function :  2 p   3.500
  | Found hydrogenic basis function :  1 s   0.850
  | Found hydrogenic basis function :  2 p   3.700
  | Found hydrogenic basis function :  2 s   1.200
  | Found hydrogenic basis function :  3 d   7.000
  Species H                   : Missing cutoff potential type.
  Defaulting to exp(1/x)/(1-x)^2 type cutoff potential.
  Species H : No 'logarithmic' tag. Using default grid for free atom:
  | Default logarithmic grid data [bohr] : 0.1000E-03 0.1000E+03 0.1012E+01
  Species H : On-site basis accuracy parameter (for Gram-Schmidt orthonormalisation) not specified.
  Using default value basis_acc =  0.1000000E-03.
  Species H                   : Using default innermost maximum threshold i_radial=  2 for radial functions.
  Species H                   : Default cutoff onset for free atom density etc. : 0.40000000E+01 AA.
  Species H                   : Basic radial grid will be enhanced according to radial_multiplier =   2, to contain    49 grid points.
 
  Reading configuration options for species N                   .
  | Found nuclear charge :   7.0000
  | Found atomic mass :    14.0067000000000      amu
  | Found l_max for Hartree potential  :   6
  | Found cutoff potl. onset [A], width [A], scale factor :    4.00000    2.00000    1.00000
  | Threshold for basis-dependent cutoff potential is   0.100000E-03
  | Found data for basic radial integration grid :    35 points, outermost radius =    7.000 A
  | Found multiplier for basic radial grid :   2
  | Found angular grid specification: user-specified.
  | Specified grid contains     6 separate shells.
  | Check grid settings after all constraints further below.
  | Found free-atom valence shell :  2 s   2.000
  | Found free-atom valence shell :  2 p   3.000
  | No ionic wave fns used. Skipping ion_occ.
  | No ionic wave fns used. Skipping ion_occ.
  | Found hydrogenic basis function :  2 p   1.800
  | Found hydrogenic basis function :  3 d   6.800
  | Found hydrogenic basis function :  3 s   5.800
  | Found hydrogenic basis function :  4 f  10.800
  | Found hydrogenic basis function :  3 p   5.800
  | Found hydrogenic basis function :  1 s   0.800
  | Found hydrogenic basis function :  5 g  16.000
  | Found hydrogenic basis function :  3 d   4.900
  Species N                   : Missing cutoff potential type.
  Defaulting to exp(1/x)/(1-x)^2 type cutoff potential.
  Species N : No 'logarithmic' tag. Using default grid for free atom:
  | Default logarithmic grid data [bohr] : 0.1000E-03 0.1000E+03 0.1012E+01
  Species N : On-site basis accuracy parameter (for Gram-Schmidt orthonormalisation) not specified.
  Using default value basis_acc =  0.1000000E-03.
  Species N                   : Using default innermost maximum threshold i_radial=  2 for radial functions.
  Species N                   : Default cutoff onset for free atom density etc. : 0.40000000E+01 AA.
  Species N                   : Basic radial grid will be enhanced according to radial_multiplier =   2, to contain    71 grid points.
 
  Finished reading input file 'control.in'. Consistency checks are next.
 
  MPI_IN_PLACE appears to work with this MPI implementation.
  | Keeping use_mpi_in_place .true. (see manual).
  Target number of points in a grid batch is not set. Defaulting to  100
  Method for grid partitioning is not set. Defaulting to parallel hash+maxmin partitioning.
  Batch size limit is not set. Defaulting to    200
  By default, will store active basis functions for each batch.
  If in need of memory, prune_basis_once .false. can be used to disable this option.
  communication_type for Hartree potential was not specified.
  Defaulting to calc_hartree .
  Defaulting to Pulay charge density mixer.
  Pulay mixer: Number of relevant iterations not set.
  Defaulting to    8 iterations.
  Pulay mixer: Number of initial linear mixing iterations not set.
  Defaulting to    0 iterations.
  Work space size for distributed Hartree potential not set.
  Defaulting to   0.200000E+03 MB.
  Mixing parameter for charge density mixing has not been set.
  Using default: charge_mix_param =     0.0500.
  The mixing parameter will be adjusted in iteration number     2 of the first full s.c.f. cycle only.
  Algorithm-dependent basis array size parameters:
  | n_max_pulay                         :        8
  Presetting        40 iterations before the initial mixing cycle
  is restarted anyway using the sc_init_iter criterion / keyword.
  Presetting a factor      1.000 between actual scf density residual
  and density convergence criterion sc_accuracy_rho below which sc_init_iter
  takes no effect.
  Geometry relaxation not requested: no relaxation will be performed.
  Force calculation: scf convergence accuracy of forces not set.
  Defaulting to 'sc_accuracy_forces not_checked'.
  Handling of forces: Unphysical translation and rotation will be removed from forces.
  No accuracy limit for integral partition fn. given. Defaulting to  0.1000E-14.
  No threshold value for u(r) in integrations given. Defaulting to  0.1000E-05.
  No occupation type (smearing scheme) given. Defaulting to Gaussian broadening, width =  0.1000E-01 eV.
  The width will be adjusted in iteration number     2 of the first full s.c.f. cycle only.
  S.C.F. convergence parameters will be adjusted in iteration number     2 of the first full s.c.f. cycle only.
  No accuracy for occupation numbers given. Defaulting to  0.1000E-12.
  No threshold value for occupation numbers given. Defaulting to  0.0000E+00.
  No accuracy for fermi level given. Defaulting to  0.1000E-19.
  Maximum # of iterations to find E_F not set. Defaulting to  200.
  Preferred method for the eigenvalue solver ('KS_method') not specified in 'control.in'.
  Calling BLACS routine to test compilation state
  The best choice would be 'elsi', but your version of FHI-aims is compiled without ScaLAPACK support.
  Defaulting to 'lapack_fast' instead (serial solution, time will not improve with more CPUs).
  Will not use alltoall communication since running on < 1024 CPUs.
  Threshold for basis singularities not set.
  Default threshold for basis singularities:  0.1000E-04
  partition_type (choice of integration weights) for integrals was not specified.
  | Using a version of the partition function of Stratmann and coworkers ('stratmann_smoother').
  | At each grid point, the set of atoms used to build the partition table is smoothly restricted to
  | only those atoms whose free-atom density would be non-zero at that grid point.
  Partitioning for Hartree potential was not defined. Using partition_type for integrals.
  | Adjusted default value of keyword multip_moments_threshold to:       0.10000000E-11
  | This value may affect high angular momentum components of the Hartree potential in periodic systems.
  Spin handling was not defined in control.in. Defaulting to unpolarized case.
  No q(lm)/r^(l+1) cutoff set for long-range Hartree potential.
  | Using default value of  0.100000E-09 .
  | Verify using the multipole_threshold keyword.
  Defaulting to new monopole extrapolation.
  Density update method: automatic selection selected.
------------------------------------------------------------


------------------------------------------------------------
          Reading geometry description geometry.in.
------------------------------------------------------------
  Input structure read successfully.
  The structure contains        4 atoms,  and a total of         10.000 electrons.

  Input geometry:
  | No unit cell requested.
  | Atomic structure:
  |       Atom                x [A]            y [A]            z [A]
  |    1: Species N            -0.00000000        0.00000460        0.09644756
  |    2: Species H             0.86301681       -0.49825598       -0.03213700
  |    3: Species H            -0.86301681       -0.49825598       -0.03213700
  |    4: Species H             0.00000000        0.99652987       -0.03213686
  |

  | The smallest distance between any two atoms is         1.00478635 AA.
  |
  | The first atom of this pair is atom number                      1 .
  | The second atom of this pair is atom number                     2 .

  Number of empty states per atom not set in control.in - providing a guess from actual geometry.
  | Total number of empty states used during s.c.f. cycle:        8
  If you use a very high smearing, use empty_states (per atom!) in control.in to increase this value.

  Structure-dependent array size parameters: 
  | Maximum number of distinct radial functions  :       18
  | Maximum number of basis functions            :       84
  | Number of Kohn-Sham states (occupied + empty):       13
------------------------------------------------------------

------------------------------------------------------------
          Preparing all fixed parts of the calculation.
------------------------------------------------------------
  Determining machine precision:
    2.225073858507201E-308
  Setting up grids for atomic and cluster calculations.

  Creating wave function, potential, and density for free atoms.

  Species: H

  List of occupied orbitals and eigenvalues:
    n    l              occ      energy [Ha]    energy [eV]
    1    0           1.0000        -0.238386        -6.4868


  Species: N

  List of occupied orbitals and eigenvalues:
    n    l              occ      energy [Ha]    energy [eV]
    1    0           2.0000       -14.144983      -384.9046
    2    0           2.0000        -0.682735       -18.5782
    2    1           3.0000        -0.260361        -7.0848

  Creating fixed part of basis set: Ionic, confined, hydrogenic.
 
  H                    hydrogenic:
 
  List of hydrogenic basis orbitals: 
    n    l      effective z      eigenvalue [eV]  inner max. [A]     outer max. [A]     outer radius [A]   
    2    0         2.100000       -14.9965           0.193243           1.317208           5.373006
    2    1         3.500000       -41.6672           0.602369           0.602369           4.056063
    1    0         0.850000        -9.8292           0.624871           0.624871           5.373006
    2    1         3.700000       -46.5653           0.573622           0.573622           3.910002
    2    0         1.200000        -4.5995           0.334980           2.228188           5.505995
    3    2         7.000000       -74.0753           0.680699           0.680699           3.769201
 
 
  N                    hydrogenic:
 
  List of hydrogenic basis orbitals: 
    n    l      effective z      eigenvalue [eV]  inner max. [A]     outer max. [A]     outer radius [A]   
    2    1         1.800000       -11.0118           1.177451           1.177451           5.427479
    3    2         6.800000       -69.9029           0.704619           0.704619           3.854246
    3    0         5.800000       -50.8549           0.067388           1.191934           4.629968
    4    3        10.800000       -99.1854           0.786571           0.786571           3.761152
    3    1         5.800000       -50.8549           0.274880           1.094176           4.518138
    1    0         0.800000        -8.7059           0.662839           0.662839           5.361532
    5    4        16.000000      -139.3222           0.825990           0.825990           3.625711
    3    2         4.900000       -36.2967           0.968267           0.968267           4.862000
 

  Adding cutoff potential to free-atom effective potential.
  Creating atomic-like basis functions for current effective potential.

  Species H                   :

  List of atomic basis orbitals and eigenvalues:
    n    l      energy [Ha]    energy [eV]    outer radius [A]
    1    0        -0.238386        -6.4868       5.373006


  Species N                   :

  List of atomic basis orbitals and eigenvalues:
    n    l      energy [Ha]    energy [eV]    outer radius [A]
    1    0       -14.144983      -384.9046       1.637919
    2    0        -0.682735       -18.5782       5.168461
    2    1        -0.260361        -7.0848       5.361532

  Assembling full basis from fixed parts.
  | Species H :   atomic orbital   1 s accepted.
  | Species H :    hydro orbital   2 s accepted.
  | Species H :    hydro orbital   1 s accepted.
  | Species H :    hydro orbital   2 s accepted.
  | Species H :    hydro orbital   2 p accepted.
  | Species H :    hydro orbital   2 p accepted.
  | Species H :    hydro orbital   3 d accepted.
  | Species N :   atomic orbital   1 s accepted.
  | Species N :    hydro orbital   3 s accepted.
  | Species N :   atomic orbital   2 s accepted.
  | Species N :    hydro orbital   1 s accepted.
  | Species N :    hydro orbital   3 p accepted.
  | Species N :   atomic orbital   2 p accepted.
  | Species N :    hydro orbital   2 p accepted.
  | Species N :    hydro orbital   3 d accepted.
  | Species N :    hydro orbital   3 d accepted.
  | Species N :    hydro orbital   4 f accepted.
  | Species N :    hydro orbital   5 g accepted.
 
  Basis size parameters after reduction:
  | Total number of radial functions:       18
  | Total number of basis functions :       84
 
  Per-task memory consumption for arrays in subroutine allocate_ext:
  |           5.947464MB.
  Testing on-site integration grid accuracy.
  |  Species  Function  <phi|h_atom|phi> (log., in eV)  <phi|h_atom|phi> (rad., in eV)
           1        1                 -6.4870767962                 -6.4871688290
           1        2                 13.5032046589                 13.5028982997
           1        3                 32.8195184817                 32.8119941656
           1        4                 33.8513856511                 33.7670005767 ***
           1        5                 28.8544614965                 28.8544615203
           1        6                 59.6326952547                 59.6327656460
           1        7                 60.2719308513                 60.2719305949
           2        8               -384.9045837915               -384.9045810047
           2        9                 12.5603464973                 12.5603454944
           2       10                -15.7898975011                -15.7898975786
           2       11                 26.9245114620                 26.9252865209
           2       12                 18.5932197354                 18.5932205971
           2       13                  1.2241635029                  1.2241662160
           2       14                 13.4399987723                 13.4405112378
           2       15                 35.9434723763                 35.9434722968
           2       16                 39.9236994472                 39.9237117157
           2       17                 72.9994981058                 72.9994982098
           2       18                116.4255814536                116.4255814825
 * Note: Onsite integrals marked "***" above are less accurate than
 * onsite_accuracy_threshold =    0.03000 eV. Usually, this is harmless.
 * When in doubt, tighten the "radial" and/or "radial_multiplier" flags to check.

  Preparing densities etc. for the partition functions (integrals / Hartree potential).

  Preparations completed.
  max(cpu_time)          :      0.232 s.
  Wall clock time (cpu1) :      0.248 s.
------------------------------------------------------------

------------------------------------------------------------
          Begin self-consistency loop: Initialization.

          Date     :  20180214, Time     :  152435.223
------------------------------------------------------------

  Initializing index lists of integration centers etc. from given atomic structure:
  | Number of centers in hartree potential         :         4
  | Number of centers in hartree multipole         :         4
  | Number of centers in electron density summation:         4
  | Number of centers in basis integrals           :         4
  | Number of centers in integrals                 :         4
  | Number of centers in hamiltonian               :         4
  Partitioning the integration grid into batches with parallel hashing+maxmin method.
  | Number of batches:      790
  | Maximal batch size:     200
  | Minimal batch size:      49
  | Average batch size:      79.752
  | Standard deviation of batch sizes:      21.541

  Integration load balanced across     8 MPI tasks.
  Work distribution over tasks is as follows:
  Task     0 has       7887 integration points.
  Task     1 has       7889 integration points.
  Task     2 has       7846 integration points.
  Task     3 has       7902 integration points.
  Task     4 has       7918 integration points.
  Task     5 has       7847 integration points.
  Task     6 has       7850 integration points.
  Task     7 has       7865 integration points.
  Initializing partition tables, free-atom densities, potentials, etc. across the integration grid (initialize_grid_storage).
  | initialize_grid_storage: Actual outermost partition radius vs. multipole_radius_free
  | (-- VB: in principle, multipole_radius_free should be larger, hence this output)
  | Species        1: Confinement radius =              6.000000000000000 AA, multipole_radius_free =              6.071692442739658 AA.
  | Species        1: outer_partition_radius set to              6.071692442739658 AA .
  | Species        2: Confinement radius =              6.000000000000000 AA, multipole_radius_free =              6.058726835495003 AA.
  | Species        2: outer_partition_radius set to              6.058726835495003 AA .
  | Original list of interatomic distances with           4 x          4 entries is created.
  | Net number of integration points:    63004
  | of which are non-zero points    :    55041
  Renormalizing the initial density to the exact electron count on the 3D integration grid.
  | Initial density: Formal number of electrons (from input files) :      10.0000000000
  | Integrated number of electrons on 3D grid     :       9.9999981674
  | Charge integration error                      :      -0.0000018326
  | Normalization factor for density and gradient :       1.0000001833
  Obtaining max. number of non-zero basis functions in each batch (get_n_compute_maxes).
  | Maximal number of non-zero basis functions:       84 in task     0
  | Maximal number of non-zero basis functions:       84 in task     1
  | Maximal number of non-zero basis functions:       84 in task     2
  | Maximal number of non-zero basis functions:       84 in task     3
  | Maximal number of non-zero basis functions:       84 in task     4
  | Maximal number of non-zero basis functions:       84 in task     5
  | Maximal number of non-zero basis functions:       84 in task     6
  | Maximal number of non-zero basis functions:       84 in task     7
  Selecting the method for density update.
  Loop over occupied states selected for charge density update.
  Allocating        0.009 MB for KS_eigenvector
  Integrating Hamiltonian matrix: batch-based integration.
  Time summed over all CPUs for integration: real work        1.169 s, elapsed        1.263 s
  Integrating overlap matrix.
  Time summed over all CPUs for integration: real work        0.396 s, elapsed        0.421 s

  Updating Kohn-Sham eigenvalues, eigenvectors, occupation numbers, and Fermi level.
  Solving generalized eigenproblem
  Updating Kohn-Sham eigenvalues and eigenfunctions.
  Transforming overlap matrix and checking for singularities.
  Overlap matrix is nonsingular:
  | Lowest eigenvalue:  0.115344E-03
  Solving real generalised eigenvalue problem by standard LAPACK (fast)

  Obtaining occupation numbers and chemical potential using ELSI.
  | Chemical potential (Fermi level):    -6.68166918eV
  Writing Kohn-Sham eigenvalues.

  State    Occupation    Eigenvalue [Ha]    Eigenvalue [eV]
      1       2.00000         -14.286788         -388.76327
      2       2.00000          -0.970837          -26.41781
      3       2.00000          -0.618098          -16.81931
      4       2.00000          -0.618097          -16.81928
      5       2.00000          -0.400758          -10.90519
      6       0.00000          -0.063871           -1.73801
      7       0.00000           0.000165            0.00448
      8       0.00000           0.000165            0.00448
      9       0.00000           0.084677            2.30417
     10       0.00000           0.084677            2.30418
     11       0.00000           0.107570            2.92713
     12       0.00000           0.111344            3.02983
     13       0.00000           0.207396            5.64354

  Highest occupied state (VBM) at    -10.90519024 eV
  | Occupation number:      2.00000000

  Lowest unoccupied state (CBM) at    -1.73800507 eV
  | Occupation number:      0.00000000

  Overall HOMO-LUMO gap:      9.16718517 eV.
  Calculating total energy contributions from superposition of free atom densities.

  Total energy components:
  | Sum of eigenvalues            :         -33.78915626 Ha        -919.44972288 eV
  | XC energy correction          :          -7.67132085 Ha        -208.74726120 eV
  | XC potential correction       :           9.85811267 Ha         268.25289422 eV
  | Free-atom electrostatic energy:         -25.07784774 Ha        -682.40295731 eV
  | Hartree energy correction     :           0.00000000 Ha           0.00000000 eV
  | vdW energy correction         :           0.00000000 Ha           0.00000000 eV
  | Entropy correction            :           0.00000000 Ha           0.00000000 eV
  | ---------------------------
  | Total energy                  :         -56.68021218 Ha       -1542.34704717 eV
  | Total energy, T -> 0          :         -56.68021218 Ha       -1542.34704717 eV  <-- do not rely on this value for anything but (periodic) metals
  | Electronic free energy        :         -56.68021218 Ha       -1542.34704717 eV

  Derived energy quantities:
  | Kinetic energy                :          55.54557525 Ha        1511.47200548 eV
  | Electrostatic energy          :        -104.55446659 Ha       -2845.07179145 eV
  | Energy correction for multipole
  | error in Hartree potential    :           0.00000000 Ha           0.00000000 eV
  | Sum of eigenvalues per atom                           :        -229.86243072 eV
  | Total energy (T->0) per atom                          :        -385.58676179 eV  <-- do not rely on this value for anything but (periodic) metals
  | Electronic free energy per atom                       :        -385.58676179 eV
  Initialize hartree_potential_storage
  Max. number of atoms included in rho_multipole:            4

  End scf initialization - timings             :  max(cpu_time)    wall_clock(cpu1)
  | Time for scf. initialization               :        0.364 s           0.365 s
  | Boundary condition initialization          :        0.000 s           0.000 s
  | Integration                                :        0.208 s           0.210 s
  | Solution of K.-S. eqns.                    :        0.008 s           0.010 s
  | Grid partitioning                          :        0.072 s           0.070 s
  | Preloading free-atom quantities on grid    :        0.020 s           0.020 s
  | Free-atom superposition energy             :        0.016 s           0.016 s
  | Total energy evaluation                    :        0.000 s           0.001 s

  Partial memory accounting:
  | Current value for overall tracked memory usage on task 0  :           0.123 MB
  | Peak value for overall tracked memory usage on task 0     :           0.528 MB after allocating wave
  | Largest tracked array allocation on task 0 so far         :           0.134 MB  when allocating H_times_psi
  Note:  These values currently only include a subset of arrays which are explicitly tracked.
  The "true" memory usage will be greater.
------------------------------------------------------------

------------------------------------------------------------
          Begin self-consistency iteration #    1

  Date     :  20180214, Time     :  152435.590
------------------------------------------------------------
  Evaluating new KS density.
  Integration grid: deviation in total charge (<rho> - N_e) =   1.776357E-15
  Pulay mixing of updated and previous charge densities.

  Evaluating partitioned Hartree potential by multipole expansion.
  | Analytical far-field extrapolation by fixed multipoles:
  | Hartree multipole sum: apparent total charge =  -0.199674E-05
  Summing up the Hartree potential.
  Time summed over all CPUs for potential: real work        0.875 s, elapsed        0.918 s
  | RMS charge density error from multipole expansion :   0.200038E-03

  Integrating Hamiltonian matrix: batch-based integration.
  Time summed over all CPUs for integration: real work        1.263 s, elapsed        1.666 s => Consider using load balancing!

  Updating Kohn-Sham eigenvalues, eigenvectors, occupation numbers, and Fermi level.
  Solving generalized eigenproblem
  Updating Kohn-Sham eigenvalues and eigenfunctions.
  Solving real generalised eigenvalue problem by standard LAPACK (fast)

  Obtaining occupation numbers and chemical potential using ELSI.
  | Chemical potential (Fermi level):    -6.50393040eV
  Writing Kohn-Sham eigenvalues.

  State    Occupation    Eigenvalue [Ha]    Eigenvalue [eV]
      1       2.00000         -14.240013         -387.49048
      2       2.00000          -0.948089          -25.79883
      3       2.00000          -0.597708          -16.26446
      4       2.00000          -0.597707          -16.26444
      5       2.00000          -0.377225          -10.26481
      6       0.00000          -0.058700           -1.59732
      7       0.00000           0.004846            0.13187
      8       0.00000           0.004846            0.13187
      9       0.00000           0.090005            2.44916
     10       0.00000           0.090005            2.44917
     11       0.00000           0.113592            3.09100
     12       0.00000           0.116527            3.17086
     13       0.00000           0.212630            5.78596

  Highest occupied state (VBM) at    -10.26481308 eV
  | Occupation number:      2.00000000

  Lowest unoccupied state (CBM) at    -1.59732110 eV
  | Occupation number:      0.00000000

  Overall HOMO-LUMO gap:      8.66749198 eV.

  Total energy components:
  | Sum of eigenvalues            :         -33.52148594 Ha        -912.16604287 eV
  | XC energy correction          :          -7.70108608 Ha        -209.55721452 eV
  | XC potential correction       :           9.89696337 Ha         269.31007569 eV
  | Free-atom electrostatic energy:         -25.07784774 Ha        -682.40295731 eV
  | Hartree energy correction     :          -0.24955774 Ha          -6.79081170 eV
  | vdW energy correction         :           0.00000000 Ha           0.00000000 eV
  | Entropy correction            :           0.00000000 Ha           0.00000000 eV
  | ---------------------------
  | Total energy                  :         -56.65301414 Ha       -1541.60695072 eV
  | Total energy, T -> 0          :         -56.65301414 Ha       -1541.60695072 eV  <-- do not rely on this value for anything but (periodic) metals
  | Electronic free energy        :         -56.65301414 Ha       -1541.60695072 eV

  Derived energy quantities:
  | Kinetic energy                :          55.72605476 Ha        1516.38310275 eV
  | Electrostatic energy          :        -104.67798281 Ha       -2848.43283894 eV
  | Energy correction for multipole
  | error in Hartree potential    :          -0.00029982 Ha          -0.00815854 eV
  | Sum of eigenvalues per atom                           :        -228.04151072 eV
  | Total energy (T->0) per atom                          :        -385.40173768 eV  <-- do not rely on this value for anything but (periodic) metals
  | Electronic free energy per atom                       :        -385.40173768 eV

  Self-consistency convergence accuracy:
  | Change of charge density      :  0.3635E+00
  | Change of sum of eigenvalues  :  0.7284E+01 eV
  | Change of total energy        :  0.7401E+00 eV

  End self-consistency iteration #     1       :  max(cpu_time)    wall_clock(cpu1)
  | Time for this iteration                    :        0.480 s           0.477 s
  | Charge density update                      :        0.136 s           0.133 s
  | Density mixing                             :        0.004 s           0.001 s
  | Hartree multipole update                   :        0.016 s           0.016 s
  | Hartree multipole summation                :        0.116 s           0.115 s
  | Integration                                :        0.208 s           0.207 s
  | Solution of K.-S. eqns.                    :        0.004 s           0.003 s
  | Total energy evaluation                    :        0.000 s           0.001 s

  Partial memory accounting:
  | Current value for overall tracked memory usage on task 0  :           0.123 MB
  | Peak value for overall tracked memory usage on task 0     :           0.661 MB after allocating gradient_basis_wave
  | Largest tracked array allocation on task 0 so far         :           0.403 MB  when allocating gradient_basis_wave
  Note:  These values currently only include a subset of arrays which are explicitly tracked.
  The "true" memory usage will be greater.
------------------------------------------------------------

------------------------------------------------------------
          Begin self-consistency iteration #    2

  Date     :  20180214, Time     :  152436.068
------------------------------------------------------------
  Evaluating new KS density.
  Integration grid: deviation in total charge (<rho> - N_e) =   2.131628E-14
  Pulay mixing of updated and previous charge densities.

  Evaluating partitioned Hartree potential by multipole expansion.
  | Analytical far-field extrapolation by fixed multipoles:
  | Hartree multipole sum: apparent total charge =  -0.265945E-05
  Summing up the Hartree potential.
  Time summed over all CPUs for potential: real work        0.900 s, elapsed        0.952 s
  | RMS charge density error from multipole expansion :   0.146029E-02

  Integrating Hamiltonian matrix: batch-based integration.
  Time summed over all CPUs for integration: real work        1.148 s, elapsed        1.244 s

  Updating Kohn-Sham eigenvalues, eigenvectors, occupation numbers, and Fermi level.
  Solving generalized eigenproblem
  Updating Kohn-Sham eigenvalues and eigenfunctions.
  Solving real generalised eigenvalue problem by standard LAPACK (fast)

  Obtaining occupation numbers and chemical potential using ELSI.
  | Chemical potential (Fermi level):    -5.33577545eV
  Highest occupied state (VBM) at     -6.49651287 eV
  | Occupation number:      2.00000000

  Lowest unoccupied state (CBM) at    -0.78740650 eV
  | Occupation number:      0.00000000

  Overall HOMO-LUMO gap:      5.70910637 eV.

  Checking to see if s.c.f. parameters should be adjusted.
  The system likely has a gap. Increased the default Pulay mixing parameter (charge_mix_param). Value:   0.200000 .
  Kept the default occupation width. Value:   0.010000 eV.

  Total energy components:
  | Sum of eigenvalues            :         -31.91774516 Ha        -868.52603580 eV
  | XC energy correction          :          -7.89282016 Ha        -214.77456403 eV
  | XC potential correction       :          10.14719705 Ha         276.11928059 eV
  | Free-atom electrostatic energy:         -25.07784774 Ha        -682.40295731 eV
  | Hartree energy correction     :          -1.82419896 Ha         -49.63897943 eV
  | vdW energy correction         :           0.00000000 Ha           0.00000000 eV
  | Entropy correction            :           0.00000000 Ha           0.00000000 eV
  | ---------------------------
  | Total energy                  :         -56.56541496 Ha       -1539.22325597 eV
  | Total energy, T -> 0          :         -56.56541496 Ha       -1539.22325597 eV  <-- do not rely on this value for anything but (periodic) metals
  | Electronic free energy        :         -56.56541496 Ha       -1539.22325597 eV

  Derived energy quantities:
  | Kinetic energy                :          56.69236845 Ha        1542.67783613 eV
  | Electrostatic energy          :        -105.36496326 Ha       -2867.12652807 eV
  | Energy correction for multipole
  | error in Hartree potential    :          -0.00210516 Ha          -0.05728433 eV
  | Sum of eigenvalues per atom                           :        -217.13150895 eV
  | Total energy (T->0) per atom                          :        -384.80581399 eV  <-- do not rely on this value for anything but (periodic) metals
  | Electronic free energy per atom                       :        -384.80581399 eV

  Self-consistency convergence accuracy:
  | Change of charge density      :  0.3215E+00
  | Change of sum of eigenvalues  :  0.4364E+02 eV
  | Change of total energy        :  0.2384E+01 eV

  End self-consistency iteration #     2       :  max(cpu_time)    wall_clock(cpu1)
  | Time for this iteration                    :        0.440 s           0.439 s
  | Charge density update                      :        0.144 s           0.143 s
  | Density mixing                             :        0.004 s           0.004 s
  | Hartree multipole update                   :        0.016 s           0.015 s
  | Hartree multipole summation                :        0.116 s           0.119 s
  | Integration                                :        0.156 s           0.154 s
  | Solution of K.-S. eqns.                    :        0.004 s           0.002 s
  | Total energy evaluation                    :        0.000 s           0.000 s

  Partial memory accounting:
  | Current value for overall tracked memory usage on task 0  :           0.124 MB
  | Peak value for overall tracked memory usage on task 0     :           0.661 MB after allocating gradient_basis_wave
  | Largest tracked array allocation on task 0 so far         :           0.403 MB  when allocating gradient_basis_wave
  Note:  These values currently only include a subset of arrays which are explicitly tracked.
  The "true" memory usage will be greater.
------------------------------------------------------------

------------------------------------------------------------
          Begin self-consistency iteration #    3

  Date     :  20180214, Time     :  152436.507
------------------------------------------------------------
  Evaluating new KS density.
  Integration grid: deviation in total charge (<rho> - N_e) =  -1.776357E-15
  Pulay mixing of updated and previous charge densities.

  Evaluating partitioned Hartree potential by multipole expansion.
  | Analytical far-field extrapolation by fixed multipoles:
  | Hartree multipole sum: apparent total charge =  -0.198301E-05
  Summing up the Hartree potential.
  Time summed over all CPUs for potential: real work        0.885 s, elapsed        0.927 s
  | RMS charge density error from multipole expansion :   0.182422E-02

  Integrating Hamiltonian matrix: batch-based integration.
  Time summed over all CPUs for integration: real work        1.160 s, elapsed        1.236 s

  Updating Kohn-Sham eigenvalues, eigenvectors, occupation numbers, and Fermi level.
  Solving generalized eigenproblem
  Updating Kohn-Sham eigenvalues and eigenfunctions.
  Solving real generalised eigenvalue problem by standard LAPACK (fast)

  Obtaining occupation numbers and chemical potential using ELSI.
  | Chemical potential (Fermi level):    -5.44693219eV
  Highest occupied state (VBM) at     -6.94074330 eV
  | Occupation number:      2.00000000

  Lowest unoccupied state (CBM) at    -0.80549498 eV
  | Occupation number:      0.00000000

  Overall HOMO-LUMO gap:      6.13524832 eV.

  Total energy components:
  | Sum of eigenvalues            :         -32.15163017 Ha        -874.89037076 eV
  | XC energy correction          :          -7.86799818 Ha        -214.09912361 eV
  | XC potential correction       :          10.11398545 Ha         275.21554702 eV
  | Free-atom electrostatic energy:         -25.07784774 Ha        -682.40295731 eV
  | Hartree energy correction     :          -1.58437375 Ha         -43.11300341 eV
  | vdW energy correction         :           0.00000000 Ha           0.00000000 eV
  | Entropy correction            :           0.00000000 Ha           0.00000000 eV
  | ---------------------------
  | Total energy                  :         -56.56786438 Ha       -1539.28990808 eV
  | Total energy, T -> 0          :         -56.56786438 Ha       -1539.28990808 eV  <-- do not rely on this value for anything but (periodic) metals
  | Electronic free energy        :         -56.56786438 Ha       -1539.28990808 eV

  Derived energy quantities:
  | Kinetic energy                :          56.36298048 Ha        1533.71473332 eV
  | Electrostatic energy          :        -105.06284668 Ha       -2858.90551779 eV
  | Energy correction for multipole
  | error in Hartree potential    :          -0.00136729 Ha          -0.03720597 eV
  | Sum of eigenvalues per atom                           :        -218.72259269 eV
  | Total energy (T->0) per atom                          :        -384.82247702 eV  <-- do not rely on this value for anything but (periodic) metals
  | Electronic free energy per atom                       :        -384.82247702 eV

  Self-consistency convergence accuracy:
  | Change of charge density      :  0.1398E+00
  | Change of sum of eigenvalues  : -0.6364E+01 eV
  | Change of total energy        : -0.6665E-01 eV

  End self-consistency iteration #     3       :  max(cpu_time)    wall_clock(cpu1)
  | Time for this iteration                    :        0.424 s           0.423 s
  | Charge density update                      :        0.136 s           0.132 s
  | Density mixing                             :        0.008 s           0.005 s
  | Hartree multipole update                   :        0.016 s           0.015 s
  | Hartree multipole summation                :        0.116 s           0.116 s
  | Integration                                :        0.156 s           0.153 s
  | Solution of K.-S. eqns.                    :        0.004 s           0.002 s
  | Total energy evaluation                    :        0.000 s           0.000 s

  Partial memory accounting:
  | Current value for overall tracked memory usage on task 0  :           0.124 MB
  | Peak value for overall tracked memory usage on task 0     :           0.661 MB after allocating gradient_basis_wave
  | Largest tracked array allocation on task 0 so far         :           0.403 MB  when allocating gradient_basis_wave
  Note:  These values currently only include a subset of arrays which are explicitly tracked.
  The "true" memory usage will be greater.
------------------------------------------------------------

------------------------------------------------------------
          Begin self-consistency iteration #    4

  Date     :  20180214, Time     :  152436.931
------------------------------------------------------------
  Evaluating new KS density.
  Integration grid: deviation in total charge (<rho> - N_e) =   0.000000E+00
  Pulay mixing of updated and previous charge densities.

  Evaluating partitioned Hartree potential by multipole expansion.
  | Analytical far-field extrapolation by fixed multipoles:
  | Hartree multipole sum: apparent total charge =  -0.155461E-05
  Summing up the Hartree potential.
  Time summed over all CPUs for potential: real work        0.912 s, elapsed        0.965 s
  | RMS charge density error from multipole expansion :   0.303373E-02

  Integrating Hamiltonian matrix: batch-based integration.
  Time summed over all CPUs for integration: real work        1.164 s, elapsed        1.254 s

  Updating Kohn-Sham eigenvalues, eigenvectors, occupation numbers, and Fermi level.
  Solving generalized eigenproblem
  Updating Kohn-Sham eigenvalues and eigenfunctions.
  Solving real generalised eigenvalue problem by standard LAPACK (fast)

  Obtaining occupation numbers and chemical potential using ELSI.
  | Chemical potential (Fermi level):    -5.01922792eV
  Highest occupied state (VBM) at     -5.88068084 eV
  | Occupation number:      2.00000000

  Lowest unoccupied state (CBM) at    -0.47124301 eV
  | Occupation number:      0.00000000

  Overall HOMO-LUMO gap:      5.40943782 eV.

  Total energy components:
  | Sum of eigenvalues            :         -31.74081589 Ha        -863.71154555 eV
  | XC energy correction          :          -7.93059094 Ha        -215.80235935 eV
  | XC potential correction       :          10.19493802 Ha         277.41837844 eV
  | Free-atom electrostatic energy:         -25.07784774 Ha        -682.40295731 eV
  | Hartree energy correction     :          -2.00549227 Ha         -54.57222114 eV
  | vdW energy correction         :           0.00000000 Ha           0.00000000 eV
  | Entropy correction            :           0.00000000 Ha           0.00000000 eV
  | ---------------------------
  | Total energy                  :         -56.55980881 Ha       -1539.07070491 eV
  | Total energy, T -> 0          :         -56.55980881 Ha       -1539.07070491 eV  <-- do not rely on this value for anything but (periodic) metals
  | Electronic free energy        :         -56.55980881 Ha       -1539.07070491 eV

  Derived energy quantities:
  | Kinetic energy                :          56.35531912 Ha        1533.50625728 eV
  | Electrostatic energy          :        -104.98453700 Ha       -2856.77460284 eV
  | Energy correction for multipole
  | error in Hartree potential    :          -0.00131406 Ha          -0.03575730 eV
  | Sum of eigenvalues per atom                           :        -215.92788639 eV
  | Total energy (T->0) per atom                          :        -384.76767623 eV  <-- do not rely on this value for anything but (periodic) metals
  | Electronic free energy per atom                       :        -384.76767623 eV

  Self-consistency convergence accuracy:
  | Change of charge density      :  0.1034E+00
  | Change of sum of eigenvalues  :  0.1118E+02 eV
  | Change of total energy        :  0.2192E+00 eV

  End self-consistency iteration #     4       :  max(cpu_time)    wall_clock(cpu1)
  | Time for this iteration                    :        0.436 s           0.433 s
  | Charge density update                      :        0.132 s           0.131 s
  | Density mixing                             :        0.008 s           0.008 s
  | Hartree multipole update                   :        0.016 s           0.015 s
  | Hartree multipole summation                :        0.120 s           0.120 s
  | Integration                                :        0.156 s           0.156 s
  | Solution of K.-S. eqns.                    :        0.004 s           0.002 s
  | Total energy evaluation                    :        0.000 s           0.001 s

  Partial memory accounting:
  | Current value for overall tracked memory usage on task 0  :           0.124 MB
  | Peak value for overall tracked memory usage on task 0     :           0.661 MB after allocating gradient_basis_wave
  | Largest tracked array allocation on task 0 so far         :           0.403 MB  when allocating gradient_basis_wave
  Note:  These values currently only include a subset of arrays which are explicitly tracked.
  The "true" memory usage will be greater.
------------------------------------------------------------

------------------------------------------------------------
          Begin self-consistency iteration #    5

  Date     :  20180214, Time     :  152437.365
------------------------------------------------------------
  Evaluating new KS density.
  Integration grid: deviation in total charge (<rho> - N_e) =   1.776357E-15
  Pulay mixing of updated and previous charge densities.

  Evaluating partitioned Hartree potential by multipole expansion.
  | Analytical far-field extrapolation by fixed multipoles:
  | Hartree multipole sum: apparent total charge =  -0.159699E-05
  Summing up the Hartree potential.
  Time summed over all CPUs for potential: real work        0.884 s, elapsed        0.927 s
  | RMS charge density error from multipole expansion :   0.304280E-02

  Integrating Hamiltonian matrix: batch-based integration.
  Time summed over all CPUs for integration: real work        1.149 s, elapsed        1.241 s

  Updating Kohn-Sham eigenvalues, eigenvectors, occupation numbers, and Fermi level.
  Solving generalized eigenproblem
  Updating Kohn-Sham eigenvalues and eigenfunctions.
  Solving real generalised eigenvalue problem by standard LAPACK (fast)

  Obtaining occupation numbers and chemical potential using ELSI.
  | Chemical potential (Fermi level):    -4.98206991eV
  Highest occupied state (VBM) at     -5.77737426 eV
  | Occupation number:      2.00000000

  Lowest unoccupied state (CBM) at    -0.44004083 eV
  | Occupation number:      0.00000000

  Overall HOMO-LUMO gap:      5.33733344 eV.

  Total energy components:
  | Sum of eigenvalues            :         -31.70548649 Ha        -862.75018369 eV
  | XC energy correction          :          -7.93562367 Ha        -215.93930689 eV
  | XC potential correction       :          10.20154641 Ha         277.59820180 eV
  | Free-atom electrostatic energy:         -25.07784774 Ha        -682.40295731 eV
  | Hartree energy correction     :          -2.04211209 Ha         -55.56869731 eV
  | vdW energy correction         :           0.00000000 Ha           0.00000000 eV
  | Entropy correction            :           0.00000000 Ha           0.00000000 eV
  | ---------------------------
  | Total energy                  :         -56.55952358 Ha       -1539.06294340 eV
  | Total energy, T -> 0          :         -56.55952358 Ha       -1539.06294340 eV  <-- do not rely on this value for anything but (periodic) metals
  | Electronic free energy        :         -56.55952358 Ha       -1539.06294340 eV

  Derived energy quantities:
  | Kinetic energy                :          56.35753926 Ha        1533.56667023 eV
  | Electrostatic energy          :        -104.98143917 Ha       -2856.69030674 eV
  | Energy correction for multipole
  | error in Hartree potential    :          -0.00134378 Ha          -0.03656599 eV
  | Sum of eigenvalues per atom                           :        -215.68754592 eV
  | Total energy (T->0) per atom                          :        -384.76573585 eV  <-- do not rely on this value for anything but (periodic) metals
  | Electronic free energy per atom                       :        -384.76573585 eV

  Self-consistency convergence accuracy:
  | Change of charge density      :  0.2514E-01
  | Change of sum of eigenvalues  :  0.9614E+00 eV
  | Change of total energy        :  0.7762E-02 eV

  End self-consistency iteration #     5       :  max(cpu_time)    wall_clock(cpu1)
  | Time for this iteration                    :        0.432 s           0.433 s
  | Charge density update                      :        0.136 s           0.134 s
  | Density mixing                             :        0.012 s           0.009 s
  | Hartree multipole update                   :        0.016 s           0.017 s
  | Hartree multipole summation                :        0.116 s           0.116 s
  | Integration                                :        0.156 s           0.154 s
  | Solution of K.-S. eqns.                    :        0.004 s           0.001 s
  | Total energy evaluation                    :        0.004 s           0.001 s

  Partial memory accounting:
  | Current value for overall tracked memory usage on task 0  :           0.124 MB
  | Peak value for overall tracked memory usage on task 0     :           0.661 MB after allocating gradient_basis_wave
  | Largest tracked array allocation on task 0 so far         :           0.403 MB  when allocating gradient_basis_wave
  Note:  These values currently only include a subset of arrays which are explicitly tracked.
  The "true" memory usage will be greater.
------------------------------------------------------------

------------------------------------------------------------
          Begin self-consistency iteration #    6

  Date     :  20180214, Time     :  152437.799
------------------------------------------------------------
  Evaluating new KS density.
  Integration grid: deviation in total charge (<rho> - N_e) =   5.329071E-15
  Pulay mixing of updated and previous charge densities.

  Evaluating partitioned Hartree potential by multipole expansion.
  | Analytical far-field extrapolation by fixed multipoles:
  | Hartree multipole sum: apparent total charge =  -0.168972E-05
  Summing up the Hartree potential.
  Time summed over all CPUs for potential: real work        0.883 s, elapsed        0.922 s
  | RMS charge density error from multipole expansion :   0.315689E-02

  Integrating Hamiltonian matrix: batch-based integration.
  Time summed over all CPUs for integration: real work        1.167 s, elapsed        1.260 s

  Updating Kohn-Sham eigenvalues, eigenvectors, occupation numbers, and Fermi level.
  Solving generalized eigenproblem
  Updating Kohn-Sham eigenvalues and eigenfunctions.
  Solving real generalised eigenvalue problem by standard LAPACK (fast)

  Obtaining occupation numbers and chemical potential using ELSI.
  | Chemical potential (Fermi level):    -4.85909460eV
  Highest occupied state (VBM) at     -5.46018957 eV
  | Occupation number:      2.00000000

  Lowest unoccupied state (CBM) at    -0.33480222 eV
  | Occupation number:      0.00000000

  Overall HOMO-LUMO gap:      5.12538734 eV.

  Total energy components:
  | Sum of eigenvalues            :         -31.59683094 Ha        -859.79351571 eV
  | XC energy correction          :          -7.95195339 Ha        -216.38366116 eV
  | XC potential correction       :          10.22293907 Ha         278.18032571 eV
  | Free-atom electrostatic energy:         -25.07784774 Ha        -682.40295731 eV
  | Hartree energy correction     :          -2.15542327 Ha         -58.65205127 eV
  | vdW energy correction         :           0.00000000 Ha           0.00000000 eV
  | Entropy correction            :           0.00000000 Ha           0.00000000 eV
  | ---------------------------
  | Total energy                  :         -56.55911627 Ha       -1539.05185975 eV
  | Total energy, T -> 0          :         -56.55911627 Ha       -1539.05185975 eV  <-- do not rely on this value for anything but (periodic) metals
  | Electronic free energy        :         -56.55911627 Ha       -1539.05185975 eV

  Derived energy quantities:
  | Kinetic energy                :          56.35592738 Ha        1533.52280876 eV
  | Electrostatic energy          :        -104.96309026 Ha       -2856.19100735 eV
  | Energy correction for multipole
  | error in Hartree potential    :          -0.00141297 Ha          -0.03844879 eV
  | Sum of eigenvalues per atom                           :        -214.94837893 eV
  | Total energy (T->0) per atom                          :        -384.76296494 eV  <-- do not rely on this value for anything but (periodic) metals
  | Electronic free energy per atom                       :        -384.76296494 eV

  Self-consistency convergence accuracy:
  | Change of charge density      :  0.1933E-01
  | Change of sum of eigenvalues  :  0.2957E+01 eV
  | Change of total energy        :  0.1108E-01 eV

  End self-consistency iteration #     6       :  max(cpu_time)    wall_clock(cpu1)
  | Time for this iteration                    :        0.432 s           0.431 s
  | Charge density update                      :        0.132 s           0.129 s
  | Density mixing                             :        0.012 s           0.011 s
  | Hartree multipole update                   :        0.020 s           0.016 s
  | Hartree multipole summation                :        0.116 s           0.115 s
  | Integration                                :        0.160 s           0.157 s
  | Solution of K.-S. eqns.                    :        0.004 s           0.001 s
  | Total energy evaluation                    :        0.000 s           0.001 s

  Partial memory accounting:
  | Current value for overall tracked memory usage on task 0  :           0.124 MB
  | Peak value for overall tracked memory usage on task 0     :           0.661 MB after allocating gradient_basis_wave
  | Largest tracked array allocation on task 0 so far         :           0.403 MB  when allocating gradient_basis_wave
  Note:  These values currently only include a subset of arrays which are explicitly tracked.
  The "true" memory usage will be greater.
------------------------------------------------------------

------------------------------------------------------------
          Begin self-consistency iteration #    7

  Date     :  20180214, Time     :  152438.231
------------------------------------------------------------
  Evaluating new KS density.
  Integration grid: deviation in total charge (<rho> - N_e) =  -3.552714E-15
  Pulay mixing of updated and previous charge densities.

  Evaluating partitioned Hartree potential by multipole expansion.
  | Analytical far-field extrapolation by fixed multipoles:
  | Hartree multipole sum: apparent total charge =  -0.168643E-05
  Summing up the Hartree potential.
  Time summed over all CPUs for potential: real work        0.900 s, elapsed        0.943 s
  | RMS charge density error from multipole expansion :   0.316083E-02

  Integrating Hamiltonian matrix: batch-based integration.
  Time summed over all CPUs for integration: real work        1.148 s, elapsed        1.251 s

  Updating Kohn-Sham eigenvalues, eigenvectors, occupation numbers, and Fermi level.
  Solving generalized eigenproblem
  Updating Kohn-Sham eigenvalues and eigenfunctions.
  Solving real generalised eigenvalue problem by standard LAPACK (fast)

  Obtaining occupation numbers and chemical potential using ELSI.
  | Chemical potential (Fermi level):    -4.85137887eV
  Highest occupied state (VBM) at     -5.44186240 eV
  | Occupation number:      2.00000000

  Lowest unoccupied state (CBM) at    -0.32816399 eV
  | Occupation number:      0.00000000

  Overall HOMO-LUMO gap:      5.11369841 eV.

  Total energy components:
  | Sum of eigenvalues            :         -31.58931259 Ha        -859.58893084 eV
  | XC energy correction          :          -7.95341639 Ha        -216.42347158 eV
  | XC potential correction       :          10.22483134 Ha         278.23181706 eV
  | Free-atom electrostatic energy:         -25.07784774 Ha        -682.40295731 eV
  | Hartree energy correction     :          -2.16336890 Ha         -58.86826308 eV
  | vdW energy correction         :           0.00000000 Ha           0.00000000 eV
  | Entropy correction            :           0.00000000 Ha           0.00000000 eV
  | ---------------------------
  | Total energy                  :         -56.55911428 Ha       -1539.05180575 eV
  | Total energy, T -> 0          :         -56.55911428 Ha       -1539.05180575 eV  <-- do not rely on this value for anything but (periodic) metals
  | Electronic free energy        :         -56.55911428 Ha       -1539.05180575 eV

  Derived energy quantities:
  | Kinetic energy                :          56.35980666 Ha        1533.62836938 eV
  | Electrostatic energy          :        -104.96550455 Ha       -2856.25670355 eV
  | Energy correction for multipole
  | error in Hartree potential    :          -0.00143043 Ha          -0.03892407 eV
  | Sum of eigenvalues per atom                           :        -214.89723271 eV
  | Total energy (T->0) per atom                          :        -384.76295144 eV  <-- do not rely on this value for anything but (periodic) metals
  | Electronic free energy per atom                       :        -384.76295144 eV

  Self-consistency convergence accuracy:
  | Change of charge density      :  0.1508E-02
  | Change of sum of eigenvalues  :  0.2046E+00 eV
  | Change of total energy        :  0.5400E-04 eV

  End self-consistency iteration #     7       :  max(cpu_time)    wall_clock(cpu1)
  | Time for this iteration                    :        0.448 s           0.446 s
  | Charge density update                      :        0.136 s           0.132 s
  | Density mixing                             :        0.016 s           0.019 s
  | Hartree multipole update                   :        0.020 s           0.018 s
  | Hartree multipole summation                :        0.116 s           0.118 s
  | Integration                                :        0.156 s           0.156 s
  | Solution of K.-S. eqns.                    :        0.004 s           0.002 s
  | Total energy evaluation                    :        0.004 s           0.001 s

  Partial memory accounting:
  | Current value for overall tracked memory usage on task 0  :           0.124 MB
  | Peak value for overall tracked memory usage on task 0     :           0.661 MB after allocating gradient_basis_wave
  | Largest tracked array allocation on task 0 so far         :           0.403 MB  when allocating gradient_basis_wave
  Note:  These values currently only include a subset of arrays which are explicitly tracked.
  The "true" memory usage will be greater.
------------------------------------------------------------

------------------------------------------------------------
          Begin self-consistency iteration #    8

  Date     :  20180214, Time     :  152438.678
------------------------------------------------------------
  Evaluating new KS density.
  Integration grid: deviation in total charge (<rho> - N_e) =  -3.552714E-15
  Pulay mixing of updated and previous charge densities.

  Evaluating partitioned Hartree potential by multipole expansion.
  | Analytical far-field extrapolation by fixed multipoles:
  | Hartree multipole sum: apparent total charge =  -0.168805E-05
  Summing up the Hartree potential.
  Time summed over all CPUs for potential: real work        0.880 s, elapsed        0.921 s
  | RMS charge density error from multipole expansion :   0.316085E-02

  Integrating Hamiltonian matrix: batch-based integration.
  Time summed over all CPUs for integration: real work        1.165 s, elapsed        1.300 s

  Updating Kohn-Sham eigenvalues, eigenvectors, occupation numbers, and Fermi level.
  Solving generalized eigenproblem
  Updating Kohn-Sham eigenvalues and eigenfunctions.
  Solving real generalised eigenvalue problem by standard LAPACK (fast)

  Obtaining occupation numbers and chemical potential using ELSI.
  | Chemical potential (Fermi level):    -4.85086616eV
  Highest occupied state (VBM) at     -5.44015995 eV
  | Occupation number:      2.00000000

  Lowest unoccupied state (CBM) at    -0.32784074 eV
  | Occupation number:      0.00000000

  Overall HOMO-LUMO gap:      5.11231921 eV.

  Total energy components:
  | Sum of eigenvalues            :         -31.58871433 Ha        -859.57265142 eV
  | XC energy correction          :          -7.95346747 Ha        -216.42486131 eV
  | XC potential correction       :          10.22490060 Ha         278.23370176 eV
  | Free-atom electrostatic energy:         -25.07784774 Ha        -682.40295731 eV
  | Hartree energy correction     :          -2.16398530 Ha         -58.88503613 eV
  | vdW energy correction         :           0.00000000 Ha           0.00000000 eV
  | Entropy correction            :           0.00000000 Ha           0.00000000 eV
  | ---------------------------
  | Total energy                  :         -56.55911423 Ha       -1539.05180441 eV
  | Total energy, T -> 0          :         -56.55911423 Ha       -1539.05180441 eV  <-- do not rely on this value for anything but (periodic) metals
  | Electronic free energy        :         -56.55911423 Ha       -1539.05180441 eV

  Derived energy quantities:
  | Kinetic energy                :          56.35987721 Ha        1533.63028926 eV
  | Electrostatic energy          :        -104.96552398 Ha       -2856.25723236 eV
  | Energy correction for multipole
  | error in Hartree potential    :          -0.00143077 Ha          -0.03893310 eV
  | Sum of eigenvalues per atom                           :        -214.89316285 eV
  | Total energy (T->0) per atom                          :        -384.76295110 eV  <-- do not rely on this value for anything but (periodic) metals
  | Electronic free energy per atom                       :        -384.76295110 eV

  Self-consistency convergence accuracy:
  | Change of charge density      :  0.2473E-03
  | Change of sum of eigenvalues  :  0.1628E-01 eV
  | Change of total energy        :  0.1338E-05 eV

  End self-consistency iteration #     8       :  max(cpu_time)    wall_clock(cpu1)
  | Time for this iteration                    :        0.452 s           0.451 s
  | Charge density update                      :        0.140 s           0.140 s
  | Density mixing                             :        0.016 s           0.016 s
  | Hartree multipole update                   :        0.016 s           0.015 s
  | Hartree multipole summation                :        0.116 s           0.115 s
  | Integration                                :        0.160 s           0.162 s
  | Solution of K.-S. eqns.                    :        0.004 s           0.001 s
  | Total energy evaluation                    :        0.000 s           0.000 s

  Partial memory accounting:
  | Current value for overall tracked memory usage on task 0  :           0.124 MB
  | Peak value for overall tracked memory usage on task 0     :           0.661 MB after allocating gradient_basis_wave
  | Largest tracked array allocation on task 0 so far         :           0.403 MB  when allocating gradient_basis_wave
  Note:  These values currently only include a subset of arrays which are explicitly tracked.
  The "true" memory usage will be greater.
------------------------------------------------------------

------------------------------------------------------------
          Begin self-consistency iteration #    9

  Date     :  20180214, Time     :  152439.129
------------------------------------------------------------
  Evaluating new KS density.
  Integration grid: deviation in total charge (<rho> - N_e) =   7.105427E-15
  Pulay mixing of updated and previous charge densities.

  Evaluating partitioned Hartree potential by multipole expansion.
  | Analytical far-field extrapolation by fixed multipoles:
  | Hartree multipole sum: apparent total charge =  -0.168846E-05
  Summing up the Hartree potential.
  Time summed over all CPUs for potential: real work        0.884 s, elapsed        0.927 s
  | RMS charge density error from multipole expansion :   0.316116E-02

  Integrating Hamiltonian matrix: batch-based integration.
  Time summed over all CPUs for integration: real work        1.159 s, elapsed        1.256 s

  Updating Kohn-Sham eigenvalues, eigenvectors, occupation numbers, and Fermi level.
  Solving generalized eigenproblem
  Updating Kohn-Sham eigenvalues and eigenfunctions.
  Solving real generalised eigenvalue problem by standard LAPACK (fast)

  Obtaining occupation numbers and chemical potential using ELSI.
  | Chemical potential (Fermi level):    -4.85046458eV
  Highest occupied state (VBM) at     -5.43891014 eV
  | Occupation number:      2.00000000

  Lowest unoccupied state (CBM) at    -0.32752404 eV
  | Occupation number:      0.00000000

  Overall HOMO-LUMO gap:      5.11138610 eV.

  Total energy components:
  | Sum of eigenvalues            :         -31.58829236 Ha        -859.56116901 eV
  | XC energy correction          :          -7.95353437 Ha        -216.42668178 eV
  | XC potential correction       :          10.22498783 Ha         278.23607531 eV
  | Free-atom electrostatic energy:         -25.07784774 Ha        -682.40295731 eV
  | Hartree energy correction     :          -2.16442758 Ha         -58.89707111 eV
  | vdW energy correction         :           0.00000000 Ha           0.00000000 eV
  | Entropy correction            :           0.00000000 Ha           0.00000000 eV
  | ---------------------------
  | Total energy                  :         -56.55911422 Ha       -1539.05180389 eV
  | Total energy, T -> 0          :         -56.55911422 Ha       -1539.05180389 eV  <-- do not rely on this value for anything but (periodic) metals
  | Electronic free energy        :         -56.55911422 Ha       -1539.05180389 eV

  Derived energy quantities:
  | Kinetic energy                :          56.35984336 Ha        1533.62936797 eV
  | Electrostatic energy          :        -104.96542321 Ha       -2856.25449009 eV
  | Energy correction for multipole
  | error in Hartree potential    :          -0.00143205 Ha          -0.03896803 eV
  | Sum of eigenvalues per atom                           :        -214.89029225 eV
  | Total energy (T->0) per atom                          :        -384.76295097 eV  <-- do not rely on this value for anything but (periodic) metals
  | Electronic free energy per atom                       :        -384.76295097 eV

  Self-consistency convergence accuracy:
  | Change of charge density      :  0.1077E-03
  | Change of sum of eigenvalues  :  0.1148E-01 eV
  | Change of total energy        :  0.5157E-06 eV

  End self-consistency iteration #     9       :  max(cpu_time)    wall_clock(cpu1)
  | Time for this iteration                    :        0.440 s           0.439 s
  | Charge density update                      :        0.128 s           0.129 s
  | Density mixing                             :        0.016 s           0.016 s
  | Hartree multipole update                   :        0.016 s           0.017 s
  | Hartree multipole summation                :        0.120 s           0.118 s
  | Integration                                :        0.156 s           0.156 s
  | Solution of K.-S. eqns.                    :        0.004 s           0.003 s
  | Total energy evaluation                    :        0.000 s           0.000 s

  Partial memory accounting:
  | Current value for overall tracked memory usage on task 0  :           0.124 MB
  | Peak value for overall tracked memory usage on task 0     :           0.661 MB after allocating gradient_basis_wave
  | Largest tracked array allocation on task 0 so far         :           0.403 MB  when allocating gradient_basis_wave
  Note:  These values currently only include a subset of arrays which are explicitly tracked.
  The "true" memory usage will be greater.
------------------------------------------------------------

------------------------------------------------------------
          Begin self-consistency iteration #   10

  Date     :  20180214, Time     :  152439.569
------------------------------------------------------------
  Evaluating new KS density.
  Integration grid: deviation in total charge (<rho> - N_e) =   0.000000E+00
  Pulay mixing of updated and previous charge densities.

  Evaluating partitioned Hartree potential by multipole expansion.
  | Analytical far-field extrapolation by fixed multipoles:
  | Hartree multipole sum: apparent total charge =  -0.168883E-05
  Summing up the Hartree potential.
  Time summed over all CPUs for potential: real work        0.886 s, elapsed        0.959 s
  | RMS charge density error from multipole expansion :   0.316107E-02

  Integrating Hamiltonian matrix: batch-based integration.
  Time summed over all CPUs for integration: real work        1.153 s, elapsed        1.239 s

  Updating Kohn-Sham eigenvalues, eigenvectors, occupation numbers, and Fermi level.
  Solving generalized eigenproblem
  Updating Kohn-Sham eigenvalues and eigenfunctions.
  Solving real generalised eigenvalue problem by standard LAPACK (fast)

  Obtaining occupation numbers and chemical potential using ELSI.
  | Chemical potential (Fermi level):    -4.85036820eV
  Highest occupied state (VBM) at     -5.43853693 eV
  | Occupation number:      2.00000000

  Lowest unoccupied state (CBM) at    -0.32746969 eV
  | Occupation number:      0.00000000

  Overall HOMO-LUMO gap:      5.11106724 eV.

  Total energy components:
  | Sum of eigenvalues            :         -31.58815035 Ha        -859.55730485 eV
  | XC energy correction          :          -7.95354793 Ha        -216.42705094 eV
  | XC potential correction       :          10.22500601 Ha         278.23657012 eV
  | Free-atom electrostatic energy:         -25.07784774 Ha        -682.40295731 eV
  | Hartree energy correction     :          -2.16457420 Ha         -58.90106081 eV
  | vdW energy correction         :           0.00000000 Ha           0.00000000 eV
  | Entropy correction            :           0.00000000 Ha           0.00000000 eV
  | ---------------------------
  | Total energy                  :         -56.55911421 Ha       -1539.05180380 eV
  | Total energy, T -> 0          :         -56.55911421 Ha       -1539.05180380 eV  <-- do not rely on this value for anything but (periodic) metals
  | Electronic free energy        :         -56.55911421 Ha       -1539.05180380 eV

  Derived energy quantities:
  | Kinetic energy                :          56.35988386 Ha        1533.63047016 eV
[...]
  | Electronic free energy        :         -56.55911421 Ha       -1539.05180381 eV

  Derived energy quantities:
  | Kinetic energy                :          56.35986619 Ha        1533.62998916 eV
  | Electrostatic energy          :        -104.96543747 Ha       -2856.25487813 eV
  | Energy correction for multipole
  | error in Hartree potential    :          -0.00143228 Ha          -0.03897419 eV
  | Sum of eigenvalues per atom                           :        -214.88962956 eV
  | Total energy (T->0) per atom                          :        -384.76295095 eV  <-- do not rely on this value for anything but (periodic) metals
  | Electronic free energy per atom                       :        -384.76295095 eV

  atomic forces [eV/Ang]:
  -----------------------
  atom #    1
   Hellmann-Feynman              : -0.482410E-12 -0.155471E-04  0.535034E+01
   Ionic forces                  :  0.000000E+00  0.000000E+00  0.000000E+00
   Multipole                     :  0.816654E-13 -0.440057E-04  0.754061E-01
   Pulay + GGA                   :  0.981947E-12  0.435725E-04 -0.476251E+01
   Van der Waals                 :  0.000000E+00  0.000000E+00  0.000000E+00
   ----------------------------------------------------------------
   Total forces(   1)            :  0.581203E-12 -0.159803E-04  0.663239E+00
  atom #    2
   Hellmann-Feynman              : -0.395118E-01  0.227899E-01 -0.200734E+00
   Ionic forces                  :  0.000000E+00  0.000000E+00  0.000000E+00
   Multipole                     : -0.200012E-01  0.115502E-01 -0.687902E-02
   Pulay + GGA                   :  0.588484E-01 -0.339719E-01 -0.141123E-01
   Van der Waals                 :  0.000000E+00  0.000000E+00  0.000000E+00
   ----------------------------------------------------------------
   Total forces(   2)            : -0.664536E-03  0.368121E-03 -0.221725E+00
  atom #    3
   Hellmann-Feynman              :  0.395118E-01  0.227899E-01 -0.200734E+00
   Ionic forces                  :  0.000000E+00  0.000000E+00  0.000000E+00
   Multipole                     :  0.200012E-01  0.115502E-01 -0.687902E-02
   Pulay + GGA                   : -0.588484E-01 -0.339719E-01 -0.141123E-01
   Van der Waals                 :  0.000000E+00  0.000000E+00  0.000000E+00
   ----------------------------------------------------------------
   Total forces(   3)            :  0.664536E-03  0.368121E-03 -0.221725E+00
  atom #    4
   Hellmann-Feynman              : -0.121802E-11 -0.456367E-01 -0.200719E+00
   Ionic forces                  :  0.000000E+00  0.000000E+00  0.000000E+00
   Multipole                     : -0.317026E-13 -0.230983E-01 -0.687950E-02
   Pulay + GGA                   :  0.270620E-13  0.679535E-01 -0.141160E-01
   Van der Waals                 :  0.000000E+00  0.000000E+00  0.000000E+00
   ----------------------------------------------------------------
   Total forces(   4)            : -0.122266E-11 -0.781450E-03 -0.221715E+00


  Self-consistency convergence accuracy:
  | Change of charge density      :  0.6852E-07
  | Change of sum of eigenvalues  : -0.7225E-05 eV
  | Change of total energy        : -0.8430E-10 eV
  | Change of forces              :  0.2719E+01 eV/A

  Writing Kohn-Sham eigenvalues.

  State    Occupation    Eigenvalue [Ha]    Eigenvalue [eV]
      1       2.00000         -13.970989         -380.16995
      2       2.00000          -0.762921          -20.76015
      3       2.00000          -0.430160          -11.70526
      4       2.00000          -0.430160          -11.70524
      5       2.00000          -0.199867           -5.43866
      6       0.00000          -0.012035           -0.32750
      7       0.00000           0.044151            1.20141
      8       0.00000           0.044151            1.20142
      9       0.00000           0.148620            4.04416
     10       0.00000           0.148621            4.04418
     11       0.00000           0.169570            4.61424
     12       0.00000           0.175672            4.78028
     13       0.00000           0.266678            7.25667

  Highest occupied state (VBM) at     -5.43865950 eV
  | Occupation number:      2.00000000

  Lowest unoccupied state (CBM) at    -0.32749675 eV
  | Occupation number:      0.00000000

  Overall HOMO-LUMO gap:      5.11116275 eV.

  Self-consistency cycle converged.

  End self-consistency iteration #    13       :  max(cpu_time)    wall_clock(cpu1)
  | Time for this iteration                    :        1.256 s           1.258 s
  | Charge density & force component update    :        0.648 s           0.650 s
  | Density mixing                             :        0.016 s           0.017 s
  | Hartree multipole update                   :        0.016 s           0.015 s
  | Hartree multipole summation                :        0.416 s           0.417 s
  | Integration                                :        0.156 s           0.154 s
  | Solution of K.-S. eqns.                    :        0.004 s           0.001 s
  | Total energy evaluation                    :        0.004 s           0.001 s

  Partial memory accounting:
  | Current value for overall tracked memory usage on task 0  :           0.124 MB
  | Peak value for overall tracked memory usage on task 0     :           1.602 MB after allocating hessian_basis_wave
  | Largest tracked array allocation on task 0 so far         :           0.806 MB  when allocating hessian_basis_wave
  Note:  These values currently only include a subset of arrays which are explicitly tracked.
  The "true" memory usage will be greater.
------------------------------------------------------------
  Obtaining max. number of non-zero basis functions in each batch .
  Evaluating KS electron density on previously omitted grid points.
  Evaluating non-empirical van der Waals correction (Tkatchenko/Scheffler 2009).
  Performing Hirshfeld analysis of fragment charges and moments.
  ----------------------------------------------------------------------
  | Atom     1: N
  |   Hirshfeld charge        :     -0.30691370
  |   Free atom volume        :     29.90025371
  |   Hirshfeld volume        :     25.63944393
  |   Hirshfeld dipole vector :     -0.00000000      -0.00000264      -0.04227030
  |   Hirshfeld dipole moment :      0.04227030
  |   Hirshfeld second moments:      0.12222979       0.00000000       0.00000000
  |                                  0.00000000       0.12222725       0.00000016
  |                                  0.00000000       0.00000016      -0.06190752
  ----------------------------------------------------------------------
  | Atom     2: H
  |   Hirshfeld charge        :      0.10230607
  |   Free atom volume        :     10.31539447
  |   Hirshfeld volume        :      6.48757783
  |   Hirshfeld dipole vector :      0.10249298      -0.05917487      -0.01197569
  |   Hirshfeld dipole moment :      0.11895332
  |   Hirshfeld second moments:      0.11711115       0.01177038       0.00203053
  |                                  0.01177038       0.13069944      -0.00117212
  |                                  0.00203053      -0.00117212       0.06482993
  ----------------------------------------------------------------------
  | Atom     3: H
  |   Hirshfeld charge        :      0.10230607
  |   Free atom volume        :     10.31539447
  |   Hirshfeld volume        :      6.48757783
  |   Hirshfeld dipole vector :     -0.10249298      -0.05917487      -0.01197569
  |   Hirshfeld dipole moment :      0.11895332
  |   Hirshfeld second moments:      0.11711115      -0.01177038      -0.00203053
  |                                 -0.01177038       0.13069944      -0.00117212
  |                                 -0.00203053      -0.00117212       0.06482993
  ----------------------------------------------------------------------
  | Atom     4: H
  |   Hirshfeld charge        :      0.10230091
  |   Free atom volume        :     10.31539447
  |   Hirshfeld volume        :      6.48766008
  |   Hirshfeld dipole vector :      0.00000000       0.11835519      -0.01197601
  |   Hirshfeld dipole moment :      0.11895956
  |   Hirshfeld second moments:      0.13749549      -0.00000000       0.00000000
  |                                 -0.00000000       0.11030622       0.00234485
  |                                  0.00000000       0.00234485       0.06483018
  ----------------------------------------------------------------------


  Total energy components:
  | Sum of eigenvalues            :         -31.58819494 Ha        -859.55851825 eV
  | XC energy correction          :          -7.95354293 Ha        -216.42691483 eV
  | XC potential correction       :          10.22499936 Ha         278.23638901 eV
  | Free-atom electrostatic energy:         -25.07784774 Ha        -682.40295731 eV
  | Hartree energy correction     :          -2.16452795 Ha         -58.89980242 eV
  | vdW energy correction         :          -0.00000713 Ha          -0.00019389 eV
  | Entropy correction            :           0.00000000 Ha           0.00000000 eV
  | ---------------------------
  | Total energy                  :         -56.55912134 Ha       -1539.05199770 eV
  | Total energy, T -> 0          :         -56.55912134 Ha       -1539.05199770 eV  <-- do not rely on this value for anything but (periodic) metals
  | Electronic free energy        :         -56.55912134 Ha       -1539.05199770 eV

  Derived energy quantities:
  | Kinetic energy                :          56.35986619 Ha        1533.62998916 eV
  | Electrostatic energy          :        -104.96543747 Ha       -2856.25487813 eV
  | Energy correction for multipole
  | error in Hartree potential    :          -0.00143228 Ha          -0.03897419 eV
  | Sum of eigenvalues per atom                           :        -214.88962956 eV
  | Total energy (T->0) per atom                          :        -384.76299942 eV  <-- do not rely on this value for anything but (periodic) metals
  | Electronic free energy per atom                       :        -384.76299942 eV

  atomic forces [eV/Ang]:
  -----------------------
  atom #    1
   Hellmann-Feynman              : -0.482410E-12 -0.155471E-04  0.535034E+01
   Ionic forces                  :  0.000000E+00  0.000000E+00  0.000000E+00
   Multipole                     :  0.816654E-13 -0.440057E-04  0.754061E-01
   Pulay + GGA                   :  0.981947E-12  0.435725E-04 -0.476251E+01
   Van der Waals                 : -0.178034E-18  0.588000E-10  0.290746E-05
   ----------------------------------------------------------------
   Total forces(   1)            :  0.581202E-12 -0.159802E-04  0.663242E+00
  atom #    2
   Hellmann-Feynman              : -0.395118E-01  0.227899E-01 -0.200734E+00
   Ionic forces                  :  0.000000E+00  0.000000E+00  0.000000E+00
   Multipole                     : -0.200012E-01  0.115502E-01 -0.687902E-02
   Pulay + GGA                   :  0.588484E-01 -0.339719E-01 -0.141123E-01
   Van der Waals                 :  0.352475E-03 -0.203497E-03 -0.969177E-06
   ----------------------------------------------------------------
   Total forces(   2)            : -0.312062E-03  0.164624E-03 -0.221726E+00
  atom #    3
   Hellmann-Feynman              :  0.395118E-01  0.227899E-01 -0.200734E+00
   Ionic forces                  :  0.000000E+00  0.000000E+00  0.000000E+00
   Multipole                     :  0.200012E-01  0.115502E-01 -0.687902E-02
   Pulay + GGA                   : -0.588484E-01 -0.339719E-01 -0.141123E-01
   Van der Waals                 : -0.352475E-03 -0.203497E-03 -0.969177E-06
   ----------------------------------------------------------------
   Total forces(   3)            :  0.312062E-03  0.164624E-03 -0.221726E+00
  atom #    4
   Hellmann-Feynman              : -0.121802E-11 -0.456367E-01 -0.200719E+00
   Ionic forces                  :  0.000000E+00  0.000000E+00  0.000000E+00
   Multipole                     : -0.317026E-13 -0.230983E-01 -0.687950E-02
   Pulay + GGA                   :  0.270620E-13  0.679535E-01 -0.141160E-01
   Van der Waals                 :  0.152468E-15  0.406994E-03 -0.969107E-06
   ----------------------------------------------------------------
   Total forces(   4)            : -0.122251E-11 -0.374456E-03 -0.221716E+00

  Timings for VdW correction (Tkatchenko-Scheffler 2009 or later):
  | CPU time:        0.028 s, Wall clock time:        0.029 s.
  Removing unitary transformations (pure translations, rotations) from forces on atoms.
  Atomic forces before filtering:
  | Net force on center of mass :   0.483713E-12 -0.611890E-04 -0.192610E-02 eV/A
  | Net torque on center of mass:   0.925565E-05  0.373799E-13  0.165543E-13 eV
  Atomic forces after filtering:
  | Net force on center of mass :  -0.349886E-19  0.000000E+00  0.000000E+00 eV/A
  | Net torque on center of mass:   0.581035E-16 -0.285412E-16  0.220050E-19 eV

  Energy and forces in a compact form:
  | Total energy uncorrected      :         -0.153905199769976E+04 eV
  | Total energy corrected        :         -0.153905199769976E+04 eV  <-- do not rely on this value for anything but (periodic) metals
  | Electronic free energy        :         -0.153905199769976E+04 eV
  Total atomic forces (unitary forces cleaned) [eV/Ang]:
  |   1          0.457875196917671E-12         -0.886799879011643E-07          0.663723367184086E+00
  |   2         -0.312061813049195E-03          0.179722965264613E-03         -0.221241422666424E+00
  |   3          0.312061813928423E-03          0.179722967316186E-03         -0.221241422666544E+00
  |   4         -0.133710253901816E-11         -0.359357252592898E-03         -0.221240521851119E+00

  ------------------------------------ 
  Start decomposition of the XC Energy 
  ------------------------------------ 
  X and C from original XC functional choice 
  Hartree-Fock Energy :          0.000000000 Ha              0.000000000 eV
  X Energy            :         -7.639528158 Ha           -207.882138100 eV
  C Energy            :         -0.314014773 Ha             -8.544776731 eV
  Total XC Energy     :         -7.953542931 Ha           -216.426914831 eV
  ------------------------------------ 
  LDA X and C from self-consistent density 
  X Energy LDA        :         -6.919017426 Ha           -188.276043528 eV
  C Energy LDA        :         -0.623346555 Ha            -16.962122774 eV
  ------------------------------------ 
  End decomposition of the XC Energy 
  ------------------------------------ 

------------------------------------------------------------

------------------------------------------------------------------------------
  Final output of selected total energy values:

  The following output summarizes some interesting total energy values
  at the end of a run (AFTER all relaxation, molecular dynamics, etc.).

  | Total energy of the DFT / Hartree-Fock s.c.f. calculation      :          -1539.051997700 eV
  | Final zero-broadening corrected energy (caution - metals only) :          -1539.051997700 eV
  | For reference only, the value of 1 Hartree used in FHI-aims is :             27.211384500 eV

  Before relying on these values, please be sure to understand exactly which
  total energy value is referred to by a given number. Different objects may
  all carry the same name 'total energy'. Definitions:

  Total energy of the DFT / Hartree-Fock s.c.f. calculation:
  | Note that this energy does not include ANY quantities calculated after the
  | s.c.f. cycle, in particular not ANY RPA, MP2, etc. many-body perturbation terms.

  Final zero-broadening corrected energy:
  | For metallic systems only, a broadening of the occupation numbers at the Fermi
  | level can be extrapolated back to zero broadening by an electron-gas inspired
  | formula. For all systems that are not real metals, this value can be
  | meaningless and should be avoided.

------------------------------------------------------------------------------
  Methods described in the following list of references were used in this FHI-aims run.
  If you publish the results, please make sure to cite these reference if they apply.
  FHI-aims is an academic code, and for our developers (often, Ph.D. students
  and postdocs), scientific credit in the community is essential.
  Thank you for helping us!

  For any use of FHI-aims, please cite:

    Volker Blum, Ralf Gehrke, Felix Hanke, Paula Havu, Ville Havu,
    Xinguo Ren, Karsten Reuter, and Matthias Scheffler
    'Ab initio molecular simulations with numeric atom-centered orbitals'
    Computer Physics Communications 180, 2175-2196 (2009)
    http://dx.doi.org/10.1016/j.cpc.2009.06.022


  For the real-space grid partitioning and parallelization used in this calculation, please cite:

    Ville Havu, Volker Blum, Paula Havu, and Matthias Scheffler,
    'Efficient O(N) integration for all-electron electronic structure calculation'
    'using numerically tabulated basis functions'
    Journal of Computational Physics 228, 8367-8379 (2009).
    http://dx.doi.org/10.1016/j.jcp.2009.08.008

  Of course, there are many other important community references, e.g., those cited in the
  above references. Our list is limited to references that describe implementations in the
  FHI-aims code. The reason is purely practical (length of this list) - please credit others as well.

------------------------------------------------------------
          Leaving FHI-aims.
          Date     :  20180214, Time     :  152442.218

          Computational steps:
          | Number of self-consistency cycles          :           13
          | Number of SCF (re)initializations          :            1

          Detailed time accounting                     :  max(cpu_time)    wall_clock(cpu1)
          | Total time                                 :        7.180 s           7.253 s
          | Preparation time                           :        0.232 s           0.248 s
          | Boundary condition initalization           :        0.000 s           0.000 s
          | Grid partitioning                          :        0.072 s           0.070 s
          | Preloading free-atom quantities on grid    :        0.020 s           0.020 s
          | Free-atom superposition energy             :        0.016 s           0.016 s
          | Total time for integrations                :        2.300 s           2.287 s
          | Total time for solution of K.-S. equations :        0.060 s           0.034 s
          | Total time for density & force components  :        2.268 s           2.247 s
          | Total time for mixing                      :        0.160 s           0.155 s
          | Total time for Hartree multipole update    :        0.220 s           0.207 s
          | Total time for Hartree multipole sum       :        1.844 s           1.843 s
          | Total time for total energy evaluation     :        0.016 s           0.008 s
          | Total time for scaled ZORA corrections     :        0.000 s           0.000 s
          | Total time for vdW correction              :        0.028 s           0.029 s

          Partial memory accounting:
          | Residual value for overall tracked memory usage across tasks :           0.000 MB (should be 0.000 MB)
          | Peak values for overall tracked memory usage (after allocating hessian_basis_wave):
          |   Minimum:        1.602 MB (on task 1)
          |   Maximum:        1.602 MB (on task 1)
          |   Average:        1.602 MB
          | Largest tracked array allocation (hessian_basis_wave):
          |   Minimum:        0.806 MB (on task 1)
          |   Maximum:        0.806 MB (on task 1)
          |   Average:        0.806 MB
          Note:  These values currently only include a subset of arrays which are explicitly tracked.
          The "true" memory usage will be greater.

          Have a nice day.
------------------------------------------------------------
