  MPI-parallelism will be employed.
------------------------------------------------------------
          Invoking FHI-aims ...
          Version 180101-
          Git rev. (modified): fa29f3a Merge branch master of fhiaims.rzberlin.mp[...]
          Compiled on 2018/01/19 at 14:47:46 on host theobook132.

          When using FHI-aims, please cite the following reference:

          Volker Blum, Ralf Gehrke, Felix Hanke, Paula Havu,
          Ville Havu, Xinguo Ren, Karsten Reuter, and Matthias Scheffler,
          'Ab Initio Molecular Simulations with Numeric Atom-Centered Orbitals',
          Computer Physics Communications 180, 2175-2196 (2009)

          For any questions about FHI-aims, please visit the aimsclub website
          with its forums and wiki. Contributions to both the forums and the
          wiki are warmly encouraged - they are for you, and everyone is welcome there.

------------------------------------------------------------



  Date     :  20180216, Time     :  134653.315
  Time zero on CPU 1             :   0.440000000000000E-01  s.
  Internal wall clock time zero  :           288020813.315  s.

  FHI-aims created a unique identifier for this run for later identification
  aims_uuid : ED4CDD9F-6621-4C81-A260-825918FAC755

  Using        8 parallel tasks.
  Task        0 on host theobook132 reporting.
  Task        1 on host theobook132 reporting.
  Task        2 on host theobook132 reporting.
  Task        3 on host theobook132 reporting.
  Task        4 on host theobook132 reporting.
  Task        5 on host theobook132 reporting.
  Task        6 on host theobook132 reporting.
  Task        7 on host theobook132 reporting.

  Performing system and environment tests:
  *** Environment variable OMP_NUM_THREADS is not set
  *** For performance reasons you might want to set it to 1
  | Stacksize not measured: no C compiler
  | Checking for scalapack...
  | No scalapack compiled in.

  Obtaining array dimensions for all initial allocations:
  
  -----------------------------------------------------------------------
  Parsing control.in (first pass over file, find array dimensions only).
  The contents of control.in will be repeated verbatim below
  unless switched off by setting 'verbatim_writeout .false.' .
  in the first line of control.in .
  -----------------------------------------------------------------------
  
  #########################################################################################
  #
  #  Volker Blum, FHI 2008 : Test run input file control.in for simple H2O
  #
  #########################################################################################
  #
  #  Physical model
  #
    xc                 pbe
    vdw_correction_hirshfeld
    spin               none
    relativistic       none
    charge             0.0
  #
  #  SCF convergence
  #
    occupation_type    gaussian 0.01
    mixer              pulay
      n_max_pulay        10
      charge_mix_param   0.5
    sc_accuracy_rho    1E-5
    sc_accuracy_eev    1E-3
    sc_accuracy_etot   1E-6
    sc_iter_limit      60
  #
  #  Eigenvalue solution
  #
   # KS_method	     scalapack_fast
   #   empty_states       3
   #   basis_threshold    1.e-5
  #
  #  Efficiency
  #
  #   communication_type shmem
  #
  #  Relaxation
  #
  #
   # init_hess          Lindh
  # create a better hesse matrix by lindhh-script.
  #  relax_geometry     trm 5.e-3
  # relax_geometry     trm 1.e-2
  #
  #  relax_geometry   bfgs 1.e-2
  #
  # Check below which parameters used!
  compute_forces .true.
  final_forces_cleaned .true.
  ################################################################################
  #
  #  FHI-aims code project
  #  VB, Fritz-Haber Institut, 2009
  #
  #  Suggested "light" defaults for H atom (to be pasted into control.in file)
  #  Be sure to double-check any results obtained with these settings for post-processing,
  #  e.g., with the "tight" defaults and larger basis sets.
  #
  ################################################################################
    species        H
  #     global species definitions
      nucleus             1
      mass                1.00794
  #
      l_hartree           4
  #
      cut_pot             3.5  1.5  1.0
      basis_dep_cutoff    1e-4
  #
      radial_base         24 5.0
      radial_multiplier   1
      angular_grids       specified
        division   0.2421   50
        division   0.3822  110
        division   0.4799  194
        division   0.5341  302
  #      division   0.5626  434
  #      division   0.5922  590
  #      division   0.6542  770
  #      division   0.6868 1202
  #      outer_grid  770
        outer_grid  302
  ################################################################################
  #
  #  Definition of "minimal" basis
  #
  ################################################################################
  #     valence basis states
      valence      1  s   1.
  #     ion occupancy
      ion_occ      1  s   0.5
  ################################################################################
  #
  #  Suggested additional basis functions. For production calculations,
  #  uncomment them one after another (the most important basis functions are
  #  listed first).
  #
  #  Basis constructed for dimers: 0.5 A, 0.7 A, 1.0 A, 1.5 A, 2.5 A
  #
  ################################################################################
  #  "First tier" - improvements: -1014.90 meV to -62.69 meV
       hydro 2 s 2.1
       hydro 2 p 3.5
  #  "Second tier" - improvements: -12.89 meV to -1.83 meV
  #     hydro 1 s 0.85
  #     hydro 2 p 3.7
  #     hydro 2 s 1.2
  #     hydro 3 d 7
  #  "Third tier" - improvements: -0.25 meV to -0.12 meV
  #     hydro 4 f 11.2
  #     hydro 3 p 4.8
  #     hydro 4 d 9
  #     hydro 3 s 3.2
  ################################################################################
  #
  #  FHI-aims code project
  #  VB, Fritz-Haber Institut, 2009
  #
  #  Suggested "light" defaults for C atom (to be pasted into control.in file)
  #  Be sure to double-check any results obtained with these settings for post-processing,
  #  e.g., with the "tight" defaults and larger basis sets.
  #
  ################################################################################
    species        C
  #     global species definitions
      nucleus             6
      mass                12.0107
  #
      l_hartree           4
  #
      cut_pot             3.5  1.5  1.0
      basis_dep_cutoff    1e-4
  #
      radial_base         34 5.0
      radial_multiplier   1
      angular_grids specified
        division   0.3326   50
        division   0.5710  110
        division   0.7727  194
        division   0.8772  302
  #      division   0.9334  434
  #      division   0.9625  590
  #      division   0.9924  770
  #      division   1.0230  974
  #      division   1.4589 1202
  #     outer_grid  974
       outer_grid 302
  ################################################################################
  #
  #  Definition of "minimal" basis
  #
  ################################################################################
  #     valence basis states
      valence      2  s   2.
      valence      2  p   2.
  #     ion occupancy
      ion_occ      2  s   1.
      ion_occ      2  p   1.
  ################################################################################
  #
  #  Suggested additional basis functions. For production calculations,
  #  uncomment them one after another (the most important basis functions are
  #  listed first).
  #
  #  Constructed for dimers: 1.0 A, 1.25 A, 1.5 A, 2.0 A, 3.0 A
  #
  ################################################################################
  #  "First tier" - improvements: -1214.57 meV to -155.61 meV
       hydro 2 p 1.7
       hydro 3 d 6
       hydro 2 s 4.9
  #  "Second tier" - improvements: -67.75 meV to -5.23 meV
  #     hydro 4 f 9.8
  #     hydro 3 p 5.2
  #     hydro 3 s 4.3
  #     hydro 5 g 14.4
  #     hydro 3 d 6.2
  #  "Third tier" - improvements: -2.43 meV to -0.60 meV
  #     hydro 2 p 5.6
  #     hydro 2 s 1.4
  #     hydro 3 d 4.9
  #     hydro 4 f 11.2
  #  "Fourth tier" - improvements: -0.39 meV to -0.18 meV
  #     hydro 2 p 2.1
  #     hydro 5 g 16.4
  #     hydro 4 d 13.2
  #     hydro 3 s 13.6
  #     hydro 4 f 17.6
  #  Further basis functions - improvements: -0.08 meV and below
  #     hydro 3 s 2
  #     hydro 3 p 6
  #     hydro 4 d 20
  ################################################################################
  #
  #  FHI-aims code project
  #  VB, Fritz-Haber Institut, 2009
  #
  #  Suggested "light" defaults for N atom (to be pasted into control.in file)
  #  Be sure to double-check any results obtained with these settings for post-processing,
  #  e.g., with the "tight" defaults and larger basis sets.
  #
  ################################################################################
    species        N
  #     global species definitions
      nucleus             7
      mass                14.0067
  #
      l_hartree           4
  #
      cut_pot             3.5  1.5  1.0
      basis_dep_cutoff    1e-4
  #
      radial_base         35 5.0
      radial_multiplier   1
      angular_grids       specified
        division   0.2599   50
        division   0.4601  110
        division   0.5885  194
        division   0.6503  302
  #      division   0.6939  434
  #      division   0.7396  590
  #      division   0.7632  770
  #      division   0.8122  974
  #      division   1.1604 1202
  #      outer_grid  974
        outer_grid  302
  ################################################################################
  #
  #  Definition of "minimal" basis
  #
  ################################################################################
  #     valence basis states
      valence      2  s   2.
      valence      2  p   3.
  #     ion occupancy
      ion_occ      2  s   1.
      ion_occ      2  p   2.
  ################################################################################
  #
  #  Suggested additional basis functions. For production calculations,
  #  uncomment them one after another (the most important basis functions are
  #  listed first).
  #
  #  Constructed for dimers: 1.0 A, 1.1 A, 1.5 A, 2.0 A, 3.0 A
  #
  ################################################################################
  #  "First tier" - improvements: -1193.42 meV to -220.60 meV
       hydro 2 p 1.8
       hydro 3 d 6.8
       hydro 3 s 5.8
  #  "Second tier" - improvements: -80.21 meV to -6.86 meV
  #     hydro 4 f 10.8
  #     hydro 3 p 5.8
  #     hydro 1 s 0.8
  #     hydro 5 g 16
  #     hydro 3 d 4.9
  #  "Third tier" - improvements: -4.29 meV to -0.53 meV
  #     hydro 3 s 16
  #     ionic 2 p auto
  #     hydro 3 d 6.6
  #     hydro 4 f 11.6
  #  "Fourth tier" - improvements: -0.75 meV to -0.25 meV
  #     hydro 2 p 4.5
  #     hydro 2 s 2.4
  #     hydro 5 g 14.4
  #     hydro 4 d 14.4
  #     hydro 4 f 16.8
  # Further basis functions - -0.21 meV and below
  #     hydro 3 p 14.8
  #     hydro 3 s 4.4
  #     hydro 3 d 19.6
  #     hydro 5 g 12.8
  ################################################################################
  #
  #  FHI-aims code project
  #  VB, Fritz-Haber Institut, 2009
  #
  #  Suggested "light" defaults for O atom (to be pasted into control.in file)
  #  Be sure to double-check any results obtained with these settings for post-processing,
  #  e.g., with the "tight" defaults and larger basis sets.
  #
  ################################################################################
    species        O
  #     global species definitions
      nucleus             8
      mass                15.9994
  #
      l_hartree           4
  #
      cut_pot             3.5  1.5  1.0
      basis_dep_cutoff    1e-4
  #
      radial_base         36 5.0
      radial_multiplier   1
       angular_grids specified
        division   0.2659   50
        division   0.4451  110
        division   0.6052  194
        division   0.7543  302
  #      division   0.8014  434
  #      division   0.8507  590
  #      division   0.8762  770
  #      division   0.9023  974
  #      division   1.2339 1202
  #      outer_grid 974
        outer_grid 302
  ################################################################################
  #
  #  Definition of "minimal" basis
  #
  ################################################################################
  #     valence basis states
      valence      2  s   2.
      valence      2  p   4.
  #     ion occupancy
      ion_occ      2  s   1.
      ion_occ      2  p   3.
  ################################################################################
  #
  #  Suggested additional basis functions. For production calculations,
  #  uncomment them one after another (the most important basis functions are
  #  listed first).
  #
  #  Constructed for dimers: 1.0 A, 1.208 A, 1.5 A, 2.0 A, 3.0 A
  #
  ################################################################################
  #  "First tier" - improvements: -699.05 meV to -159.38 meV
       hydro 2 p 1.8
       hydro 3 d 7.6
       hydro 3 s 6.4
  #  "Second tier" - improvements: -49.91 meV to -5.39 meV
  #     hydro 4 f 11.6
  #     hydro 3 p 6.2
  #     hydro 3 d 5.6
  #     hydro 5 g 17.6
  #     hydro 1 s 0.75
  #  "Third tier" - improvements: -2.83 meV to -0.50 meV
  #     ionic 2 p auto
  #     hydro 4 f 10.8
  #     hydro 4 d 4.7
  #     hydro 2 s 6.8
  #  "Fourth tier" - improvements: -0.40 meV to -0.12 meV
  #     hydro 3 p 5
  #     hydro 3 s 3.3
  #     hydro 5 g 15.6
  #     hydro 4 f 17.6
  #     hydro 4 d 14
  # Further basis functions - -0.08 meV and below
  #     hydro 3 s 2.1
  #     hydro 4 d 11.6
  #     hydro 3 p 16
  #     hydro 2 s 17.2
  ################################################################################
  #
  #  FHI-aims code project
  #  VB, Fritz-Haber Institut, 2009
  #
  #  Suggested "light" defaults for Na atom (to be pasted into control.in file)
  #  Be sure to double-check any results obtained with these settings for post-processing,
  #  e.g., with the "tight" defaults and larger basis sets.
  #
  ################################################################################
    species        Na
  #     global species definitions
      nucleus             11
      mass                22.98976928
  #
      l_hartree           4
  #
      cut_pot             4.0          1.5  1.0
      basis_dep_cutoff    1e-4
  #
      radial_base         40 5.5
      radial_multiplier   1
      angular_grids       specified
        division   0.5925  110
        division   0.7843  194
        division   1.0201  302
  #      division   1.1879  434
  #      division   1.3799  590
  #      division   1.4503  770
  #      division   7.0005  974
  #      outer_grid  974
        outer_grid  302
  ################################################################################
  #
  #  Definition of "minimal" basis
  #
  ################################################################################
  #     valence basis states
      valence      3  s   1.
      valence      2  p   6.
  #     ion occupancy
      ion_occ      2  s   2.
      ion_occ      2  p   6.
  ################################################################################
  #
  #  Suggested additional basis functions. For production calculations,
  #  uncomment them one after another (the most important basis functions are
  #  listed first).
  #
  #  Constructed for dimers: 2.0 A, 2.5 A, 3.0 A, 3.75 A, 4.5 A
  #
  ################################################################################
  #  "First tier" - improvements: -60.09 meV to -10.02 meV
       hydro 2 p 1.2
       hydro 3 s 1.8
       hydro 3 d 3.8
  #  "Second tier" - improvements: -2.94 meV to -1.27 meV
  #     hydro 4 p 3.1
  #     hydro 3 s 10
  #     hydro 4 f 6.2
  #     hydro 4 d 1.3
  #  "Third tier" - improvements: -0.83 meV to -0.07 meV
  #     hydro 3 d 7.8
  #     hydro 3 p 2.3
  #     hydro 5 g 9.6
  #     hydro 4 p 0.85
  #     hydro 5 f 1.8
  #     hydro 2 s 0.6
  #  Further basis functions that fell out of the optimization - noise level...
  #     hydro 5 g 0.1
  #     hydro 4 d 3.4
  #     hydro 4 s 0.1
  
  
  -----------------------------------------------------------------------
  Completed first pass over input file control.in .
  -----------------------------------------------------------------------
  
  
  -----------------------------------------------------------------------
  Parsing geometry.in (first pass over file, find array dimensions only).
  The contents of geometry.in will be repeated verbatim below
  unless switched off by setting 'verbatim_writeout .false.' .
  in the first line of geometry.in .
  -----------------------------------------------------------------------
  
  #=======================================#
  # iterations/iteration0077/aims-chain-node-0.90909/geometry.in
  #=======================================#
  atom -1.7824675564483250 -3.4157558743636467 -0.6053016602084063 C
  atom -0.7851032641416273 -2.3577780555996561 -0.1702477359684360 C
  atom -0.0692159091643734 -2.5221782503453798 0.8300547184654691 O
  atom -2.3545619649356615 -3.7302733052826014 0.2762644280752491 H
  atom -2.4781618500705629 -3.0787597059318141 -1.3841106918329258 H
  atom -1.2352001201341867 -4.2946048982742591 -0.9726373387684200 H
  atom -0.7293454343166732 -1.2427189572091670 -0.9551953680458850 N
  atom 0.0547515413699819 -0.0167392712480698 -0.7050816598008297 C
  atom -0.2839034143460531 0.6348342514541523 0.6434959664438459 C
  atom 1.5888667507340299 -0.1602725657384231 -0.9024268941828067 C
  atom 2.1761059171888317 0.6065520060366194 -1.6720065475190289 O
  atom -1.3138687082737726 -1.2343153677028098 -1.7846009239527481 H
  atom -0.2326486771205805 0.6720907340130047 -1.5097581713989734 H
  atom -1.3558660811410446 0.8709746182665523 0.6927825928798044 H
  atom -0.0324637990436188 -0.0231769020297221 1.4837391910920725 H
  atom 0.2845737835034219 1.5688057165888893 0.7451947638192361 H
  atom 2.1911508319255040 -1.1101710270920171 -0.1406244567361366 N
  atom 3.6274136908168644 -1.3242643405365773 -0.1647023568541721 C
  atom 1.5808584704281583 -1.7069045345486908 0.4336157574335130 H
  atom 4.0522413404682336 -1.2310370307002354 0.8455098856844685 H
  atom 3.8790801831193775 -2.3187671757998181 -0.5631448845307956 H
  atom 4.0714661637679095 -0.5593644397999131 -0.8121968451900695 H
  
  -----------------------------------------------------------------------
  Completed first pass over input file geometry.in .
  -----------------------------------------------------------------------
  

  Basic array size parameters:
  | Number of species                 :        5
  | Number of atoms                   :       22
  | Max. basis fn. angular momentum   :        2
  | Max. atomic/ionic basis occupied n:        3
  | Max. number of basis fn. types    :        2
  | Max. radial fns per species/type  :        4
  | Max. logarithmic grid size        :     1327
  | Max. radial integration grid size :       40
  | Max. angular integration grid size:      302
  | Max. angular grid division number :        8
  | Radial grid for Hartree potential :     1327
  | Number of spin channels           :        1

------------------------------------------------------------
          Reading file control.in.
------------------------------------------------------------
  XC: Using PBE gradient-corrected functionals.
  Spin treatment: No spin polarisation.
  Non-relativistic treatment of kinetic energy.
  Charge =   0.000000E+00: Neutral system requested explicitly.
  Occupation type: Gaussian broadening, width =   0.100000E-01 eV.
  Using pulay charge density mixing.
  Pulay mixing - number of memorized iterations:   10
  Charge density mixing - mixing parameter:     0.5000
  Convergence accuracy of self-consistent charge density:  0.1000E-04
  Convergence accuracy of sum of eigenvalues:  0.1000E-02
  Convergence accuracy of total energy:  0.1000E-05
  Maximum number of s.-c. iterations  :    60
  Forces will be computed.
  Cleaning forces before final output.
 
  Reading configuration options for species H                   .
  | Found nuclear charge :   1.0000
  | Found atomic mass :    1.00794000000000      amu
  | Found l_max for Hartree potential  :   4
  | Found cutoff potl. onset [A], width [A], scale factor :    3.50000    1.50000    1.00000
  | Threshold for basis-dependent cutoff potential is   0.100000E-03
  | Found data for basic radial integration grid :    24 points, outermost radius =    5.000 A
  | Found multiplier for basic radial grid :   1
  | Found angular grid specification: user-specified.
  | Specified grid contains     5 separate shells.
  | Check grid settings after all constraints further below.
  | Found free-atom valence shell :  1 s   1.000
  | No ionic wave fns used. Skipping ion_occ.
  | Found hydrogenic basis function :  2 s   2.100
  | Found hydrogenic basis function :  2 p   3.500
  Species H                   : Missing cutoff potential type.
  Defaulting to exp(1/x)/(1-x)^2 type cutoff potential.
  Species H : No 'logarithmic' tag. Using default grid for free atom:
  | Default logarithmic grid data [bohr] : 0.1000E-03 0.1000E+03 0.1012E+01
  Species H : On-site basis accuracy parameter (for Gram-Schmidt orthonormalisation) not specified.
  Using default value basis_acc =  0.1000000E-03.
  Species H                   : Using default innermost maximum threshold i_radial=  2 for radial functions.
  Species H                   : Default cutoff onset for free atom density etc. : 0.35000000E+01 AA.
  Species H                   : Basic radial grid will be enhanced according to radial_multiplier =   1, to contain    24 grid points.
 
  Reading configuration options for species C                   .
  | Found nuclear charge :   6.0000
  | Found atomic mass :    12.0107000000000      amu
  | Found l_max for Hartree potential  :   4
  | Found cutoff potl. onset [A], width [A], scale factor :    3.50000    1.50000    1.00000
  | Threshold for basis-dependent cutoff potential is   0.100000E-03
  | Found data for basic radial integration grid :    34 points, outermost radius =    5.000 A
  | Found multiplier for basic radial grid :   1
  | Found angular grid specification: user-specified.
  | Specified grid contains     5 separate shells.
  | Check grid settings after all constraints further below.
  | Found free-atom valence shell :  2 s   2.000
  | Found free-atom valence shell :  2 p   2.000
  | No ionic wave fns used. Skipping ion_occ.
  | No ionic wave fns used. Skipping ion_occ.
  | Found hydrogenic basis function :  2 p   1.700
  | Found hydrogenic basis function :  3 d   6.000
  | Found hydrogenic basis function :  2 s   4.900
  Species C                   : Missing cutoff potential type.
  Defaulting to exp(1/x)/(1-x)^2 type cutoff potential.
  Species C : No 'logarithmic' tag. Using default grid for free atom:
  | Default logarithmic grid data [bohr] : 0.1000E-03 0.1000E+03 0.1012E+01
  Species C : On-site basis accuracy parameter (for Gram-Schmidt orthonormalisation) not specified.
  Using default value basis_acc =  0.1000000E-03.
  Species C                   : Using default innermost maximum threshold i_radial=  2 for radial functions.
  Species C                   : Default cutoff onset for free atom density etc. : 0.35000000E+01 AA.
  Species C                   : Basic radial grid will be enhanced according to radial_multiplier =   1, to contain    34 grid points.
 
  Reading configuration options for species N                   .
  | Found nuclear charge :   7.0000
  | Found atomic mass :    14.0067000000000      amu
  | Found l_max for Hartree potential  :   4
  | Found cutoff potl. onset [A], width [A], scale factor :    3.50000    1.50000    1.00000
  | Threshold for basis-dependent cutoff potential is   0.100000E-03
  | Found data for basic radial integration grid :    35 points, outermost radius =    5.000 A
  | Found multiplier for basic radial grid :   1
  | Found angular grid specification: user-specified.
  | Specified grid contains     5 separate shells.
  | Check grid settings after all constraints further below.
  | Found free-atom valence shell :  2 s   2.000
  | Found free-atom valence shell :  2 p   3.000
  | No ionic wave fns used. Skipping ion_occ.
  | No ionic wave fns used. Skipping ion_occ.
  | Found hydrogenic basis function :  2 p   1.800
  | Found hydrogenic basis function :  3 d   6.800
  | Found hydrogenic basis function :  3 s   5.800
  Species N                   : Missing cutoff potential type.
  Defaulting to exp(1/x)/(1-x)^2 type cutoff potential.
  Species N : No 'logarithmic' tag. Using default grid for free atom:
  | Default logarithmic grid data [bohr] : 0.1000E-03 0.1000E+03 0.1012E+01
  Species N : On-site basis accuracy parameter (for Gram-Schmidt orthonormalisation) not specified.
  Using default value basis_acc =  0.1000000E-03.
  Species N                   : Using default innermost maximum threshold i_radial=  2 for radial functions.
  Species N                   : Default cutoff onset for free atom density etc. : 0.35000000E+01 AA.
  Species N                   : Basic radial grid will be enhanced according to radial_multiplier =   1, to contain    35 grid points.
 
  Reading configuration options for species O                   .
  | Found nuclear charge :   8.0000
  | Found atomic mass :    15.9994000000000      amu
  | Found l_max for Hartree potential  :   4
  | Found cutoff potl. onset [A], width [A], scale factor :    3.50000    1.50000    1.00000
  | Threshold for basis-dependent cutoff potential is   0.100000E-03
  | Found data for basic radial integration grid :    36 points, outermost radius =    5.000 A
  | Found multiplier for basic radial grid :   1
  | Found angular grid specification: user-specified.
  | Specified grid contains     5 separate shells.
  | Check grid settings after all constraints further below.
  | Found free-atom valence shell :  2 s   2.000
  | Found free-atom valence shell :  2 p   4.000
  | No ionic wave fns used. Skipping ion_occ.
  | No ionic wave fns used. Skipping ion_occ.
  | Found hydrogenic basis function :  2 p   1.800
  | Found hydrogenic basis function :  3 d   7.600
  | Found hydrogenic basis function :  3 s   6.400
  Species O                   : Missing cutoff potential type.
  Defaulting to exp(1/x)/(1-x)^2 type cutoff potential.
  Species O : No 'logarithmic' tag. Using default grid for free atom:
  | Default logarithmic grid data [bohr] : 0.1000E-03 0.1000E+03 0.1012E+01
  Species O : On-site basis accuracy parameter (for Gram-Schmidt orthonormalisation) not specified.
  Using default value basis_acc =  0.1000000E-03.
  Species O                   : Using default innermost maximum threshold i_radial=  2 for radial functions.
  Species O                   : Default cutoff onset for free atom density etc. : 0.35000000E+01 AA.
  Species O                   : Basic radial grid will be enhanced according to radial_multiplier =   1, to contain    36 grid points.
 
  Reading configuration options for species Na                  .
  | Found nuclear charge :  11.0000
  | Found atomic mass :    22.9897692800000      amu
  | Found l_max for Hartree potential  :   4
  | Found cutoff potl. onset [A], width [A], scale factor :    4.00000    1.50000    1.00000
  | Threshold for basis-dependent cutoff potential is   0.100000E-03
  | Found data for basic radial integration grid :    40 points, outermost radius =    5.500 A
  | Found multiplier for basic radial grid :   1
  | Found angular grid specification: user-specified.
  | Specified grid contains     4 separate shells.
  | Check grid settings after all constraints further below.
  | Found free-atom valence shell :  3 s   1.000
  | Found free-atom valence shell :  2 p   6.000
  | No ionic wave fns used. Skipping ion_occ.
  | No ionic wave fns used. Skipping ion_occ.
  | Found hydrogenic basis function :  2 p   1.200
  | Found hydrogenic basis function :  3 s   1.800
  | Found hydrogenic basis function :  3 d   3.800
  Species Na                  : Missing cutoff potential type.
  Defaulting to exp(1/x)/(1-x)^2 type cutoff potential.
  Species Na: No 'logarithmic' tag. Using default grid for free atom:
  | Default logarithmic grid data [bohr] : 0.1000E-03 0.1000E+03 0.1012E+01
  Species Na: On-site basis accuracy parameter (for Gram-Schmidt orthonormalisation) not specified.
  Using default value basis_acc =  0.1000000E-03.
  Species Na                  : Using default innermost maximum threshold i_radial=  2 for radial functions.
  Species Na                  : Default cutoff onset for free atom density etc. : 0.40000000E+01 AA.
  Species Na                  : Basic radial grid will be enhanced according to radial_multiplier =   1, to contain    40 grid points.
 
  Finished reading input file 'control.in'. Consistency checks are next.
 
  MPI_IN_PLACE appears to work with this MPI implementation.
  | Keeping use_mpi_in_place .true. (see manual).
  Target number of points in a grid batch is not set. Defaulting to  100
  Method for grid partitioning is not set. Defaulting to parallel hash+maxmin partitioning.
  Batch size limit is not set. Defaulting to    200
  By default, will store active basis functions for each batch.
  If in need of memory, prune_basis_once .false. can be used to disable this option.
  communication_type for Hartree potential was not specified.
  Defaulting to calc_hartree .
  Pulay mixer: Number of initial linear mixing iterations not set.
  Defaulting to    0 iterations.
  Work space size for distributed Hartree potential not set.
  Defaulting to   0.200000E+03 MB.
  Algorithm-dependent basis array size parameters:
  | n_max_pulay                         :       10
  Presetting        40 iterations before the initial mixing cycle
  is restarted anyway using the sc_init_iter criterion / keyword.
  Presetting a factor      1.000 between actual scf density residual
  and density convergence criterion sc_accuracy_rho below which sc_init_iter
  takes no effect.
  Geometry relaxation not requested: no relaxation will be performed.
  Force calculation: scf convergence accuracy of forces not set.
  Defaulting to 'sc_accuracy_forces not_checked'.
  Handling of forces: Unphysical translation and rotation will be removed from forces.
  No accuracy limit for integral partition fn. given. Defaulting to  0.1000E-14.
  No threshold value for u(r) in integrations given. Defaulting to  0.1000E-05.
  No accuracy for occupation numbers given. Defaulting to  0.1000E-12.
  No threshold value for occupation numbers given. Defaulting to  0.0000E+00.
  No accuracy for fermi level given. Defaulting to  0.1000E-19.
  Maximum # of iterations to find E_F not set. Defaulting to  200.
  Preferred method for the eigenvalue solver ('KS_method') not specified in 'control.in'.
  Calling BLACS routine to test compilation state
  The best choice would be 'elsi', but your version of FHI-aims is compiled without ScaLAPACK support.
  Defaulting to 'lapack_fast' instead (serial solution, time will not improve with more CPUs).
  Will not use alltoall communication since running on < 1024 CPUs.
  Threshold for basis singularities not set.
  Default threshold for basis singularities:  0.1000E-04
  partition_type (choice of integration weights) for integrals was not specified.
  | Using a version of the partition function of Stratmann and coworkers ('stratmann_smoother').
  | At each grid point, the set of atoms used to build the partition table is smoothly restricted to
  | only those atoms whose free-atom density would be non-zero at that grid point.
  Partitioning for Hartree potential was not defined. Using partition_type for integrals.
  | Adjusted default value of keyword multip_moments_threshold to:       0.10000000E-11
  | This value may affect high angular momentum components of the Hartree potential in periodic systems.
  No q(lm)/r^(l+1) cutoff set for long-range Hartree potential.
  | Using default value of  0.100000E-09 .
  | Verify using the multipole_threshold keyword.
  Defaulting to new monopole extrapolation.
  Density update method: automatic selection selected.
------------------------------------------------------------


------------------------------------------------------------
          Reading geometry description geometry.in.
------------------------------------------------------------
  Input structure read successfully.
  The structure contains       22 atoms,  and a total of         78.000 electrons.

  Input geometry:
  | No unit cell requested.
  | Atomic structure:
  |       Atom                x [A]            y [A]            z [A]
  |    1: Species C            -1.78246756       -3.41575587       -0.60530166
  |    2: Species C            -0.78510326       -2.35777806       -0.17024774
  |    3: Species O            -0.06921591       -2.52217825        0.83005472
  |    4: Species H            -2.35456196       -3.73027331        0.27626443
  |    5: Species H            -2.47816185       -3.07875971       -1.38411069
  |    6: Species H            -1.23520012       -4.29460490       -0.97263734
  |    7: Species N            -0.72934543       -1.24271896       -0.95519537
  |    8: Species C             0.05475154       -0.01673927       -0.70508166
  |    9: Species C            -0.28390341        0.63483425        0.64349597
  |   10: Species C             1.58886675       -0.16027257       -0.90242689
  |   11: Species O             2.17610592        0.60655201       -1.67200655
  |   12: Species H            -1.31386871       -1.23431537       -1.78460092
  |   13: Species H            -0.23264868        0.67209073       -1.50975817
  |   14: Species H            -1.35586608        0.87097462        0.69278259
  |   15: Species H            -0.03246380       -0.02317690        1.48373919
  |   16: Species H             0.28457378        1.56880572        0.74519476
  |   17: Species N             2.19115083       -1.11017103       -0.14062446
  |   18: Species C             3.62741369       -1.32426434       -0.16470236
  |   19: Species H             1.58085847       -1.70690453        0.43361576
  |   20: Species H             4.05224134       -1.23103703        0.84550989
  |   21: Species H             3.87908018       -2.31876718       -0.56314488
  |   22: Species H             4.07146616       -0.55936444       -0.81219685
  |

  | The smallest distance between any two atoms is         1.01471752 AA.
  |
  | The first atom of this pair is atom number                      7 .
  | The second atom of this pair is atom number                    12 .

  Number of empty states per atom not set in control.in - providing a guess from actual geometry.
  | Total number of empty states used during s.c.f. cycle:       48
  If you use a very high smearing, use empty_states (per atom!) in control.in to increase this value.

  Structure-dependent array size parameters: 
  | Maximum number of distinct radial functions  :       28
  | Maximum number of basis functions            :      200
  | Number of Kohn-Sham states (occupied + empty):       87
------------------------------------------------------------

------------------------------------------------------------
          Preparing all fixed parts of the calculation.
------------------------------------------------------------
  Determining machine precision:
    2.225073858507201E-308
  Setting up grids for atomic and cluster calculations.

  Creating wave function, potential, and density for free atoms.

  Species: H

  List of occupied orbitals and eigenvalues:
    n    l              occ      energy [Ha]    energy [eV]
    1    0           1.0000        -0.237589        -6.4651


  Species: C

  List of occupied orbitals and eigenvalues:
    n    l              occ      energy [Ha]    energy [eV]
    1    0           2.0000       -10.038835      -273.1706
    2    0           2.0000        -0.502696       -13.6791
    2    1           2.0000        -0.191971        -5.2238


  Species: N

  List of occupied orbitals and eigenvalues:
    n    l              occ      energy [Ha]    energy [eV]
    1    0           2.0000       -14.128000      -384.4424
    2    0           2.0000        -0.681077       -18.5330
    2    1           3.0000        -0.259788        -7.0692


  Species: O

  List of occupied orbitals and eigenvalues:
    n    l              occ      energy [Ha]    energy [eV]
    1    0           2.0000       -18.898188      -514.2459
    2    0           2.0000        -0.878505       -23.9053
    2    1           4.0000        -0.331779        -9.0282


  Species: Na

  List of occupied orbitals and eigenvalues:
    n    l              occ      energy [Ha]    energy [eV]
    1    0           2.0000       -37.908205     -1031.5347
    2    0           2.0000        -2.061650       -56.1004
    3    0           1.0000        -0.086939        -2.3657
    2    1           6.0000        -1.037965       -28.2445

  Creating fixed part of basis set: Ionic, confined, hydrogenic.
 
  H                    hydrogenic:
 
  List of hydrogenic basis orbitals: 
    n    l      effective z      eigenvalue [eV]  inner max. [A]     outer max. [A]     outer radius [A]   
    2    0         2.100000       -14.9728           0.193243           1.317208           4.583499
    2    1         3.500000       -41.6669           0.602369           0.602369           3.723403
 
 
  C                    hydrogenic:
 
  List of hydrogenic basis orbitals: 
    n    l      effective z      eigenvalue [eV]  inner max. [A]     outer max. [A]     outer radius [A]   
    2    1         1.700000        -9.7616           1.230570           1.230570           4.607917
    3    2         6.000000       -54.4224           0.792453           0.792453           3.883070
    2    0         4.900000       -81.6679           0.082559           0.562749           3.078220
 
 
  N                    hydrogenic:
 
  List of hydrogenic basis orbitals: 
    n    l      effective z      eigenvalue [eV]  inner max. [A]     outer max. [A]     outer radius [A]   
    2    1         1.800000       -10.9749           1.177451           1.177451           4.573712
    3    2         6.800000       -69.9026           0.704619           0.704619           3.538137
    3    0         5.800000       -50.8545           0.067388           1.191934           4.250239
 
 
  O                    hydrogenic:
 
  List of hydrogenic basis orbitals: 
    n    l      effective z      eigenvalue [eV]  inner max. [A]     outer max. [A]     outer radius [A]   
    2    1         1.800000       -10.9749           1.164242           1.164242           4.578029
    3    2         7.600000       -87.3180           0.624125           0.624125           3.251020
    3    0         6.400000       -61.9207           0.061167           1.081902           4.001998
 
 
  Na                   hydrogenic:
 
  List of hydrogenic basis orbitals: 
    n    l      effective z      eigenvalue [eV]  inner max. [A]     outer max. [A]     outer radius [A]   
    2    1         1.200000        -4.7043           1.699681           1.699681           5.107393
    3    0         1.800000        -2.7647           0.215330           3.132057           5.107393
    3    2         3.800000       -21.8265           1.252092           1.252092           5.045336
 

  Adding cutoff potential to free-atom effective potential.
  Creating atomic-like basis functions for current effective potential.

  Species H                   :

  List of atomic basis orbitals and eigenvalues:
    n    l      energy [Ha]    energy [eV]    outer radius [A]
    1    0        -0.237589        -6.4651       4.527807


  Species C                   :

  List of atomic basis orbitals and eigenvalues:
    n    l      energy [Ha]    energy [eV]    outer radius [A]
    1    0       -10.038835      -273.1706       1.934409
    2    0        -0.502696       -13.6791       4.496620
    2    1        -0.191971        -5.2238       4.551928


  Species N                   :

  List of atomic basis orbitals and eigenvalues:
    n    l      energy [Ha]    energy [eV]    outer radius [A]
    1    0       -14.128000      -384.4424       1.637919
    2    0        -0.681077       -18.5330       4.463241
    2    1        -0.259788        -7.0692       4.518138


  Species O                   :

  List of atomic basis orbitals and eigenvalues:
    n    l      energy [Ha]    energy [eV]    outer radius [A]
    1    0       -18.898188      -514.2459       1.415765
    2    0        -0.878505       -23.9053       4.413171
    2    1        -0.331779        -9.0282       4.522403


  Species Na                  :

  List of atomic basis orbitals and eigenvalues:
    n    l      energy [Ha]    energy [eV]    outer radius [A]
    1    0       -37.908205     -1031.5347       1.017136
    2    0        -2.061650       -56.1004       4.251681
    3    0        -0.086939        -2.3657       5.107393
    2    1        -1.037965       -28.2445       4.746176

  Assembling full basis from fixed parts.
  | Species H :   atomic orbital   1 s accepted.
  | Species H :    hydro orbital   2 s accepted.
  | Species H :    hydro orbital   2 p accepted.
  | Species C :   atomic orbital   1 s accepted.
  | Species C :    hydro orbital   2 s accepted.
  | Species C :   atomic orbital   2 s accepted.
  | Species C :   atomic orbital   2 p accepted.
  | Species C :    hydro orbital   2 p accepted.
  | Species C :    hydro orbital   3 d accepted.
  | Species N :   atomic orbital   1 s accepted.
  | Species N :    hydro orbital   3 s accepted.
  | Species N :   atomic orbital   2 s accepted.
  | Species N :   atomic orbital   2 p accepted.
  | Species N :    hydro orbital   2 p accepted.
  | Species N :    hydro orbital   3 d accepted.
  | Species O :   atomic orbital   1 s accepted.
  | Species O :    hydro orbital   3 s accepted.
  | Species O :   atomic orbital   2 s accepted.
  | Species O :   atomic orbital   2 p accepted.
  | Species O :    hydro orbital   2 p accepted.
  | Species O :    hydro orbital   3 d accepted.
  | Species Na :   atomic orbital   1 s accepted.
  | Species Na :   atomic orbital   2 s accepted.
  | Species Na :   atomic orbital   3 s accepted.
  | Species Na :    hydro orbital   3 s accepted.
  | Species Na :   atomic orbital   2 p accepted.
  | Species Na :    hydro orbital   2 p accepted.
  | Species Na :    hydro orbital   3 d accepted.
 
  Basis size parameters after reduction:
  | Total number of radial functions:       28
  | Total number of basis functions :      200
 
  Per-task memory consumption for arrays in subroutine allocate_ext:
  |           7.142412MB.
  Testing on-site integration grid accuracy.
  |  Species  Function  <phi|h_atom|phi> (log., in eV)  <phi|h_atom|phi> (rad., in eV)
           1        1                 -6.4663192853                 -6.4651273558
           1        2                 13.7111246313                 13.7170609718
           1        3                 25.2673269279                 25.2674696378
           2        4               -273.1705927641               -273.1705631568
           2        5                -10.7109323383                -10.7107120029
           2        6                 17.4381822266                 17.4352413244
           2        7                 -5.2255326521                 -5.2270484734
           2        8                  8.6835629259                  8.6603288385
           2        9                 27.4952418996                 27.4953360207
           3       10               -384.4424306495               -384.4423701208
           3       11                 12.5842251816                 12.5842222903
           3       12                -15.7264628251                -15.7264433455
           3       13                 -7.0696854293                 -7.0701769954
           3       14                  8.8090390882                  8.7901077751
           3       15                 35.9586762123                 35.9588528632
           4       16               -514.2458688638               -514.2457643834
           4       17                 15.1795651126                 15.1795290741
           4       18                -21.5359799773                -21.5360846186
           4       19                 -9.0283069236                 -9.0284644067
           4       20                  8.3027758564                  8.2834874195
           4       21                 45.8339351984                 45.8338762259
           5       22              -1031.5347301569              -1031.5343700005
           5       23                -56.1003590737                -56.1003577733
           5       24                 -2.3872449526                 -2.3874266514
           5       25                  4.8089581560                  4.7916273983
           5       26                -28.2444627299                -28.2444626864
           5       27                  0.6487953582                  0.6484930494
           5       28                 10.4219557667                 10.4220291668

  Preparing densities etc. for the partition functions (integrals / Hartree potential).

  Preparations completed.
  max(cpu_time)          :      0.308 s.
  Wall clock time (cpu1) :      0.309 s.
------------------------------------------------------------

------------------------------------------------------------
          Begin self-consistency loop: Initialization.

          Date     :  20180216, Time     :  134653.654
------------------------------------------------------------

  Initializing index lists of integration centers etc. from given atomic structure:
  | Number of centers in hartree potential         :        22
  | Number of centers in hartree multipole         :        22
  | Number of centers in electron density summation:        22
  | Number of centers in basis integrals           :        22
  | Number of centers in integrals                 :        22
  | Number of centers in hamiltonian               :        22
  Partitioning the integration grid into batches with parallel hashing+maxmin method.
  | Number of batches:     1237
  | Maximal batch size:     181
  | Minimal batch size:      53
  | Average batch size:      94.522
  | Standard deviation of batch sizes:      32.555

  Integration load balanced across     8 MPI tasks.
  Work distribution over tasks is as follows:
  Task     0 has      14571 integration points.
  Task     1 has      14590 integration points.
  Task     2 has      14740 integration points.
  Task     3 has      14604 integration points.
  Task     4 has      14571 integration points.
  Task     5 has      14559 integration points.
  Task     6 has      14609 integration points.
  Task     7 has      14680 integration points.
  Initializing partition tables, free-atom densities, potentials, etc. across the integration grid (initialize_grid_storage).
  | initialize_grid_storage: Actual outermost partition radius vs. multipole_radius_free
  | (-- VB: in principle, multipole_radius_free should be larger, hence this output)
  | Species        1: Confinement radius =              4.999999999999999 AA, multipole_radius_free =              5.054417573612229 AA.
  | Species        1: outer_partition_radius set to              5.054417573612229 AA .
  | Species        2: Confinement radius =              4.999999999999999 AA, multipole_radius_free =              5.019602836301480 AA.
  | Species        2: outer_partition_radius set to              5.019602836301480 AA .
  | Species        3: Confinement radius =              4.999999999999999 AA, multipole_radius_free =              5.043624274424571 AA.
  | Species        3: outer_partition_radius set to              5.043624274424571 AA .
  | Species        4: Confinement radius =              4.999999999999999 AA, multipole_radius_free =              5.048384829883283 AA.
  | Species        4: outer_partition_radius set to              5.048384829883283 AA .
  | Species        5: Confinement radius =              5.500000000000000 AA, multipole_radius_free =              5.563704032673898 AA.
  | Species        5: outer_partition_radius set to              5.563704032673898 AA .
  | Original list of interatomic distances with          22 x         22 entries is created.
  | Net number of integration points:   116924
  | of which are non-zero points    :    99468
  Renormalizing the initial density to the exact electron count on the 3D integration grid.
  | Initial density: Formal number of electrons (from input files) :      78.0000000000
  | Integrated number of electrons on 3D grid     :      77.9998779516
  | Charge integration error                      :      -0.0001220484
  | Normalization factor for density and gradient :       1.0000015647
  Obtaining max. number of non-zero basis functions in each batch (get_n_compute_maxes).
  | Maximal number of non-zero basis functions:      197 in task     0
  | Maximal number of non-zero basis functions:      197 in task     1
  | Maximal number of non-zero basis functions:      196 in task     2
  | Maximal number of non-zero basis functions:      192 in task     3
  | Maximal number of non-zero basis functions:      197 in task     4
  | Maximal number of non-zero basis functions:      196 in task     5
  | Maximal number of non-zero basis functions:      197 in task     6
  | Maximal number of non-zero basis functions:      197 in task     7
  Selecting the method for density update.
  Loop over occupied states selected for charge density update.
  Allocating        0.139 MB for KS_eigenvector
  Integrating Hamiltonian matrix: batch-based integration.
  Time summed over all CPUs for integration: real work        4.776 s, elapsed        4.904 s
  Integrating overlap matrix.
  Time summed over all CPUs for integration: real work        2.019 s, elapsed        2.076 s

  Updating Kohn-Sham eigenvalues, eigenvectors, occupation numbers, and Fermi level.
  Solving generalized eigenproblem
  Updating Kohn-Sham eigenvalues and eigenfunctions.
  Transforming overlap matrix and checking for singularities.
  Overlap matrix is nonsingular:
  | Lowest eigenvalue:  0.234425E-02
  Solving real generalised eigenvalue problem by standard LAPACK (fast)

  Obtaining occupation numbers and chemical potential using ELSI.
  | Chemical potential (Fermi level):    -9.50295853eV
  Writing Kohn-Sham eigenvalues.

  State    Occupation    Eigenvalue [Ha]    Eigenvalue [eV]
      1       2.00000         -18.970502         -516.21362
      2       2.00000         -18.970239         -516.20646
      3       2.00000         -14.249859         -387.75838
      4       2.00000         -14.248223         -387.71388
      5       2.00000         -10.165681         -276.62226
      6       2.00000         -10.164990         -276.60345
      7       2.00000         -10.161507         -276.50867
      8       2.00000         -10.140495         -275.93691
      9       2.00000         -10.130349         -275.66082
     10       2.00000         -10.128704         -275.61605
     11       2.00000          -1.124530          -30.60003
     12       2.00000          -1.120013          -30.47709
     13       2.00000          -1.010915          -27.50841
     14       2.00000          -1.001632          -27.25581
     15       2.00000          -0.881116          -23.97639
     16       2.00000          -0.836429          -22.76038
     17       2.00000          -0.813491          -22.13623
     18       2.00000          -0.757314          -20.60757
     19       2.00000          -0.690230          -18.78210
     20       2.00000          -0.669409          -18.21555
     21       2.00000          -0.633669          -17.24301
     22       2.00000          -0.621981          -16.92497
     23       2.00000          -0.589768          -16.04840
     24       2.00000          -0.574568          -15.63478
     25       2.00000          -0.558717          -15.20346
     26       2.00000          -0.554488          -15.08837
     27       2.00000          -0.548142          -14.91571
     28       2.00000          -0.543633          -14.79301
     29       2.00000          -0.530523          -14.43626
     30       2.00000          -0.526345          -14.32256
     31       2.00000          -0.510000          -13.87780
     32       2.00000          -0.506666          -13.78708
     33       2.00000          -0.483806          -13.16502
     34       2.00000          -0.478911          -13.03184
     35       2.00000          -0.472891          -12.86802
     36       2.00000          -0.410212          -11.16243
     37       2.00000          -0.399824          -10.87977
     38       2.00000          -0.380716          -10.35982
     39       2.00000          -0.376331          -10.24050
     40       0.00000          -0.160642           -4.37128
     41       0.00000          -0.149828           -4.07703
     42       0.00000          -0.061303           -1.66815
     43       0.00000          -0.035749           -0.97279
     44       0.00000          -0.023812           -0.64795
     45       0.00000          -0.016335           -0.44449
     46       0.00000          -0.009694           -0.26378
     47       0.00000          -0.003463           -0.09423
     48       0.00000           0.004399            0.11969
     49       0.00000           0.015360            0.41798
     50       0.00000           0.023254            0.63277
     51       0.00000           0.026254            0.71440
     52       0.00000           0.028704            0.78109
     53       0.00000           0.035743            0.97261
     54       0.00000           0.039644            1.07878
     55       0.00000           0.042973            1.16936
     56       0.00000           0.059225            1.61160
     57       0.00000           0.078896            2.14686
     58       0.00000           0.097477            2.65249
     59       0.00000           0.110518            3.00734
     60       0.00000           0.150733            4.10166
     61       0.00000           0.175981            4.78869
     62       0.00000           0.186317            5.06994
     63       0.00000           0.190533            5.18467
     64       0.00000           0.204402            5.56207
     65       0.00000           0.215620            5.86732
     66       0.00000           0.217306            5.91320
     67       0.00000           0.236106            6.42476
     68       0.00000           0.240437            6.54262
     69       0.00000           0.256689            6.98486
     70       0.00000           0.266546            7.25310
     71       0.00000           0.282563            7.68893
     72       0.00000           0.288192            7.84211
     73       0.00000           0.307925            8.37907
     74       0.00000           0.322913            8.78691
     75       0.00000           0.340275            9.25935
     76       0.00000           0.369078           10.04313
     77       0.00000           0.376348           10.24096
     78       0.00000           0.394207           10.72691
     79       0.00000           0.414189           11.27066
     80       0.00000           0.440404           11.98400
     81       0.00000           0.444758           12.10248
     82       0.00000           0.472705           12.86297
     83       0.00000           0.491107           13.36370
     84       0.00000           0.509805           13.87250
     85       0.00000           0.528570           14.38311
     86       0.00000           0.540420           14.70557
     87       0.00000           0.566573           15.41724

  Highest occupied state (VBM) at    -10.24049859 eV
  | Occupation number:      2.00000000

  Lowest unoccupied state (CBM) at    -4.37128020 eV
  | Occupation number:      0.00000000

  Overall HOMO-LUMO gap:      5.86921838 eV.
  Calculating total energy contributions from superposition of free atom densities.

  Total energy components:
  | Sum of eigenvalues            :        -291.87363562 Ha       -7942.28572427 eV
  | XC energy correction          :         -66.06244960 Ha       -1797.65071702 eV
  | XC potential correction       :          84.91242762 Ha        2310.58471671 eV
  | Free-atom electrostatic energy:        -222.87383235 Ha       -6064.70554703 eV
  | Hartree energy correction     :           0.00000000 Ha           0.00000000 eV
  | vdW energy correction         :           0.00000000 Ha           0.00000000 eV
  | Entropy correction            :           0.00000000 Ha           0.00000000 eV
  | ---------------------------
  | Total energy                  :        -495.89748995 Ha      -13494.05727161 eV
  | Total energy, T -> 0          :        -495.89748995 Ha      -13494.05727161 eV  <-- do not rely on this value for anything but (periodic) metals
  | Electronic free energy        :        -495.89748995 Ha      -13494.05727161 eV

  Derived energy quantities:
  | Kinetic energy                :         490.35174990 Ha       13343.15000673 eV
  | Electrostatic energy          :        -920.18679025 Ha      -25039.55656133 eV
  | Energy correction for multipole
  | error in Hartree potential    :           0.00000000 Ha           0.00000000 eV
  | Sum of eigenvalues per atom                           :        -361.01298747 eV
  | Total energy (T->0) per atom                          :        -613.36623962 eV  <-- do not rely on this value for anything but (periodic) metals
  | Electronic free energy per atom                       :        -613.36623962 eV
  Initialize hartree_potential_storage
  Max. number of atoms included in rho_multipole:           22

  End scf initialization - timings             :  max(cpu_time)    wall_clock(cpu1)
  | Time for scf. initialization               :        1.472 s           1.471 s
  | Boundary condition initialization          :        0.000 s           0.001 s
  | Integration                                :        0.864 s           0.864 s
  | Solution of K.-S. eqns.                    :        0.044 s           0.043 s
  | Grid partitioning                          :        0.136 s           0.135 s
  | Preloading free-atom quantities on grid    :        0.008 s           0.009 s
  | Free-atom superposition energy             :        0.068 s           0.066 s
  | Total energy evaluation                    :        0.000 s           0.001 s

  Partial memory accounting:
  | Current value for overall tracked memory usage on task 0  :           0.782 MB
  | Peak value for overall tracked memory usage on task 0     :           1.633 MB after allocating wave
  | Largest tracked array allocation on task 0 so far         :           0.320 MB  when allocating ovlp
  Note:  These values currently only include a subset of arrays which are explicitly tracked.
  The "true" memory usage will be greater.
------------------------------------------------------------

------------------------------------------------------------
          Begin self-consistency iteration #    1

  Date     :  20180216, Time     :  134655.126
------------------------------------------------------------
  Evaluating new KS density.
  Integration grid: deviation in total charge (<rho> - N_e) =   2.842171E-14
  Pulay mixing of updated and previous charge densities.

  Evaluating partitioned Hartree potential by multipole expansion.
  | Analytical far-field extrapolation by fixed multipoles:
  | Hartree multipole sum: apparent total charge =  -0.536590E-03
  Summing up the Hartree potential.
  Time summed over all CPUs for potential: real work        4.592 s, elapsed        4.651 s
  | RMS charge density error from multipole expansion :   0.202374E-01

  Integrating Hamiltonian matrix: batch-based integration.
  Time summed over all CPUs for integration: real work        4.778 s, elapsed        4.911 s

  Updating Kohn-Sham eigenvalues, eigenvectors, occupation numbers, and Fermi level.
  Solving generalized eigenproblem
  Updating Kohn-Sham eigenvalues and eigenfunctions.
  Solving real generalised eigenvalue problem by standard LAPACK (fast)

  Obtaining occupation numbers and chemical potential using ELSI.
  | Chemical potential (Fermi level):    -2.43751989eV
  Writing Kohn-Sham eigenvalues.

  State    Occupation    Eigenvalue [Ha]    Eigenvalue [eV]
      1       2.00000         -18.627776         -506.88757
      2       2.00000         -18.600069         -506.13362
      3       2.00000         -13.999226         -380.93832
      4       2.00000         -13.957757         -379.80988
      5       2.00000         -10.065919         -273.90758
      6       2.00000         -10.040915         -273.22720
      7       2.00000          -9.961755         -271.07313
      8       2.00000          -9.867640         -268.51215
      9       2.00000          -9.854775         -268.16208
     10       2.00000          -9.829419         -267.47209
     11       2.00000          -0.968294          -26.34862
     12       2.00000          -0.943977          -25.68692
     13       2.00000          -0.874273          -23.79017
     14       2.00000          -0.840961          -22.88372
     15       2.00000          -0.741603          -20.18006
     16       2.00000          -0.693344          -18.86684
     17       2.00000          -0.658469          -17.91785
     18       2.00000          -0.619629          -16.86096
     19       2.00000          -0.566125          -15.40506
     20       2.00000          -0.532317          -14.48509
     21       2.00000          -0.511202          -13.91052
     22       2.00000          -0.483115          -13.14622
     23       2.00000          -0.446915          -12.16117
     24       2.00000          -0.436631          -11.88133
     25       2.00000          -0.419560          -11.41680
     26       2.00000          -0.413605          -11.25477
     27       2.00000          -0.399823          -10.87974
     28       2.00000          -0.395653          -10.76627
     29       2.00000          -0.383189          -10.42710
     30       2.00000          -0.378737          -10.30596
     31       2.00000          -0.364254           -9.91184
     32       2.00000          -0.351787           -9.57262
     33       2.00000          -0.346646           -9.43271
     34       2.00000          -0.341184           -9.28409
     35       2.00000          -0.329939           -8.97809
     36       2.00000          -0.249766           -6.79648
     37       2.00000          -0.223191           -6.07333
     38       2.00000          -0.213770           -5.81699
     39       2.00000          -0.198364           -5.39776
     40       0.00000          -0.053826           -1.46467
     41       0.00000          -0.028694           -0.78080
     42       0.00000          -0.008722           -0.23734
     43       0.00000           0.046007            1.25190
     44       0.00000           0.048177            1.31096
     45       0.00000           0.067819            1.84544
     46       0.00000           0.078957            2.14853
     47       0.00000           0.098254            2.67362
     48       0.00000           0.104831            2.85260
     49       0.00000           0.107191            2.91683
     50       0.00000           0.110910            3.01802
     51       0.00000           0.116064            3.15826
     52       0.00000           0.118915            3.23584
     53       0.00000           0.125008            3.40165
     54       0.00000           0.132477            3.60489
     55       0.00000           0.142970            3.89042
     56       0.00000           0.148704            4.04645
     57       0.00000           0.178513            4.85758
     58       0.00000           0.199521            5.42924
     59       0.00000           0.216762            5.89840
     60       0.00000           0.234420            6.37890
     61       0.00000           0.256214            6.97193
     62       0.00000           0.258497            7.03405
     63       0.00000           0.287393            7.82036
     64       0.00000           0.300323            8.17220
     65       0.00000           0.308151            8.38521
     66       0.00000           0.318906            8.67787
     67       0.00000           0.334042            9.08974
     68       0.00000           0.341593            9.29521
     69       0.00000           0.355291            9.66797
     70       0.00000           0.365399            9.94302
     71       0.00000           0.376540           10.24618
     72       0.00000           0.394249           10.72806
     73       0.00000           0.407737           11.09509
     74       0.00000           0.429609           11.69026
     75       0.00000           0.443312           12.06313
     76       0.00000           0.469975           12.78867
     77       0.00000           0.483787           13.16450
     78       0.00000           0.506507           13.78277
     79       0.00000           0.525368           14.29600
     80       0.00000           0.529655           14.41264
     81       0.00000           0.538015           14.64013
     82       0.00000           0.568365           15.46600
     83       0.00000           0.579258           15.76242
     84       0.00000           0.615769           16.75594
     85       0.00000           0.623552           16.96772
     86       0.00000           0.643042           17.49806
     87       0.00000           0.664008           18.06858

  Highest occupied state (VBM) at     -5.39775910 eV
  | Occupation number:      2.00000000

  Lowest unoccupied state (CBM) at    -1.46467066 eV
  | Occupation number:      0.00000000

  Overall HOMO-LUMO gap:      3.93308844 eV.

  Total energy components:
  | Sum of eigenvalues            :        -278.26314124 Ha       -7571.92532833 eV
  | XC energy correction          :         -67.36526525 Ha       -1833.10213467 eV
  | XC potential correction       :          86.60310986 Ha        2356.59052142 eV
  | Free-atom electrostatic energy:        -222.87383235 Ha       -6064.70554703 eV
  | Hartree energy correction     :         -13.62155029 Ha        -370.66124254 eV
  | vdW energy correction         :           0.00000000 Ha           0.00000000 eV
  | Entropy correction            :           0.00000000 Ha           0.00000000 eV
  | ---------------------------
  | Total energy                  :        -495.52067926 Ha      -13483.80373116 eV
  | Total energy, T -> 0          :        -495.52067926 Ha      -13483.80373116 eV  <-- do not rely on this value for anything but (periodic) metals
  | Electronic free energy        :        -495.52067926 Ha      -13483.80373116 eV

  Derived energy quantities:
  | Kinetic energy                :         496.45623493 Ha       13509.26149599 eV
  | Electrostatic energy          :        -924.61164894 Ha      -25159.96309247 eV
  | Energy correction for multipole
  | error in Hartree potential    :           0.06046533 Ha           1.64534525 eV
  | Sum of eigenvalues per atom                           :        -344.17842402 eV
  | Total energy (T->0) per atom                          :        -612.90016960 eV  <-- do not rely on this value for anything but (periodic) metals
  | Electronic free energy per atom                       :        -612.90016960 eV

  Self-consistency convergence accuracy:
  | Change of charge density      :  0.7240E+00
  | Change of sum of eigenvalues  :  0.3704E+03 eV
  | Change of total energy        :  0.1025E+02 eV

  End self-consistency iteration #     1       :  max(cpu_time)    wall_clock(cpu1)
  | Time for this iteration                    :        1.820 s           1.818 s
  | Charge density update                      :        0.600 s           0.599 s
  | Density mixing                             :        0.004 s           0.003 s
  | Hartree multipole update                   :        0.020 s           0.019 s
  | Hartree multipole summation                :        0.576 s           0.576 s
  | Integration                                :        0.608 s           0.607 s
  | Solution of K.-S. eqns.                    :        0.008 s           0.009 s
  | Total energy evaluation                    :        0.000 s           0.001 s

  Partial memory accounting:
  | Current value for overall tracked memory usage on task 0  :           0.782 MB
  | Peak value for overall tracked memory usage on task 0     :           1.953 MB after allocating wave
  | Largest tracked array allocation on task 0 so far         :           0.856 MB  when allocating gradient_basis_wave
  Note:  These values currently only include a subset of arrays which are explicitly tracked.
  The "true" memory usage will be greater.
------------------------------------------------------------

------------------------------------------------------------
          Begin self-consistency iteration #    2

  Date     :  20180216, Time     :  134656.945
------------------------------------------------------------
  Evaluating new KS density.
  Integration grid: deviation in total charge (<rho> - N_e) =   0.000000E+00
  Pulay mixing of updated and previous charge densities.

  Evaluating partitioned Hartree potential by multipole expansion.
  | Analytical far-field extrapolation by fixed multipoles:
  | Hartree multipole sum: apparent total charge =  -0.595635E-03
  Summing up the Hartree potential.
  Time summed over all CPUs for potential: real work        4.584 s, elapsed        4.649 s
  | RMS charge density error from multipole expansion :   0.260015E-01

  Integrating Hamiltonian matrix: batch-based integration.
  Time summed over all CPUs for integration: real work        4.771 s, elapsed        4.910 s

  Updating Kohn-Sham eigenvalues, eigenvectors, occupation numbers, and Fermi level.
  Solving generalized eigenproblem
  Updating Kohn-Sham eigenvalues and eigenfunctions.
  Solving real generalised eigenvalue problem by standard LAPACK (fast)

  Obtaining occupation numbers and chemical potential using ELSI.
  | Chemical potential (Fermi level):    -2.28367385eV
  Highest occupied state (VBM) at     -6.17872577 eV
  | Occupation number:      2.00000000

  Lowest unoccupied state (CBM) at    -1.29394978 eV
  | Occupation number:      0.00000000

  Overall HOMO-LUMO gap:      4.88477599 eV.

  Checking to see if s.c.f. parameters should be adjusted.

  Total energy components:
  | Sum of eigenvalues            :        -278.85682433 Ha       -7588.08026734 eV
  | XC energy correction          :         -67.29360960 Ha       -1831.15228517 eV
  | XC potential correction       :          86.50330492 Ha        2353.87469070 eV
  | Free-atom electrostatic energy:        -222.87383235 Ha       -6064.70554703 eV
  | Hartree energy correction     :         -12.95930135 Ha        -352.64053182 eV
  | vdW energy correction         :           0.00000000 Ha           0.00000000 eV
  | Entropy correction            :           0.00000000 Ha           0.00000000 eV
  | ---------------------------
  | Total energy                  :        -495.48026271 Ha      -13482.70394066 eV
  | Total energy, T -> 0          :        -495.48026271 Ha      -13482.70394066 eV  <-- do not rely on this value for anything but (periodic) metals
  | Electronic free energy        :        -495.48026271 Ha      -13482.70394066 eV

  Derived energy quantities:
  | Kinetic energy                :         494.67135430 Ha       13460.69242294 eV
  | Electrostatic energy          :        -922.85800741 Ha      -25112.24407844 eV
  | Energy correction for multipole
  | error in Hartree potential    :           0.07194201 Ha           1.95764182 eV
  | Sum of eigenvalues per atom                           :        -344.91273942 eV
  | Total energy (T->0) per atom                          :        -612.85017912 eV  <-- do not rely on this value for anything but (periodic) metals
  | Electronic free energy per atom                       :        -612.85017912 eV

  Self-consistency convergence accuracy:
  | Change of charge density      :  0.3859E+00
  | Change of sum of eigenvalues  : -0.1615E+02 eV
  | Change of total energy        :  0.1100E+01 eV

  End self-consistency iteration #     2       :  max(cpu_time)    wall_clock(cpu1)
  | Time for this iteration                    :        1.816 s           1.813 s
  | Charge density update                      :        0.596 s           0.596 s
  | Density mixing                             :        0.008 s           0.005 s
  | Hartree multipole update                   :        0.020 s           0.019 s
  | Hartree multipole summation                :        0.576 s           0.576 s
  | Integration                                :        0.608 s           0.607 s
  | Solution of K.-S. eqns.                    :        0.012 s           0.009 s
  | Total energy evaluation                    :        0.000 s           0.001 s

  Partial memory accounting:
  | Current value for overall tracked memory usage on task 0  :           0.783 MB
  | Peak value for overall tracked memory usage on task 0     :           1.954 MB after allocating wave
  | Largest tracked array allocation on task 0 so far         :           0.856 MB  when allocating gradient_basis_wave
  Note:  These values currently only include a subset of arrays which are explicitly tracked.
  The "true" memory usage will be greater.
------------------------------------------------------------

------------------------------------------------------------
          Begin self-consistency iteration #    3

  Date     :  20180216, Time     :  134658.759
------------------------------------------------------------
  Evaluating new KS density.
  Integration grid: deviation in total charge (<rho> - N_e) =   0.000000E+00
  Pulay mixing of updated and previous charge densities.

  Evaluating partitioned Hartree potential by multipole expansion.
  | Analytical far-field extrapolation by fixed multipoles:
  | Hartree multipole sum: apparent total charge =  -0.683900E-03
  Summing up the Hartree potential.
  Time summed over all CPUs for potential: real work        4.600 s, elapsed        4.667 s
  | RMS charge density error from multipole expansion :   0.325431E-01

  Integrating Hamiltonian matrix: batch-based integration.
  Time summed over all CPUs for integration: real work        4.790 s, elapsed        4.927 s

  Updating Kohn-Sham eigenvalues, eigenvectors, occupation numbers, and Fermi level.
  Solving generalized eigenproblem
  Updating Kohn-Sham eigenvalues and eigenfunctions.
  Solving real generalised eigenvalue problem by standard LAPACK (fast)

  Obtaining occupation numbers and chemical potential using ELSI.
  | Chemical potential (Fermi level):    -2.10883982eV
  Highest occupied state (VBM) at     -5.31690165 eV
  | Occupation number:      2.00000000

  Lowest unoccupied state (CBM) at    -1.15561082 eV
  | Occupation number:      0.00000000

  Overall HOMO-LUMO gap:      4.16129083 eV.

  Total energy components:
  | Sum of eigenvalues            :        -278.31315046 Ha       -7573.28614864 eV
  | XC energy correction          :         -67.43153465 Ha       -1834.90541679 eV
  | XC potential correction       :          86.67834573 Ha        2358.63779351 eV
  | Free-atom electrostatic energy:        -222.87383235 Ha       -6064.70554703 eV
  | Hartree energy correction     :         -13.53459633 Ha        -368.29510490 eV
  | vdW energy correction         :           0.00000000 Ha           0.00000000 eV
  | Entropy correction            :           0.00000000 Ha           0.00000000 eV
  | ---------------------------
  | Total energy                  :        -495.47476806 Ha      -13482.55442386 eV
  | Total energy, T -> 0          :        -495.47476806 Ha      -13482.55442386 eV  <-- do not rely on this value for anything but (periodic) metals
  | Electronic free energy        :        -495.47476806 Ha      -13482.55442386 eV

  Derived energy quantities:
  | Kinetic energy                :         494.14535969 Ha       13446.37938142 eV
  | Electrostatic energy          :        -922.18859310 Ha      -25094.02838849 eV
  | Energy correction for multipole
  | error in Hartree potential    :           0.08635869 Ha           2.34993959 eV
  | Sum of eigenvalues per atom                           :        -344.24027948 eV
  | Total energy (T->0) per atom                          :        -612.84338290 eV  <-- do not rely on this value for anything but (periodic) metals
  | Electronic free energy per atom                       :        -612.84338290 eV

  Self-consistency convergence accuracy:
  | Change of charge density      :  0.1687E+00
  | Change of sum of eigenvalues  :  0.1479E+02 eV
  | Change of total energy        :  0.1495E+00 eV

  End self-consistency iteration #     3       :  max(cpu_time)    wall_clock(cpu1)
  | Time for this iteration                    :        1.824 s           1.822 s
  | Charge density update                      :        0.600 s           0.597 s
  | Density mixing                             :        0.008 s           0.009 s
  | Hartree multipole update                   :        0.020 s           0.019 s
  | Hartree multipole summation                :        0.580 s           0.577 s
  | Integration                                :        0.612 s           0.610 s
  | Solution of K.-S. eqns.                    :        0.012 s           0.008 s
  | Total energy evaluation                    :        0.000 s           0.001 s

  Partial memory accounting:
  | Current value for overall tracked memory usage on task 0  :           0.783 MB
  | Peak value for overall tracked memory usage on task 0     :           1.954 MB after allocating wave
  | Largest tracked array allocation on task 0 so far         :           0.856 MB  when allocating gradient_basis_wave
  Note:  These values currently only include a subset of arrays which are explicitly tracked.
  The "true" memory usage will be greater.
------------------------------------------------------------

------------------------------------------------------------
          Begin self-consistency iteration #    4

  Date     :  20180216, Time     :  134700.582
------------------------------------------------------------
  Evaluating new KS density.
  Integration grid: deviation in total charge (<rho> - N_e) =   2.842171E-14
  Pulay mixing of updated and previous charge densities.

  Evaluating partitioned Hartree potential by multipole expansion.
  | Analytical far-field extrapolation by fixed multipoles:
  | Hartree multipole sum: apparent total charge =  -0.719689E-03
  Summing up the Hartree potential.
  Time summed over all CPUs for potential: real work        4.613 s, elapsed        4.688 s
  | RMS charge density error from multipole expansion :   0.349824E-01

  Integrating Hamiltonian matrix: batch-based integration.
  Time summed over all CPUs for integration: real work        4.766 s, elapsed        4.896 s

  Updating Kohn-Sham eigenvalues, eigenvectors, occupation numbers, and Fermi level.
  Solving generalized eigenproblem
  Updating Kohn-Sham eigenvalues and eigenfunctions.
  Solving real generalised eigenvalue problem by standard LAPACK (fast)

  Obtaining occupation numbers and chemical potential using ELSI.
  | Chemical potential (Fermi level):    -1.94591148eV
  Highest occupied state (VBM) at     -5.50727211 eV
  | Occupation number:      2.00000000

  Lowest unoccupied state (CBM) at    -1.05302183 eV
  | Occupation number:      0.00000000

  Overall HOMO-LUMO gap:      4.45425028 eV.

  Total energy components:
  | Sum of eigenvalues            :        -277.87757287 Ha       -7561.43347923 eV
[...]
   Van der Waals                 :  0.295420E-02 -0.110851E-01  0.617093E-02
   ----------------------------------------------------------------
   Total forces(   3)            :  0.186797E-02 -0.759488E-02  0.447758E-02
  atom #    4
   Hellmann-Feynman              :  0.118510E-01  0.353707E-01  0.242754E-01
   Ionic forces                  :  0.000000E+00  0.000000E+00  0.000000E+00
   Multipole                     : -0.101532E+00 -0.800571E-01  0.557847E-01
   Pulay + GGA                   :  0.929981E-01  0.404169E-01 -0.772330E-01
   Van der Waals                 : -0.169470E-02  0.312761E-02 -0.324475E-02
   ----------------------------------------------------------------
   Total forces(   4)            :  0.162256E-02 -0.114189E-02 -0.417735E-03
  atom #    5
   Hellmann-Feynman              :  0.122313E+00  0.144553E+00 -0.556745E-02
   Ionic forces                  :  0.000000E+00  0.000000E+00  0.000000E+00
   Multipole                     : -0.126057E+00 -0.488789E-01 -0.795634E-01
   Pulay + GGA                   :  0.957782E-02 -0.946380E-01  0.759677E-01
   Van der Waals                 : -0.674555E-03 -0.240904E-02  0.204371E-02
   ----------------------------------------------------------------
   Total forces(   5)            :  0.515922E-02 -0.137245E-02 -0.711943E-02
  atom #    6
   Hellmann-Feynman              :  0.541191E-01  0.169624E-01  0.367525E-02
   Ionic forces                  :  0.000000E+00  0.000000E+00  0.000000E+00
   Multipole                     :  0.375974E-02 -0.113617E+00 -0.490416E-01
   Pulay + GGA                   : -0.447326E-01  0.938338E-01  0.569196E-01
   Van der Waals                 : -0.399380E-03  0.241741E-02 -0.444071E-02
   ----------------------------------------------------------------
   Total forces(   6)            :  0.127469E-01 -0.403914E-03  0.711254E-02
  atom #    7
   Hellmann-Feynman              :  0.271648E+00 -0.120059E+01  0.138711E+01
   Ionic forces                  :  0.000000E+00  0.000000E+00  0.000000E+00
   Multipole                     : -0.102654E+00  0.515687E+00 -0.326315E+00
   Pulay + GGA                   : -0.163871E+00  0.689761E+00 -0.104686E+01
   Van der Waals                 : -0.739756E-02 -0.439914E-02 -0.150213E-01
   ----------------------------------------------------------------
   Total forces(   7)            : -0.227462E-02  0.462439E-03 -0.108435E-02
  atom #    8
   Hellmann-Feynman              :  0.161144E+01  0.216854E+01 -0.329455E+00
   Ionic forces                  :  0.000000E+00  0.000000E+00  0.000000E+00
   Multipole                     : -0.226325E+00  0.293764E+00  0.115193E+00
   Pulay + GGA                   : -0.139248E+01 -0.245921E+01  0.221471E+00
   Van der Waals                 :  0.242384E-02 -0.159768E-02 -0.616621E-02
   ----------------------------------------------------------------
   Total forces(   8)            : -0.493765E-02  0.149606E-02  0.104282E-02
  atom #    9
   Hellmann-Feynman              :  0.254936E+00 -0.344457E+00  0.753453E-01
   Ionic forces                  :  0.000000E+00  0.000000E+00  0.000000E+00
   Multipole                     : -0.257460E+00  0.427412E+00  0.687265E+00
   Pulay + GGA                   :  0.106750E-01 -0.104012E+00 -0.764310E+00
   Van der Waals                 : -0.107982E-01  0.254528E-01  0.477000E-02
   ----------------------------------------------------------------
   Total forces(   9)            : -0.264709E-02  0.439618E-02  0.307059E-02
  atom #   10
   Hellmann-Feynman              : -0.152538E+01 -0.101107E+00  0.450867E+00
   Ionic forces                  :  0.000000E+00  0.000000E+00  0.000000E+00
   Multipole                     :  0.101797E-01  0.656709E-01 -0.426944E-01
   Pulay + GGA                   :  0.150533E+01  0.312726E-01 -0.399686E+00
   Van der Waals                 :  0.100804E-01  0.275605E-02 -0.121920E-01
   ----------------------------------------------------------------
   Total forces(  10)            :  0.208570E-03 -0.140705E-02 -0.370481E-02
  atom #   11
   Hellmann-Feynman              :  0.612476E+01  0.894647E+01 -0.892901E+01
   Ionic forces                  :  0.000000E+00  0.000000E+00  0.000000E+00
   Multipole                     :  0.409656E+00  0.608675E+00 -0.658574E+00
   Pulay + GGA                   : -0.651742E+01 -0.954337E+01  0.959147E+01
   Van der Waals                 : -0.113776E-01 -0.312394E-02  0.466664E-02
   ----------------------------------------------------------------
   Total forces(  11)            :  0.561846E-02  0.864721E-02  0.855297E-02
  atom #   12
   Hellmann-Feynman              : -0.638372E-01  0.258622E-03 -0.527138E-01
   Ionic forces                  :  0.000000E+00  0.000000E+00  0.000000E+00
   Multipole                     : -0.958618E-01 -0.249516E-01 -0.121272E+00
   Pulay + GGA                   :  0.147514E+00  0.205030E-01  0.172467E+00
   Van der Waals                 :  0.905805E-02  0.396926E-02  0.881500E-02
   ----------------------------------------------------------------
   Total forces(  12)            : -0.312691E-02 -0.220656E-03  0.729656E-02
  atom #   13
   Hellmann-Feynman              : -0.844378E-01 -0.157429E+00  0.243521E-01
   Ionic forces                  :  0.000000E+00  0.000000E+00  0.000000E+00
   Multipole                     : -0.557489E-01  0.176518E+00 -0.121964E+00
   Pulay + GGA                   :  0.136664E+00 -0.868702E-02  0.944923E-01
   Van der Waals                 :  0.350202E-02 -0.100045E-01 -0.111097E-02
   ----------------------------------------------------------------
   Total forces(  13)            : -0.208753E-04  0.396935E-03 -0.423074E-02
  atom #   14
   Hellmann-Feynman              : -0.125346E-02 -0.276766E-01 -0.684328E-01
   Ionic forces                  :  0.000000E+00  0.000000E+00  0.000000E+00
   Multipole                     : -0.105540E+00  0.646611E-01  0.565541E-01
   Pulay + GGA                   :  0.101913E+00 -0.278757E-01  0.581862E-02
   Van der Waals                 :  0.269228E-02 -0.530181E-02  0.320128E-02
   ----------------------------------------------------------------
   Total forces(  14)            : -0.218867E-02  0.380696E-02 -0.285873E-02
  atom #   15
   Hellmann-Feynman              :  0.197935E-01  0.583782E-02 -0.399487E-01
   Ionic forces                  :  0.000000E+00  0.000000E+00  0.000000E+00
   Multipole                     :  0.111118E-01 -0.347256E-01  0.127178E+00
   Pulay + GGA                   : -0.292924E-01  0.227059E-01 -0.955676E-01
   Van der Waals                 : -0.482275E-02  0.162130E-01  0.156204E-01
   ----------------------------------------------------------------
   Total forces(  15)            : -0.320991E-02  0.100311E-01  0.728201E-02
  atom #   16
   Hellmann-Feynman              :  0.195852E-01 -0.148570E-01 -0.569793E-01
   Ionic forces                  :  0.000000E+00  0.000000E+00  0.000000E+00
   Multipole                     :  0.270368E-01  0.120436E+00  0.637974E-01
   Pulay + GGA                   : -0.487932E-01 -0.970563E-01 -0.100263E-01
   Van der Waals                 :  0.239193E-02 -0.581556E-02  0.206685E-02
   ----------------------------------------------------------------
   Total forces(  16)            :  0.220722E-03  0.270744E-02 -0.114134E-02
  atom #   17
   Hellmann-Feynman              : -0.210993E+01  0.694594E+00  0.379097E+00
   Ionic forces                  :  0.000000E+00  0.000000E+00  0.000000E+00
   Multipole                     :  0.421652E+00 -0.516759E+00  0.309984E+00
   Pulay + GGA                   :  0.166402E+01 -0.184751E+00 -0.689507E+00
   Van der Waals                 :  0.250009E-01  0.364357E-02 -0.507796E-02
   ----------------------------------------------------------------
   Total forces(  17)            :  0.743698E-03 -0.327233E-02 -0.550365E-02
  atom #   18
   Hellmann-Feynman              :  0.247189E+01  0.185222E+00 -0.484894E+00
   Ionic forces                  :  0.000000E+00  0.000000E+00  0.000000E+00
   Multipole                     :  0.665117E+00 -0.261531E+00  0.151149E+00
   Pulay + GGA                   : -0.312245E+01  0.751378E-01  0.325131E+00
   Van der Waals                 : -0.157652E-01 -0.243769E-02  0.451395E-02
   ----------------------------------------------------------------
   Total forces(  18)            : -0.121523E-02 -0.360889E-02 -0.409958E-02
  atom #   19
   Hellmann-Feynman              : -0.145887E-01 -0.411658E-01  0.512655E-01
   Ionic forces                  :  0.000000E+00  0.000000E+00  0.000000E+00
   Multipole                     : -0.691860E-01 -0.553718E-01  0.516455E-01
   Pulay + GGA                   :  0.828342E-01  0.103530E+00 -0.105705E+00
   Van der Waals                 :  0.308845E-02 -0.677219E-02 -0.295521E-03
   ----------------------------------------------------------------
   Total forces(  19)            :  0.214792E-02  0.219980E-03 -0.308930E-02
  atom #   20
   Hellmann-Feynman              : -0.573983E-01 -0.311328E-01  0.122929E-01
   Ionic forces                  :  0.000000E+00  0.000000E+00  0.000000E+00
   Multipole                     :  0.982967E-01  0.107226E-01  0.866619E-01
   Pulay + GGA                   : -0.466928E-01  0.104974E-01 -0.933630E-01
   Van der Waals                 : -0.363771E-03  0.325986E-02 -0.149298E-02
   ----------------------------------------------------------------
   Total forces(  20)            : -0.615814E-02 -0.665297E-02  0.409888E-02
  atom #   21
   Hellmann-Feynman              : -0.503271E-01 -0.124793E-01  0.275331E-01
   Ionic forces                  :  0.000000E+00  0.000000E+00  0.000000E+00
   Multipole                     :  0.772279E-01 -0.956944E-01 -0.438420E-01
   Pulay + GGA                   : -0.357906E-01  0.980240E-01  0.195015E-01
   Van der Waals                 : -0.134828E-03  0.136275E-02 -0.291668E-02
   ----------------------------------------------------------------
   Total forces(  21)            : -0.902461E-02 -0.878687E-02  0.275805E-03
  atom #   22
   Hellmann-Feynman              : -0.299199E-01 -0.489782E-01  0.421348E-01
   Ionic forces                  :  0.000000E+00  0.000000E+00  0.000000E+00
   Multipole                     :  0.123909E+00  0.867005E-01 -0.790723E-01
   Pulay + GGA                   : -0.949955E-01 -0.360290E-01  0.283045E-01
   Van der Waals                 : -0.133461E-02 -0.154124E-02  0.184062E-02
   ----------------------------------------------------------------
   Total forces(  22)            : -0.234053E-02  0.152054E-03 -0.679241E-02

  Timings for VdW correction (Tkatchenko-Scheffler 2009 or later):
  | CPU time:        0.140 s, Wall clock time:        0.145 s.
  Removing unitary transformations (pure translations, rotations) from forces on atoms.
  Atomic forces before filtering:
  | Net force on center of mass :  -0.215417E-02 -0.176757E-02 -0.120986E-02 eV/A
  | Net torque on center of mass:  -0.607149E-03 -0.621370E-02  0.104646E-02 eV
  Atomic forces after filtering:
  | Net force on center of mass :   0.627209E-17 -0.121957E-17 -0.696899E-17 eV/A
  | Net torque on center of mass:  -0.437930E-17 -0.206518E-16 -0.267368E-16 eV

  Energy and forces in a compact form:
  | Total energy uncorrected      :         -0.134826118619017E+05 eV
  | Total energy corrected        :         -0.134826118619017E+05 eV  <-- do not rely on this value for anything but (periodic) metals
  | Electronic free energy        :         -0.134826118619017E+05 eV
  Total atomic forces (unitary forces cleaned) [eV/Ang]:
  |   1          0.384448564212859E-02          0.197296824402232E-02         -0.296001372666863E-02
  |   2          0.977165890876894E-03         -0.141253821771665E-02         -0.117337073945753E-02
  |   3          0.202707769428570E-02         -0.753824962725841E-02          0.453489630519350E-02
  |   4          0.174238730741309E-02         -0.106115703372662E-02         -0.250896934910005E-03
  |   5          0.518191710101768E-02         -0.125194723247983E-02         -0.692975548072510E-02
  |   6          0.127885700889267E-01         -0.299125673123401E-03          0.719846547748388E-02
  |   7         -0.221714554441261E-02          0.564370685636447E-03         -0.956981408969871E-03
  |   8         -0.485914376157282E-02          0.158830004797586E-02          0.115176133569850E-02
  |   9         -0.248399099480320E-02          0.445825159975821E-02          0.321534977079257E-02
  |  10          0.274463274901876E-03         -0.131756358869884E-02         -0.369190710485173E-02
  |  11          0.564158719453835E-02          0.875201540177113E-02          0.854849408401776E-02
  |  12         -0.311948069860688E-02         -0.963335622222886E-04          0.745942512635887E-02
  |  13          0.123626714491173E-04          0.509548375266132E-03         -0.408819254489867E-02
  |  14         -0.202145731202793E-02          0.387304894119224E-02         -0.264366632692060E-02
  |  15         -0.299925297973951E-02          0.100721117817994E-01          0.739605819278496E-02
  |  16          0.394473126767257E-03          0.276436173764695E-02         -0.100888158642938E-02
  |  17          0.851007519090271E-03         -0.320372509669277E-02         -0.554952524251618E-02
  |  18         -0.111041193474137E-02         -0.354665646846051E-02         -0.423724667962309E-02
  |  19          0.228702662158207E-02          0.277986265125796E-03         -0.311239904373278E-02
  |  20         -0.599186496302201E-02         -0.661662203445745E-02          0.393775361456661E-02
  |  21         -0.894866228468818E-02         -0.871645774630900E-02          0.994806614875699E-04
  |  22         -0.227111365936306E-02          0.227413200951325E-03         -0.693884774868069E-02

  ------------------------------------ 
  Start decomposition of the XC Energy 
  ------------------------------------ 
  X and C from original XC functional choice 
  Hartree-Fock Energy :          0.000000000 Ha              0.000000000 eV
  X Energy            :        -64.850858532 Ha          -1764.681646663 eV
  C Energy            :         -2.590688739 Ha            -70.496227397 eV
  Total XC Energy     :        -67.441547271 Ha          -1835.177874061 eV
  ------------------------------------ 
  LDA X and C from self-consistent density 
  X Energy LDA        :        -58.835300017 Ha          -1600.989970944 eV
  C Energy LDA        :         -5.051221239 Ha           -137.450723324 eV
  ------------------------------------ 
  End decomposition of the XC Energy 
  ------------------------------------ 

------------------------------------------------------------

------------------------------------------------------------------------------
  Final output of selected total energy values:

  The following output summarizes some interesting total energy values
  at the end of a run (AFTER all relaxation, molecular dynamics, etc.).

  | Total energy of the DFT / Hartree-Fock s.c.f. calculation      :         -13482.611861902 eV
  | Final zero-broadening corrected energy (caution - metals only) :         -13482.611861902 eV
  | For reference only, the value of 1 Hartree used in FHI-aims is :             27.211384500 eV

  Before relying on these values, please be sure to understand exactly which
  total energy value is referred to by a given number. Different objects may
  all carry the same name 'total energy'. Definitions:

  Total energy of the DFT / Hartree-Fock s.c.f. calculation:
  | Note that this energy does not include ANY quantities calculated after the
  | s.c.f. cycle, in particular not ANY RPA, MP2, etc. many-body perturbation terms.

  Final zero-broadening corrected energy:
  | For metallic systems only, a broadening of the occupation numbers at the Fermi
  | level can be extrapolated back to zero broadening by an electron-gas inspired
  | formula. For all systems that are not real metals, this value can be
  | meaningless and should be avoided.

------------------------------------------------------------------------------
  Methods described in the following list of references were used in this FHI-aims run.
  If you publish the results, please make sure to cite these reference if they apply.
  FHI-aims is an academic code, and for our developers (often, Ph.D. students
  and postdocs), scientific credit in the community is essential.
  Thank you for helping us!

  For any use of FHI-aims, please cite:

    Volker Blum, Ralf Gehrke, Felix Hanke, Paula Havu, Ville Havu,
    Xinguo Ren, Karsten Reuter, and Matthias Scheffler
    'Ab initio molecular simulations with numeric atom-centered orbitals'
    Computer Physics Communications 180, 2175-2196 (2009)
    http://dx.doi.org/10.1016/j.cpc.2009.06.022


  For the real-space grid partitioning and parallelization used in this calculation, please cite:

    Ville Havu, Volker Blum, Paula Havu, and Matthias Scheffler,
    'Efficient O(N) integration for all-electron electronic structure calculation'
    'using numerically tabulated basis functions'
    Journal of Computational Physics 228, 8367-8379 (2009).
    http://dx.doi.org/10.1016/j.jcp.2009.08.008

  Of course, there are many other important community references, e.g., those cited in the
  above references. Our list is limited to references that describe implementations in the
  FHI-aims code. The reason is purely practical (length of this list) - please credit others as well.

------------------------------------------------------------
          Leaving FHI-aims.
          Date     :  20180216, Time     :  134723.993

          Computational steps:
          | Number of self-consistency cycles          :           14
          | Number of SCF (re)initializations          :            1

          Detailed time accounting                     :  max(cpu_time)    wall_clock(cpu1)
          | Total time                                 :       30.664 s          30.678 s
          | Preparation time                           :        0.308 s           0.309 s
          | Boundary condition initalization           :        0.000 s           0.001 s
          | Grid partitioning                          :        0.136 s           0.135 s
          | Preloading free-atom quantities on grid    :        0.008 s           0.009 s
          | Free-atom superposition energy             :        0.068 s           0.066 s
          | Total time for integrations                :        9.364 s           9.350 s
          | Total time for solution of K.-S. equations :        0.192 s           0.167 s
          | Total time for density & force components  :        9.768 s           9.740 s
          | Total time for mixing                      :        0.324 s           0.305 s
          | Total time for Hartree multipole update    :        0.280 s           0.268 s
          | Total time for Hartree multipole sum       :        9.744 s           9.729 s
          | Total time for total energy evaluation     :        0.008 s           0.018 s
          | Total time for vdW correction              :        0.140 s           0.145 s

          Partial memory accounting:
          | Residual value for overall tracked memory usage across tasks :           0.000 MB (should be 0.000 MB)
          | Peak values for overall tracked memory usage (after allocating hessian_basis_wave):
          |   Minimum:        3.853 MB (on task 4)
          |   Maximum:        3.925 MB (on task 1)
          |   Average:        3.912 MB
          | Largest tracked array allocation (hessian_basis_wave):
          |   Minimum:        1.668 MB (on task 4)
          |   Maximum:        1.712 MB (on task 1)
          |   Average:        1.704 MB
          Note:  These values currently only include a subset of arrays which are explicitly tracked.
          The "true" memory usage will be greater.

          Have a nice day.
------------------------------------------------------------
