  MPI-parallelism will be employed.
------------------------------------------------------------
          Invoking FHI-aims ...
          Version 171221
          Git rev.: 70e78bb6 VB: Updated error message for aborted rel[...]
          Compiled on 2017/12/22 at 19:14:53 on host egr-vwb3-mbp2.local.

          When using FHI-aims, please cite the following reference:

          Volker Blum, Ralf Gehrke, Felix Hanke, Paula Havu,
          Ville Havu, Xinguo Ren, Karsten Reuter, and Matthias Scheffler,
          'Ab Initio Molecular Simulations with Numeric Atom-Centered Orbitals',
          Computer Physics Communications 180, 2175-2196 (2009)

          For any questions about FHI-aims, please visit the aimsclub website
          with its forums and wiki. Contributions to both the forums and the
          wiki are warmly encouraged - they are for you, and everyone is welcome there.

------------------------------------------------------------



  Date     :  20171223, Time     :  152954.877
  Time zero on CPU 1             :   0.104015000000000E+00  s.
  Internal wall clock time zero  :           283274994.877  s.

  FHI-aims created a unique identifier for this run for later identification
  aims_uuid : 13642557-CEEC-4FD6-AD70-2811DA8B5462

  Using        4 parallel tasks.
  Task        0 on host egr-vwb3-mbp2.netgear.com reporting.
  Task        1 on host egr-vwb3-mbp2.netgear.com reporting.
  Task        2 on host egr-vwb3-mbp2.netgear.com reporting.
  Task        3 on host egr-vwb3-mbp2.netgear.com reporting.

  Performing system and environment tests:
  *** Environment variable OMP_NUM_THREADS is not set
  *** For performance reasons you might want to set it to 1
  | Maximum stacksize for task 0: 48 [Mb]
  | Maximum stacksize for task 1: 48 [Mb]
  | Maximum stacksize for task 2: 48 [Mb]
  | Maximum stacksize for task 3: 48 [Mb]
   *** Stacksize is not set to unlimited. This might cause problems...
  | Current stacksize for task 0: 48 [Mb]
  | Current stacksize for task 1: 48 [Mb]
  | Current stacksize for task 2: 48 [Mb]
  | Current stacksize for task 3: 48 [Mb]
  | Checking for scalapack...
  | Testing pdtran()...
  | All pdtran() tests passed.

  Obtaining array dimensions for all initial allocations:
  
  -----------------------------------------------------------------------
  Parsing control.in (first pass over file, find array dimensions only).
  The contents of control.in will be repeated verbatim below
  unless switched off by setting 'verbatim_writeout .false.' .
  in the first line of control.in .
  -----------------------------------------------------------------------
  
  # Physical settings
    xc                 pw-lda
    spin               none
    relativistic       atomic_zora scalar
  
  # k-point grid
    k_grid  12 12 12
  
  # output DOS
    output dos -18.  0.  200  0.05
    dos_kgrid_factors 8 8 8
  
  # output band structure
    output band 0.5   0.5   0.5    0.0   0.0   0.0    50  L     Gamma
    output band 0.0   0.0   0.0    0.0   0.5   0.5    50  Gamma X
    output band 0.0   0.5   0.5    0.25  0.5   0.75   50  X     W
    output band 0.25  0.5   0.75   0.375 0.375 0.375  50  W     K
  
  ################################################################################
  #
  #  FHI-aims code project
  #  VB, Fritz-Haber Institut, 2009
  #
  #  Suggested "light" defaults for Si atom (to be pasted into control.in file)
  #  Be sure to double-check any results obtained with these settings for post-processing,
  #  e.g., with the "tight" defaults and larger basis sets.
  #
  ################################################################################
    species        Si
  #     global species definitions
      nucleus             14
      mass                28.0855
  #
      l_hartree           4
  #
      cut_pot             3.5          1.5  1.0
      basis_dep_cutoff    1e-4
  #
      radial_base         42 5.0
      radial_multiplier   1
      angular_grids       specified
        division   0.5866   50
        division   0.9616  110
        division   1.2249  194
        division   1.3795  302
  #      division   1.4810  434
  #      division   1.5529  590
  #      division   1.6284  770
  #      division   1.7077  974
  #      division   2.4068 1202
  #      outer_grid   974
        outer_grid 302
  ################################################################################
  #
  #  Definition of "minimal" basis
  #
  ################################################################################
  #     valence basis states
      valence      3  s   2.
      valence      3  p   2.
  #     ion occupancy
      ion_occ      3  s   1.
      ion_occ      3  p   1.
  ################################################################################
  #
  #  Suggested additional basis functions. For production calculations,
  #  uncomment them one after another (the most important basis functions are
  #  listed first).
  #
  #  Constructed for dimers: 1.75 A, 2.0 A, 2.25 A, 2.75 A, 3.75 A
  #
  ################################################################################
  #  "First tier" - improvements: -571.96 meV to -37.03 meV
       hydro 3 d 4.2
       hydro 2 p 1.4
  #     hydro 4 f 6.2
       ionic 3 s auto
  #  "Second tier" - improvements: -16.76 meV to -3.03 meV
  #     hydro 3 d 9
  #     hydro 5 g 9.4
  #     hydro 4 p 4
  #     hydro 1 s 0.65
  #  "Third tier" - improvements: -3.89 meV to -0.60 meV
  #     ionic 3 d auto
  #     hydro 3 s 2.6
  #     hydro 4 f 8.4
  #     hydro 3 d 3.4
  #     hydro 3 p 7.8
  #  "Fourth tier" - improvements: -0.33 meV to -0.11 meV
  #     hydro 2 p 1.6
  #     hydro 5 g 10.8
  #     hydro 5 f 11.2
  #     hydro 3 d 1
  #     hydro 4 s 4.5
  #  Further basis functions that fell out of the optimization - noise
  #  level... < -0.08 meV
  #     hydro 4 d 6.6
  #     hydro 5 g 16.4
  #     hydro 4 d 9
  
  -----------------------------------------------------------------------
  Completed first pass over input file control.in .
  -----------------------------------------------------------------------
  
  
  -----------------------------------------------------------------------
  Parsing geometry.in (first pass over file, find array dimensions only).
  The contents of geometry.in will be repeated verbatim below
  unless switched off by setting 'verbatim_writeout .false.' .
  in the first line of geometry.in .
  -----------------------------------------------------------------------
  
  # Diamond structure with lattice constant 5.416 AA.
  lattice_vector    0.0    2.708   2.708
  lattice_vector    2.708   0.0    2.708
  lattice_vector    2.708   2.708   0.0
  
  atom_frac          0.0    0.0    0.0   Si
  atom_frac          0.25   0.25   0.25  Si
  
  -----------------------------------------------------------------------
  Completed first pass over input file geometry.in .
  -----------------------------------------------------------------------
  

  Basic array size parameters:
  | Number of species                 :        1
  | Number of atoms                   :        2
  | Number of lattice vectors         :        3
  | Max. basis fn. angular momentum   :        2
  | Max. atomic/ionic basis occupied n:        3
  | Max. number of basis fn. types    :        3
  | Max. radial fns per species/type  :        5
  | Max. logarithmic grid size        :     1346
  | Max. radial integration grid size :       42
  | Max. angular integration grid size:      302
  | Max. angular grid division number :        8
  | Radial grid for Hartree potential :     1346
  | Number of spin channels           :        1

------------------------------------------------------------
          Reading file control.in.
------------------------------------------------------------
  XC: Using Perdew-Wang parametrisation of Ceperley-Alder LDA.
  Spin treatment: No spin polarisation.
  Scalar relativistic treatment of kinetic energy: on-site free-atom approximation to ZORA.
  Found k-point grid:        12        12        12
  Calculating density of states with
  | energy interval :-18.000000  0.000000
  | points & broadening :   200  0.050000
  Found k-point grid multipliers for perturbative DOS :         8         8         8

  Plot band    1
  | begin  0.500000  0.500000  0.500000
  | end    0.000000  0.000000  0.000000
  | number of points:   50

  Plot band    2
  | begin  0.000000  0.000000  0.000000
  | end    0.000000  0.500000  0.500000
  | number of points:   50

  Plot band    3
  | begin  0.000000  0.500000  0.500000
  | end    0.250000  0.500000  0.750000
  | number of points:   50

  Plot band    4
  | begin  0.250000  0.500000  0.750000
  | end    0.375000  0.375000  0.375000
  | number of points:   50
 
  Reading configuration options for species Si                  .
  | Found nuclear charge :  14.0000
  | Found atomic mass :    28.0855000000000      amu
  | Found l_max for Hartree potential  :   4
  | Found cutoff potl. onset [A], width [A], scale factor :    3.50000    1.50000    1.00000
  | Threshold for basis-dependent cutoff potential is   0.100000E-03
  | Found data for basic radial integration grid :    42 points, outermost radius =    5.000 A
  | Found multiplier for basic radial grid :   1
  | Found angular grid specification: user-specified.
  | Specified grid contains     5 separate shells.
  | Check grid settings after all constraints further below.
  | Found free-atom valence shell :  3 s   2.000
  | Found free-atom valence shell :  3 p   2.000
  | Found free-ion valence shell :  3 s   1.000
  | Found free-ion valence shell :  3 p   1.000
  | Found hydrogenic basis function :  3 d   4.200
  | Found hydrogenic basis function :  2 p   1.400
  | Found ionic basis function :  3 s , default cutoff radius.
  Species Si                  : Missing cutoff potential type.
  Defaulting to exp(1/x)/(1-x)^2 type cutoff potential.
  Species Si: No 'logarithmic' tag. Using default grid for free atom:
  | Default logarithmic grid data [bohr] : 0.1000E-03 0.1000E+03 0.1012E+01
  | Will include ionic basis functions of  2.0-fold positive Si                   ion.
  Species Si: On-site basis accuracy parameter (for Gram-Schmidt orthonormalisation) not specified.
  Using default value basis_acc =  0.1000000E-03.
  Species Si                  : Using default innermost maximum threshold i_radial=  2 for radial functions.
  Species Si                  : Default cutoff onset for free atom density etc. : 0.35000000E+01 AA.
  Species Si                  : Basic radial grid will be enhanced according to radial_multiplier =   1, to contain    42 grid points.
 
  Finished reading input file 'control.in'. Consistency checks are next.
 
  MPI_IN_PLACE appears to work with this MPI implementation.
  | Keeping use_mpi_in_place .true. (see manual).
  Target number of points in a grid batch is not set. Defaulting to  100
  Method for grid partitioning is not set. Defaulting to parallel hash+maxmin partitioning.
  Batch size limit is not set. Defaulting to    200
  By default, will store active basis functions for each batch.
  If in need of memory, prune_basis_once .false. can be used to disable this option.
  communication_type for Hartree potential was not specified.
  Defaulting to calc_hartree .
  Defaulting to Pulay charge density mixer.
  Pulay mixer: Number of relevant iterations not set.
  Defaulting to    8 iterations.
  Pulay mixer: Number of initial linear mixing iterations not set.
  Defaulting to    0 iterations.
  Work space size for distributed Hartree potential not set.
  Defaulting to   0.200000E+03 MB.
  Mixing parameter for charge density mixing has not been set.
  Using default: charge_mix_param =     0.0500.
  The mixing parameter will be adjusted in iteration number     2 of the first full s.c.f. cycle only.
  Algorithm-dependent basis array size parameters:
  | n_max_pulay                         :        8
 * Notice: The s.c.f. convergence criterion sc_accuracy_rho was not provided.
 * We used to stop in this case, and ask the user to provide reasonable
 * scf convergence criteria. However, this led some users to employ criteria
 * that led to extremely long run times, e.g., for simple relaxation.
 * We now preset a default value for sc_accuracy_rho if it is not set.
 * You may still wish to check if this setting is too tight or too loose for your needs.
 * Based on n_atoms, FHI-aims chose sc_accuracy_rho =  0.100000E-05 .
  Maximum number of self-consistency iterations not provided.
  Presetting  1000 iterations.
  Presetting        40 iterations before the initial mixing cycle
  is restarted anyway using the sc_init_iter criterion / keyword.
  Presetting a factor      1.000 between actual scf density residual
  and density convergence criterion sc_accuracy_rho below which sc_init_iter
  takes no effect.
 * No s.c.f. convergence criteria (sc_accuracy_*) were provided in control.in.
 * The run will proceed with a reasonable default guess, but please check whether.
 * the s.c.f. cycles seem to take too much or too little time.
  Calculation of forces was not defined in control.in. No forces will be calculated.
  Geometry relaxation not requested: no relaxation will be performed.
  No accuracy limit for integral partition fn. given. Defaulting to  0.1000E-14.
  No threshold value for u(r) in integrations given. Defaulting to  0.1000E-05.
  No occupation type (smearing scheme) given. Defaulting to Gaussian broadening, width =  0.1000E-01 eV.
  The width will be adjusted in iteration number     2 of the first full s.c.f. cycle only.
  S.C.F. convergence parameters will be adjusted in iteration number     2 of the first full s.c.f. cycle only.
  No accuracy for occupation numbers given. Defaulting to  0.1000E-12.
  No threshold value for occupation numbers given. Defaulting to  0.0000E+00.
  No accuracy for fermi level given. Defaulting to  0.1000E-19.
  Maximum # of iterations to find E_F not set. Defaulting to  200.
  Preferred method for the eigenvalue solver ('KS_method') not specified in 'control.in'.
  Defaulting to serial version, 'lapack_fast', since more k-points than CPUs available.
  Will not use alltoall communication since running on < 1024 CPUs.
  Threshold for basis singularities not set.
  Default threshold for basis singularities:  0.1000E-04
  partition_type (choice of integration weights) for integrals was not specified.
  | Using a version of the partition function of Stratmann and coworkers ('stratmann_smoother').
  | At each grid point, the set of atoms used to build the partition table is smoothly restricted to
  | only those atoms whose free-atom density would be non-zero at that grid point.
  Partitioning for Hartree potential was not defined. Using partition_type for integrals.
  | Adjusted default value of keyword multip_moments_threshold to:       0.10000000E-11
  | This value may affect high angular momentum components of the Hartree potential in periodic systems.
  Angular momentum expansion for Kerker preconditioner not set explicitly.
  | Using default value of   0
  No explicit requirement for turning off preconditioner.
  | By default, it will be turned off when the charge convergence reaches
  | sc_accuracy_rho  =   0.100000E-05
  No special mixing parameter while Kerker preconditioner is on.
  Using default: charge_mix_param =     0.0500.
  No q(lm)/r^(l+1) cutoff set for long-range Hartree potential.
  | Using default value of  0.100000E-09 .
  | Verify using the multipole_threshold keyword.
  Defaulting to new monopole extrapolation.
  Density update method: automatic selection selected.
  Using density matrix based charge density update.
  Using density matrix based charge density update.
  Using packed matrix style: index .
  Defaulting to use time-reversal symmetry for k-point grid.
------------------------------------------------------------


------------------------------------------------------------
          Reading geometry description geometry.in.
------------------------------------------------------------
  Input structure read successfully.
  The structure contains        2 atoms,  and a total of         28.000 electrons.

  Input geometry:
  | Unit cell:
  |        0.00000000        2.70800000        2.70800000
  |        2.70800000        0.00000000        2.70800000
  |        2.70800000        2.70800000        0.00000000
  | Atomic structure:
  |       Atom                x [A]            y [A]            z [A]
  |    1: Species Si            0.00000000        0.00000000        0.00000000
  |    2: Species Si            1.35400000        1.35400000        1.35400000

  Lattice parameters for 3D lattice (in Angstroms) :     3.829690    3.829690    3.829690
  Angle(s) between unit vectors (in degrees)      :    60.000000   60.000000   60.000000


  Symmetry information by spglib:
  | Precision set to  0.1E-04
  | Number of Operations  : 48
  | Space group           : 227
  | International         : Fd-3m
  | Schoenflies           : Oh^7
  |

  | The smallest distance between any two atoms is         2.34519679 AA.
  |
  | The first atom of this pair is atom number                      1 .
  | The second atom of this pair is atom number                     2 .
  | Wigner-Seitz cell of the first atom image           0     0     1 .
  | (The Wigner-Seitz cell of the second atom is 0 0 0  by definition.)

  Quantities derived from the lattice vectors:
  | Reciprocal lattice vector 1: -1.160115  1.160115  1.160115
  | Reciprocal lattice vector 2:  1.160115 -1.160115  1.160115
  | Reciprocal lattice vector 3:  1.160115  1.160115 -1.160115
  | Unit cell volume                               :   0.397170E+02  A^3

  Range separation radius for Ewald summation (hartree_convergence_parameter):      3.87713314 bohr.

  Fractional coordinates:
                         L1                L2                L3
       atom_frac         0.00000000        0.00000000        0.00000000  Si
       atom_frac         0.25000000        0.25000000        0.25000000  Si

  Number of empty states per atom not set in control.in - providing a guess from actual geometry.
  | Total number of empty states used during s.c.f. cycle:        6
  If you use a very high smearing, use empty_states (per atom!) in control.in to increase this value.

  Structure-dependent array size parameters: 
  | Maximum number of distinct radial functions  :        8
  | Maximum number of basis functions            :       36
  | Number of Kohn-Sham states (occupied + empty):       20
------------------------------------------------------------

------------------------------------------------------------
          Preparing all fixed parts of the calculation.
------------------------------------------------------------
  Determining machine precision:
    2.225073858507201E-308
  Setting up grids for atomic and cluster calculations.

  Creating wave function, potential, and density for free atoms.

  Species: Si

  List of occupied orbitals and eigenvalues:
    n    l              occ      energy [Ha]    energy [eV]
    1    0           2.0000       -65.491668     -1782.1190
    2    0           2.0000        -5.087967      -138.4506
    3    0           2.0000        -0.391471       -10.6525
    2    1           6.0000        -3.502246       -95.3010
    3    1           2.0000        -0.143943        -3.9169

  Creating fixed part of basis set: Ionic, confined, hydrogenic.
 
  Si                   ion:

  List of free ionic orbitals and eigenvalues:
    n    l      energy [Ha]    energy [eV]
    1    0       -66.364436     -1805.8682
    2    0        -5.935799      -161.5213
    3    0        -1.078166       -29.3384
    2    1        -4.351123      -118.4001
    3    1        -0.781733       -21.2720


  List of ionic basis orbitals and eigenvalues:
    n    l      energy [Ha]    energy [eV]    outer radius [A]
    3    0        -1.078146       -29.3378       4.214062

 
  Si                   hydrogenic:
 
  List of hydrogenic basis orbitals: 
    n    l      effective z      eigenvalue [eV]  inner max. [A]     outer max. [A]     outer radius [A]   
    3    2         4.200000       -26.6624           1.139231           1.139231           4.534782
    2    1         1.400000        -6.4613           1.472672           1.472672           4.590560
 

  Adding cutoff potential to free-atom effective potential.
  Creating atomic-like basis functions for current effective potential.

  Species Si                  :

  List of atomic basis orbitals and eigenvalues:
    n    l      energy [Ha]    energy [eV]    outer radius [A]
    1    0       -65.491668     -1782.1190       0.789468
    2    0        -5.087967      -138.4506       2.815114
    3    0        -0.391471       -10.6525       4.534782
    2    1        -3.502246       -95.3010       3.259919
    3    1        -0.143943        -3.9169       4.590560

  Assembling full basis from fixed parts.
  | Species Si :   atomic orbital   1 s accepted.
  | Species Si :   atomic orbital   2 s accepted.
  | Species Si :    ionic orbital   3 s accepted.
  | Species Si :   atomic orbital   3 s accepted.
  | Species Si :   atomic orbital   2 p accepted.
  | Species Si :   atomic orbital   3 p accepted.
  | Species Si :    hydro orbital   2 p accepted.
  | Species Si :    hydro orbital   3 d accepted.
 
  Basis size parameters after reduction:
  | Total number of radial functions:        8
  | Total number of basis functions :       36
 
  Per-task memory consumption for arrays in subroutine allocate_ext:
  |           2.757868MB.
  Testing on-site integration grid accuracy.
  |  Species  Function  <phi|h_atom|phi> (log., in eV)  <phi|h_atom|phi> (rad., in eV)
           1        1              -1782.1189727076              -1782.1182429251
           1        2               -138.4506350693               -138.4506310079
           1        3                -10.3030408815                -10.3029120678
           1        4                  5.0238999146                  4.9457540310 ***
           1        5                -95.3009689499                -95.3009689315
           1        6                 -3.9266496564                 -3.9420918374
           1        7                  6.3453628447                  6.1632372158 ***
           1        8                  6.2883050744                  6.2861881409
 * Note: Onsite integrals marked "***" above are less accurate than
 * onsite_accuracy_threshold =    0.03000 eV. Usually, this is harmless.
 * When in doubt, tighten the "radial" and/or "radial_multiplier" flags to check.

  Preparing densities etc. for the partition functions (integrals / Hartree potential).

  Preparations completed.
  max(cpu_time)          :      0.141 s.
  Wall clock time (cpu1) :      0.151 s.
------------------------------------------------------------

------------------------------------------------------------
          Begin self-consistency loop: Initialization.

          Date     :  20171223, Time     :  152955.139
------------------------------------------------------------

  Initializing index lists of integration centers etc. from given atomic structure:
  Mapping all atomic coordinates to central unit cell.

  Initializing the k-points
          Using symmetry for reducing the k-points
  | k-points reduced from:     1728 to      868
  | Number of k-points                             :       868
  The eigenvectors in the calculations are COMPLEX.
  | K-points in task   0:       217
  | K-points in task   1:       217
  | K-points in task   2:       217
  | K-points in task   3:       217
  | Number of basis functions in the Hamiltonian integrals :      1472
  | Number of basis functions in a single unit cell        :        36
  | Number of centers in hartree potential         :       732
  | Number of centers in hartree multipole         :       318
  | Number of centers in electron density summation:       198
  | Number of centers in basis integrals           :       228
  | Number of centers in integrals                 :       101
  | Number of centers in hamiltonian               :       198
  | Consuming       1519 KiB for k_phase.
  | Number of super-cells (origin) [n_cells]                     :        2197
  | Number of super-cells (after PM_index) [n_cells]             :         112
  | Number of super-cells in hamiltonian [n_cells_in_hamiltonian]:         112
  | Size of matrix packed + index [n_hamiltonian_matrix_size] :       43359
  Partitioning the integration grid into batches with parallel hashing+maxmin method.
  | Number of batches:      142
  | Maximal batch size:     108
  | Minimal batch size:      50
  | Average batch size:      78.930
  | Standard deviation of batch sizes:      15.227

  Integration load balanced across     4 MPI tasks.
  Work distribution over tasks is as follows:
  Task     0 has       2834 integration points.
  Task     1 has       2811 integration points.
  Task     2 has       2752 integration points.
  Task     3 has       2811 integration points.
  Initializing partition tables, free-atom densities, potentials, etc. across the integration grid (initialize_grid_storage).
  | initialize_grid_storage: Actual outermost partition radius vs. multipole_radius_free
  | (-- VB: in principle, multipole_radius_free should be larger, hence this output)
  | Species        1: Confinement radius =              4.999999999999999 AA, multipole_radius_free =              5.000694715736543 AA.
  | Species        1: outer_partition_radius set to              5.000694715736543 AA .
  | Original list of interatomic distances with         228 x        228 entries is created.
  | Net number of integration points:    11208
  | of which are non-zero points    :     9772
  | Numerical average free-atom electrostatic potential    :    -13.24974535 eV
  Renormalizing the initial density to the exact electron count on the 3D integration grid.
  | Initial density: Formal number of electrons (from input files) :      28.0000000000
  | Integrated number of electrons on 3D grid     :      28.0051623324
  | Charge integration error                      :       0.0051623324
  | Normalization factor for density and gradient :       0.9998156650
  Obtaining max. number of non-zero basis functions in each batch (get_n_compute_maxes).
  | Maximal number of non-zero basis functions:      478 in task     0
  | Maximal number of non-zero basis functions:      483 in task     1
  | Maximal number of non-zero basis functions:      467 in task     2
  | Maximal number of non-zero basis functions:      462 in task     3
  Allocating        2.500 MB for KS_eigenvector_complex
  Integrating Hamiltonian matrix: batch-based integration.
  Time summed over all CPUs for integration: real work        0.432 s, elapsed        0.439 s
  Integrating overlap matrix.
  Time summed over all CPUs for integration: real work        0.360 s, elapsed        0.370 s
  Decreasing sparse matrix size:
   Tolerance:  9.999999824516700E-014
   Hamiltonian matrix
  | Array has    37037 nonzero elements out of    43359 elements
  | Sparsity factor is 0.146
   Overlap matrix
  | Array has    36108 nonzero elements out of    43359 elements
  | Sparsity factor is 0.167
  New size of hamiltonian matrix:       37295

  Updating Kohn-Sham eigenvalues and eigenvectors using ELSI and the ELPA eigensolver.
  Overlap matrix is nonsingular
  | Lowest eigenvalue of overlap  :  0.63E-03
  | Highest eigenvalue of overlap :  0.73E+01
  Finished singularity check of overlap matrix
  | Time :     0.001 s
  Finished Cholesky decomposition
  | Time :     0.000 s
  Finished transformation to standard eigenproblem
  | Time :     0.000 s
  Starting LAPACK eigensolver
  Finished solving standard eigenproblem
  | Time :     0.006 s
  Finished back-transformation of eigenvectors
  | Time :     0.000 s

  Obtaining occupation numbers and chemical potential using ELSI.
  | Chemical potential (Fermi level):    -5.55717316eV
  Writing Kohn-Sham eigenvalues.
  K-point:       1 at    0.000000    0.000000    0.000000 (in units of recip. lattice)

  State    Occupation    Eigenvalue [Ha]    Eigenvalue [eV]
      1       2.00000         -65.513794        -1782.72104
      2       2.00000         -65.513794        -1782.72104
      3       2.00000          -5.115259         -139.19328
      4       2.00000          -5.114945         -139.18473
      5       2.00000          -3.529543          -96.04374
      6       2.00000          -3.529543          -96.04374
      7       2.00000          -3.529543          -96.04374
      8       2.00000          -3.528882          -96.02576
      9       2.00000          -3.528882          -96.02576
     10       2.00000          -3.528882          -96.02576
     11       2.00000          -0.670196          -18.23696
     12       2.00000          -0.234100           -6.37018
     13       2.00000          -0.234100           -6.37018
     14       2.00000          -0.234100           -6.37018
     15       0.00000          -0.130070           -3.53939
     16       0.00000          -0.130070           -3.53939
     17       0.00000          -0.130070           -3.53939
     18       0.00000          -0.108133           -2.94246
     19       0.00000           0.064991            1.76848
     20       0.00000           0.064991            1.76848

  What follows are estimated values for band gap, HOMO, LUMO, etc.
  | They are estimated on a discrete k-point grid and not necessarily exact.
  | For converged numbers, create a DOS and/or band structure plot on a denser k-grid.

  Highest occupied state (VBM) at     -6.37018008 eV (relative to internal zero)
  | Occupation number:      2.00000000
  | K-point:       1 at    0.000000    0.000000    0.000000 (in units of recip. lattice)

  Lowest unoccupied state (CBM) at    -5.51498388 eV (relative to internal zero)
  | Occupation number:      0.00000000
  | K-point:      48 at    0.000000    0.416667    0.416667 (in units of recip. lattice)

  ESTIMATED overall HOMO-LUMO gap:      0.85519620 eV between HOMO at k-point 1 and LUMO at k-point 48
  | This appears to be an indirect band gap.
  | Smallest direct gap :      2.82497467 eV for k_point 615 at    0.000000    0.416667    0.416667 (in units of recip. lattice)
  The gap value is above 0.2 eV. Unless you are using a very sparse k-point grid,
  this system is most likely an insulator or a semiconductor.
  Calculating total energy contributions from superposition of free atom densities.

  Total energy components:
  | Sum of eigenvalues            :        -328.20282508 Ha       -8930.85326726 eV
  | XC energy correction          :         -39.66454413 Ha       -1079.32716132 eV
  | XC potential correction       :          52.40324389 Ha        1425.96481849 eV
  | Free-atom electrostatic energy:        -263.27917698 Ha       -7164.19091561 eV
  | Hartree energy correction     :           0.00000000 Ha           0.00000000 eV
  | Entropy correction            :          -0.00000000 Ha          -0.00000000 eV
  | ---------------------------
  | Total energy                  :        -578.74330230 Ha      -15748.40652571 eV
  | Total energy, T -> 0          :        -578.74330230 Ha      -15748.40652571 eV  <-- do not rely on this value for anything but (periodic) metals
  | Electronic free energy        :        -578.74330230 Ha      -15748.40652571 eV

  Derived energy quantities:
  | Kinetic energy                :         579.71714570 Ha       15774.90615279 eV
  | Electrostatic energy          :       -1118.79590387 Ha      -30443.98551718 eV
  | Energy correction for multipole
  | error in Hartree potential    :           0.00000000 Ha           0.00000000 eV
  | Sum of eigenvalues per atom                           :       -4465.42663363 eV
  | Total energy (T->0) per atom                          :       -7874.20326285 eV  <-- do not rely on this value for anything but (periodic) metals
  | Electronic free energy per atom                       :       -7874.20326285 eV
  Initialize hartree_potential_storage
  Max. number of atoms included in rho_multipole:            2

  End scf initialization - timings             :  max(cpu_time)    wall_clock(cpu1)
  | Time for scf. initialization               :        0.523 s           0.550 s
  | Boundary condition initialization          :        0.072 s           0.076 s
  | Integration                                :        0.198 s           0.204 s
  | Solution of K.-S. eqns.                    :        0.155 s           0.163 s
  | Grid partitioning                          :        0.025 s           0.026 s
  | Preloading free-atom quantities on grid    :        0.001 s           0.001 s
  | Free-atom superposition energy             :        0.011 s           0.010 s
  | Total energy evaluation                    :        0.001 s           0.001 s

  Partial memory accounting:
  | Current value for overall tracked memory usage on task 0  :           3.246 MB
  | Peak value for overall tracked memory usage on task 0     :           6.434 MB after allocating wave
  | Largest tracked array allocation on task 0 so far         :           2.500 MB  when allocating +KS_eigenvector_complex
  Note:  These values currently only include a subset of arrays which are explicitly tracked.
  The "true" memory usage will be greater.
------------------------------------------------------------

------------------------------------------------------------
          Begin self-consistency iteration #    1

  Date     :  20171223, Time     :  152955.689
------------------------------------------------------------
  Evaluating new KS density using the density matrix
  Evaluating density matrix
  Time summed over all CPUs for getting density from density matrix: real work        0.345 s, elapsed        0.353 s
  Integration grid: deviation in total charge (<rho> - N_e) =   8.412826E-12
  Pulay mixing of updated and previous charge densities.

  Evaluating partitioned Hartree potential by multipole expansion.
  | Analytical far-field extrapolation by fixed multipoles:
  | Hartree multipole sum: apparent total charge =   0.538053E-02
  Summing up the Hartree potential.
  | Estimated reciprocal-space cutoff momentum G_max:         2.40812425 bohr^-1 .
  | Reciprocal lattice points for long-range Hartree potential:      58
  Time summed over all CPUs for potential: real work        0.377 s, elapsed        0.385 s
  | RMS charge density error from multipole expansion :   0.538389E-03
  | Average real-space part of the electrostatic potential :     -0.00446140 eV

  Integrating Hamiltonian matrix: batch-based integration.
  Time summed over all CPUs for integration: real work        0.348 s, elapsed        0.357 s

  Updating Kohn-Sham eigenvalues and eigenvectors using ELSI and the ELPA eigensolver.
  Finished Cholesky decomposition
  | Time :     0.000 s
  Finished transformation to standard eigenproblem
  | Time :     0.000 s
  Starting LAPACK eigensolver
  Finished solving standard eigenproblem
  | Time :     0.000 s
  Finished back-transformation of eigenvectors
  | Time :     0.000 s

  Obtaining occupation numbers and chemical potential using ELSI.
  | Chemical potential (Fermi level):    -5.55058189eV
  Writing Kohn-Sham eigenvalues.
  K-point:       1 at    0.000000    0.000000    0.000000 (in units of recip. lattice)

  State    Occupation    Eigenvalue [Ha]    Eigenvalue [eV]
      1       2.00000         -65.517128        -1782.81175
      2       2.00000         -65.517128        -1782.81175
      3       2.00000          -5.115865         -139.20977
      4       2.00000          -5.115552         -139.20124
      5       2.00000          -3.530243          -96.06279
      6       2.00000          -3.530243          -96.06279
      7       2.00000          -3.530243          -96.06279
      8       2.00000          -3.529584          -96.04485
      9       2.00000          -3.529584          -96.04485
     10       2.00000          -3.529584          -96.04485
     11       2.00000          -0.669651          -18.22213
     12       2.00000          -0.233322           -6.34902
     13       2.00000          -0.233322           -6.34902
     14       2.00000          -0.233322           -6.34902
     15       0.00000          -0.129681           -3.52880
     16       0.00000          -0.129681           -3.52880
     17       0.00000          -0.129681           -3.52880
     18       0.00000          -0.107471           -2.92443
     19       0.00000           0.065464            1.78136
     20       0.00000           0.065464            1.78136

  What follows are estimated values for band gap, HOMO, LUMO, etc.
  | They are estimated on a discrete k-point grid and not necessarily exact.
  | For converged numbers, create a DOS and/or band structure plot on a denser k-grid.

  Highest occupied state (VBM) at     -6.34901522 eV (relative to internal zero)
  | Occupation number:      2.00000000
  | K-point:       1 at    0.000000    0.000000    0.000000 (in units of recip. lattice)

  Lowest unoccupied state (CBM) at    -5.50838888 eV (relative to internal zero)
  | Occupation number:      0.00000000
  | K-point:     552 at    0.416667    0.416667    0.000000 (in units of recip. lattice)

  ESTIMATED overall HOMO-LUMO gap:      0.84062634 eV between HOMO at k-point 1 and LUMO at k-point 552
  | This appears to be an indirect band gap.
  | Smallest direct gap :      2.81833588 eV for k_point 615 at    0.416667    0.416667    0.000000 (in units of recip. lattice)
  The gap value is above 0.2 eV. Unless you are using a very sparse k-point grid,
  this system is most likely an insulator or a semiconductor.

  Total energy components:
  | Sum of eigenvalues            :        -328.22223316 Ha       -8931.38138783 eV
  | XC energy correction          :         -39.66740310 Ha       -1079.40495795 eV
  | XC potential correction       :          52.40701481 Ha        1426.06743037 eV
  | Free-atom electrostatic energy:        -263.27917698 Ha       -7164.19091561 eV
  | Hartree energy correction     :           0.01908050 Ha           0.51920673 eV
  | Entropy correction            :          -0.00000000 Ha          -0.00000000 eV
  | ---------------------------
  | Total energy                  :        -578.74271793 Ha      -15748.39062430 eV
  | Total energy, T -> 0          :        -578.74271793 Ha      -15748.39062430 eV  <-- do not rely on this value for anything but (periodic) metals
  | Electronic free energy        :        -578.74271793 Ha      -15748.39062430 eV

  Derived energy quantities:
  | Kinetic energy                :         579.57422304 Ha       15771.01702955 eV
  | Electrostatic energy          :       -1118.64953788 Ha      -30440.00269589 eV
  | Energy correction for multipole
  | error in Hartree potential    :           0.00071044 Ha           0.01933211 eV
  | Sum of eigenvalues per atom                           :       -4465.69069392 eV
  | Total energy (T->0) per atom                          :       -7874.19531215 eV  <-- do not rely on this value for anything but (periodic) metals
  | Electronic free energy per atom                       :       -7874.19531215 eV

  Self-consistency convergence accuracy:
  | Change of charge density      :  0.1057E+00
  | Change of sum of eigenvalues  : -0.5281E+00 eV
  | Change of total energy        :  0.1590E-01 eV

  End self-consistency iteration #     1       :  max(cpu_time)    wall_clock(cpu1)
  | Time for this iteration                    :        0.417 s           0.425 s
  | Charge density update                      :        0.109 s           0.112 s
  | Density mixing & preconditioning           :        0.014 s           0.014 s
  | Hartree multipole update                   :        0.001 s           0.001 s
  | Hartree multipole summation                :        0.096 s           0.098 s
  | Integration                                :        0.089 s           0.091 s
  | Solution of K.-S. eqns.                    :        0.107 s           0.108 s
  | Total energy evaluation                    :        0.000 s           0.000 s

  Partial memory accounting:
  | Current value for overall tracked memory usage on task 0  :           3.246 MB
  | Peak value for overall tracked memory usage on task 0     :           6.434 MB after allocating wave
  | Largest tracked array allocation on task 0 so far         :           2.500 MB  when allocating +KS_eigenvector_complex
  Note:  These values currently only include a subset of arrays which are explicitly tracked.
  The "true" memory usage will be greater.
------------------------------------------------------------

------------------------------------------------------------
          Begin self-consistency iteration #    2

  Date     :  20171223, Time     :  152956.115
------------------------------------------------------------
  Evaluating new KS density using the density matrix
  Evaluating density matrix
  Time summed over all CPUs for getting density from density matrix: real work        0.306 s, elapsed        0.313 s
  Integration grid: deviation in total charge (<rho> - N_e) =   8.391510E-12
  Pulay mixing of updated and previous charge densities.

  Evaluating partitioned Hartree potential by multipole expansion.
  | Analytical far-field extrapolation by fixed multipoles:
  | Hartree multipole sum: apparent total charge =   0.935731E-02
  Summing up the Hartree potential.
  Time summed over all CPUs for potential: real work        0.451 s, elapsed        0.459 s
  | RMS charge density error from multipole expansion :   0.105438E-01
  | Average real-space part of the electrostatic potential :      0.33768799 eV

  Integrating Hamiltonian matrix: batch-based integration.
  Time summed over all CPUs for integration: real work        0.360 s, elapsed        0.376 s

  Updating Kohn-Sham eigenvalues and eigenvectors using ELSI and the ELPA eigensolver.
  Finished Cholesky decomposition
  | Time :     0.000 s
  Finished transformation to standard eigenproblem
  | Time :     0.000 s
  Starting LAPACK eigensolver
  Finished solving standard eigenproblem
  | Time :     0.000 s
  Finished back-transformation of eigenvectors
  | Time :     0.000 s

  Obtaining occupation numbers and chemical potential using ELSI.
  | Chemical potential (Fermi level):    -5.38609828eV
  What follows are estimated values for band gap, HOMO, LUMO, etc.
  | They are estimated on a discrete k-point grid and not necessarily exact.
  | For converged numbers, create a DOS and/or band structure plot on a denser k-grid.

  Highest occupied state (VBM) at     -5.78279600 eV (relative to internal zero)
  | Occupation number:      2.00000000
  | K-point:       1 at    0.000000    0.000000    0.000000 (in units of recip. lattice)

  Lowest unoccupied state (CBM) at    -5.34391203 eV (relative to internal zero)
  | Occupation number:      0.00000000
  | K-point:      48 at    0.000000    0.416667    0.416667 (in units of recip. lattice)

  ESTIMATED overall HOMO-LUMO gap:      0.43888397 eV between HOMO at k-point 1 and LUMO at k-point 48
  | This appears to be an indirect band gap.
  | Smallest direct gap :      2.54329268 eV for k_point 1 at    0.000000    0.416667    0.416667 (in units of recip. lattice)
  The gap value is above 0.2 eV. Unless you are using a very sparse k-point grid,
  this system is most likely an insulator or a semiconductor.

  Checking to see if s.c.f. parameters should be adjusted.
  The system likely has a gap. Increased the default Pulay mixing parameter (charge_mix_param). Value:   0.200000 .
  Kept the default occupation width. Value:   0.010000 eV.

  Total energy components:
  | Sum of eigenvalues            :        -327.38320729 Ha       -8908.55033240 eV
  | XC energy correction          :         -39.73200752 Ha       -1081.16293369 eV
  | XC potential correction       :          52.49220047 Ha        1428.38545027 eV
  | Free-atom electrostatic energy:        -263.27917698 Ha       -7164.19091561 eV
  | Hartree energy correction     :          -0.83494991 Ha         -22.72014306 eV
  | Entropy correction            :          -0.00000000 Ha          -0.00000000 eV
  | ---------------------------
  | Total energy                  :        -578.73714123 Ha      -15748.23887449 eV
  | Total energy, T -> 0          :        -578.73714123 Ha      -15748.23887449 eV  <-- do not rely on this value for anything but (periodic) metals
  | Electronic free energy        :        -578.73714123 Ha      -15748.23887449 eV

  Derived energy quantities:
  | Kinetic energy                :         579.84532520 Ha       15778.39409451 eV
  | Electrostatic energy          :       -1118.85045891 Ha      -30445.47003531 eV
  | Energy correction for multipole
  | error in Hartree potential    :           0.01388864 Ha           0.37792909 eV
  | Sum of eigenvalues per atom                           :       -4454.27516620 eV
  | Total energy (T->0) per atom                          :       -7874.11943725 eV  <-- do not rely on this value for anything but (periodic) metals
  | Electronic free energy per atom                       :       -7874.11943725 eV

  Self-consistency convergence accuracy:
  | Change of charge density      :  0.1004E+00
  | Change of sum of eigenvalues  :  0.2283E+02 eV
  | Change of total energy        :  0.1517E+00 eV

  End self-consistency iteration #     2       :  max(cpu_time)    wall_clock(cpu1)
  | Time for this iteration                    :        0.423 s           0.431 s
  | Charge density update                      :        0.093 s           0.096 s
  | Density mixing & preconditioning           :        0.013 s           0.013 s
  | Hartree multipole update                   :        0.001 s           0.001 s
  | Hartree multipole summation                :        0.114 s           0.116 s
  | Integration                                :        0.093 s           0.095 s
  | Solution of K.-S. eqns.                    :        0.108 s           0.110 s
  | Total energy evaluation                    :        0.000 s           0.000 s

  Partial memory accounting:
  | Current value for overall tracked memory usage on task 0  :           3.247 MB
  | Peak value for overall tracked memory usage on task 0     :           6.434 MB after allocating wave
  | Largest tracked array allocation on task 0 so far         :           2.500 MB  when allocating +KS_eigenvector_complex
  Note:  These values currently only include a subset of arrays which are explicitly tracked.
  The "true" memory usage will be greater.
------------------------------------------------------------

------------------------------------------------------------
          Begin self-consistency iteration #    3

  Date     :  20171223, Time     :  152956.547
------------------------------------------------------------
  Evaluating new KS density using the density matrix
  Evaluating density matrix
  Time summed over all CPUs for getting density from density matrix: real work        0.304 s, elapsed        0.319 s
  Integration grid: deviation in total charge (<rho> - N_e) =   8.437695E-12
  Pulay mixing of updated and previous charge densities.

  Evaluating partitioned Hartree potential by multipole expansion.
  | Analytical far-field extrapolation by fixed multipoles:
  | Hartree multipole sum: apparent total charge =   0.882381E-02
  Summing up the Hartree potential.
  Time summed over all CPUs for potential: real work        0.502 s, elapsed        0.563 s
  | RMS charge density error from multipole expansion :   0.104269E-01
  | Average real-space part of the electrostatic potential :      0.32695362 eV

  Integrating Hamiltonian matrix: batch-based integration.
  Time summed over all CPUs for integration: real work        0.368 s, elapsed        0.374 s

  Updating Kohn-Sham eigenvalues and eigenvectors using ELSI and the ELPA eigensolver.
  Finished Cholesky decomposition
  | Time :     0.000 s
  Finished transformation to standard eigenproblem
  | Time :     0.000 s
  Starting LAPACK eigensolver
  Finished solving standard eigenproblem
  | Time :     0.000 s
  Finished back-transformation of eigenvectors
  | Time :     0.000 s

  Obtaining occupation numbers and chemical potential using ELSI.
  | Chemical potential (Fermi level):    -5.39157343eV
  What follows are estimated values for band gap, HOMO, LUMO, etc.
  | They are estimated on a discrete k-point grid and not necessarily exact.
  | For converged numbers, create a DOS and/or band structure plot on a denser k-grid.

  Highest occupied state (VBM) at     -5.80260365 eV (relative to internal zero)
  | Occupation number:      2.00000000
  | K-point:       1 at    0.000000    0.000000    0.000000 (in units of recip. lattice)

  Lowest unoccupied state (CBM) at    -5.34937263 eV (relative to internal zero)
  | Occupation number:      0.00000000
  | K-point:      48 at    0.000000    0.416667    0.416667 (in units of recip. lattice)

  ESTIMATED overall HOMO-LUMO gap:      0.45323102 eV between HOMO at k-point 1 and LUMO at k-point 48
  | This appears to be an indirect band gap.
  | Smallest direct gap :      2.55207939 eV for k_point 1 at    0.000000    0.416667    0.416667 (in units of recip. lattice)
  The gap value is above 0.2 eV. Unless you are using a very sparse k-point grid,
  this system is most likely an insulator or a semiconductor.

  Total energy components:
  | Sum of eigenvalues            :        -327.42248893 Ha       -8909.61924016 eV
  | XC energy correction          :         -39.72955724 Ha       -1081.09625818 eV
  | XC potential correction       :          52.48896844 Ha        1428.29750219 eV
  | Free-atom electrostatic energy:        -263.27917698 Ha       -7164.19091561 eV
  | Hartree energy correction     :          -0.79477004 Ha         -21.62679313 eV
  | Entropy correction            :          -0.00000000 Ha          -0.00000000 eV
  | ---------------------------
  | Total energy                  :        -578.73702475 Ha      -15748.23570490 eV
  | Total energy, T -> 0          :        -578.73702475 Ha      -15748.23570490 eV  <-- do not rely on this value for anything but (periodic) metals
  | Electronic free energy        :        -578.73702475 Ha      -15748.23570490 eV

  Derived energy quantities:
  | Kinetic energy                :         579.83039404 Ha       15777.98779695 eV
  | Electrostatic energy          :       -1118.83786155 Ha      -30445.12724367 eV
  | Energy correction for multipole
  | error in Hartree potential    :           0.01376049 Ha           0.37444197 eV
  | Sum of eigenvalues per atom                           :       -4454.80962008 eV
  | Total energy (T->0) per atom                          :       -7874.11785245 eV  <-- do not rely on this value for anything but (periodic) metals
  | Electronic free energy per atom                       :       -7874.11785245 eV

  Self-consistency convergence accuracy:
  | Change of charge density      :  0.1673E-01
  | Change of sum of eigenvalues  : -0.1069E+01 eV
  | Change of total energy        :  0.3170E-02 eV

  End self-consistency iteration #     3       :  max(cpu_time)    wall_clock(cpu1)
  | Time for this iteration                    :        0.455 s           0.464 s
  | Charge density update                      :        0.097 s           0.098 s
  | Density mixing & preconditioning           :        0.016 s           0.018 s
  | Hartree multipole update                   :        0.001 s           0.001 s
  | Hartree multipole summation                :        0.140 s           0.142 s
  | Integration                                :        0.092 s           0.095 s
  | Solution of K.-S. eqns.                    :        0.106 s           0.109 s
  | Total energy evaluation                    :        0.001 s           0.001 s

  Partial memory accounting:
  | Current value for overall tracked memory usage on task 0  :           3.247 MB
  | Peak value for overall tracked memory usage on task 0     :           6.434 MB after allocating wave
  | Largest tracked array allocation on task 0 so far         :           2.500 MB  when allocating +KS_eigenvector_complex
  Note:  These values currently only include a subset of arrays which are explicitly tracked.
  The "true" memory usage will be greater.
------------------------------------------------------------

------------------------------------------------------------
          Begin self-consistency iteration #    4

  Date     :  20171223, Time     :  152957.011
------------------------------------------------------------
  Evaluating new KS density using the density matrix
  Evaluating density matrix
  Time summed over all CPUs for getting density from density matrix: real work        0.303 s, elapsed        0.318 s
  Integration grid: deviation in total charge (<rho> - N_e) =   8.345324E-12
  Pulay mixing of updated and previous charge densities.

  Evaluating partitioned Hartree potential by multipole expansion.
  | Analytical far-field extrapolation by fixed multipoles:
  | Hartree multipole sum: apparent total charge =   0.613770E-02
  Summing up the Hartree potential.
  Time summed over all CPUs for potential: real work        0.439 s, elapsed        0.452 s
  | RMS charge density error from multipole expansion :   0.110517E-01
  | Average real-space part of the electrostatic potential :      0.30993226 eV

  Integrating Hamiltonian matrix: batch-based integration.
  Time summed over all CPUs for integration: real work        0.356 s, elapsed        0.373 s

  Updating Kohn-Sham eigenvalues and eigenvectors using ELSI and the ELPA eigensolver.
  Finished Cholesky decomposition
  | Time :     0.000 s
  Finished transformation to standard eigenproblem
  | Time :     0.000 s
  Starting LAPACK eigensolver
  Finished solving standard eigenproblem
  | Time :     0.000 s
  Finished back-transformation of eigenvectors
  | Time :     0.000 s

  Obtaining occupation numbers and chemical potential using ELSI.
  | Chemical potential (Fermi level):    -5.39818204eV
  What follows are estimated values for band gap, HOMO, LUMO, etc.
  | They are estimated on a discrete k-point grid and not necessarily exact.
  | For converged numbers, create a DOS and/or band structure plot on a denser k-grid.

  Highest occupied state (VBM) at     -5.83977283 eV (relative to internal zero)
  | Occupation number:      2.00000000
  | K-point:       1 at    0.000000    0.000000    0.000000 (in units of recip. lattice)

  Lowest unoccupied state (CBM) at    -5.35598255 eV (relative to internal zero)
  | Occupation number:      0.00000000
  | K-point:      48 at    0.000000    0.416667    0.416667 (in units of recip. lattice)

  ESTIMATED overall HOMO-LUMO gap:      0.48379028 eV between HOMO at k-point 1 and LUMO at k-point 48
  | This appears to be an indirect band gap.
  | Smallest direct gap :      2.56541404 eV for k_point 1 at    0.000000    0.416667    0.416667 (in units of recip. lattice)
  The gap value is above 0.2 eV. Unless you are using a very sparse k-point grid,
  this system is most likely an insulator or a semiconductor.

  Total energy components:
  | Sum of eigenvalues            :        -327.54136862 Ha       -8912.85412126 eV
  | XC energy correction          :         -39.72491992 Ha       -1080.97007009 eV
  | XC potential correction       :          52.48284007 Ha        1428.13074066 eV
  | Free-atom electrostatic energy:        -263.27917698 Ha       -7164.19091561 eV
  | Hartree energy correction     :          -0.67411581 Ha         -18.34362446 eV
  | Entropy correction            :          -0.00000000 Ha          -0.00000000 eV
  | ---------------------------
  | Total energy                  :        -578.73674126 Ha      -15748.22799075 eV
  | Total energy, T -> 0          :        -578.73674126 Ha      -15748.22799075 eV  <-- do not rely on this value for anything but (periodic) metals
  | Electronic free energy        :        -578.73674126 Ha      -15748.22799075 eV

  Derived energy quantities:
  | Kinetic energy                :         579.77487590 Ha       15776.47707148 eV
  | Electrostatic energy          :       -1118.78669724 Ha      -30443.73499214 eV
  | Energy correction for multipole
  | error in Hartree potential    :           0.01471533 Ha           0.40042457 eV
  | Sum of eigenvalues per atom                           :       -4456.42706063 eV
  | Total energy (T->0) per atom                          :       -7874.11399537 eV  <-- do not rely on this value for anything but (periodic) metals
  | Electronic free energy per atom                       :       -7874.11399537 eV

  Self-consistency convergence accuracy:
  | Change of charge density      :  0.1444E-01
  | Change of sum of eigenvalues  : -0.3235E+01 eV
  | Change of total energy        :  0.7714E-02 eV

  End self-consistency iteration #     4       :  max(cpu_time)    wall_clock(cpu1)
  | Time for this iteration                    :        0.423 s           0.432 s
  | Charge density update                      :        0.097 s           0.099 s
  | Density mixing & preconditioning           :        0.014 s           0.014 s
  | Hartree multipole update                   :        0.001 s           0.001 s
  | Hartree multipole summation                :        0.112 s           0.115 s
  | Integration                                :        0.092 s           0.094 s
  | Solution of K.-S. eqns.                    :        0.106 s           0.108 s
  | Total energy evaluation                    :        0.001 s           0.001 s

  Partial memory accounting:
  | Current value for overall tracked memory usage on task 0  :           3.247 MB
  | Peak value for overall tracked memory usage on task 0     :           6.434 MB after allocating wave
  | Largest tracked array allocation on task 0 so far         :           2.500 MB  when allocating +KS_eigenvector_complex
  Note:  These values currently only include a subset of arrays which are explicitly tracked.
  The "true" memory usage will be greater.
------------------------------------------------------------

------------------------------------------------------------
          Begin self-consistency iteration #    5

  Date     :  20171223, Time     :  152957.443
------------------------------------------------------------
  Evaluating new KS density using the density matrix
  Evaluating density matrix
  Time summed over all CPUs for getting density from density matrix: real work        0.307 s, elapsed        0.316 s
  Integration grid: deviation in total charge (<rho> - N_e) =   8.320455E-12
  Pulay mixing of updated and previous charge densities.

  Evaluating partitioned Hartree potential by multipole expansion.
  | Analytical far-field extrapolation by fixed multipoles:
  | Hartree multipole sum: apparent total charge =   0.509308E-02
  Summing up the Hartree potential.
  Time summed over all CPUs for potential: real work        0.446 s, elapsed        0.458 s
  | RMS charge density error from multipole expansion :   0.110128E-01
  | Average real-space part of the electrostatic potential :      0.30598618 eV

  Integrating Hamiltonian matrix: batch-based integration.
  Time summed over all CPUs for integration: real work        0.424 s, elapsed        0.444 s

  Updating Kohn-Sham eigenvalues and eigenvectors using ELSI and the ELPA eigensolver.
  Finished Cholesky decomposition
  | Time :     0.000 s
  Finished transformation to standard eigenproblem
  | Time :     0.000 s
  Starting LAPACK eigensolver
  Finished solving standard eigenproblem
  | Time :     0.000 s
  Finished back-transformation of eigenvectors
  | Time :     0.000 s

  Obtaining occupation numbers and chemical potential using ELSI.
  | Chemical potential (Fermi level):    -5.40136576eV
  What follows are estimated values for band gap, HOMO, LUMO, etc.
  | They are estimated on a discrete k-point grid and not necessarily exact.
  | For converged numbers, create a DOS and/or band structure plot on a denser k-grid.

  Highest occupied state (VBM) at     -5.84871540 eV (relative to internal zero)
  | Occupation number:      2.00000000
  | K-point:       1 at    0.000000    0.000000    0.000000 (in units of recip. lattice)

  Lowest unoccupied state (CBM) at    -5.35916191 eV (relative to internal zero)
  | Occupation number:      0.00000000
  | K-point:      48 at    0.000000    0.416667    0.416667 (in units of recip. lattice)

  ESTIMATED overall HOMO-LUMO gap:      0.48955348 eV between HOMO at k-point 1 and LUMO at k-point 48
  | This appears to be an indirect band gap.
  | Smallest direct gap :      2.56880408 eV for k_point 1 at    0.000000    0.416667    0.416667 (in units of recip. lattice)
  The gap value is above 0.2 eV. Unless you are using a very sparse k-point grid,
  this system is most likely an insulator or a semiconductor.

  Total energy components:
  | Sum of eigenvalues            :        -327.57910690 Ha       -8913.88103196 eV
  | XC energy correction          :         -39.72195085 Ha       -1080.88927771 eV
  | XC potential correction       :          52.47890483 Ha        1428.02365740 eV
  | Free-atom electrostatic energy:        -263.27917698 Ha       -7164.19091561 eV
  | Hartree energy correction     :          -0.63537470 Ha         -17.28942530 eV
  | Entropy correction            :          -0.00000000 Ha          -0.00000000 eV
  | ---------------------------
  | Total energy                  :        -578.73670460 Ha      -15748.22699317 eV
  | Total energy, T -> 0          :        -578.73670460 Ha      -15748.22699317 eV  <-- do not rely on this value for anything but (periodic) metals
  | Electronic free energy        :        -578.73670460 Ha      -15748.22699317 eV

  Derived energy quantities:
  | Kinetic energy                :         579.74778216 Ha       15775.73981346 eV
  | Electrostatic energy          :       -1118.76253591 Ha      -30443.07752892 eV
  | Energy correction for multipole
  | error in Hartree potential    :           0.01462707 Ha           0.39802289 eV
  | Sum of eigenvalues per atom                           :       -4456.94051598 eV
  | Total energy (T->0) per atom                          :       -7874.11349659 eV  <-- do not rely on this value for anything but (periodic) metals
  | Electronic free energy per atom                       :       -7874.11349659 eV

  Self-consistency convergence accuracy:
  | Change of charge density      :  0.8500E-02
  | Change of sum of eigenvalues  : -0.1027E+01 eV
  | Change of total energy        :  0.9976E-03 eV

  End self-consistency iteration #     5       :  max(cpu_time)    wall_clock(cpu1)
  | Time for this iteration                    :        0.447 s           0.457 s
  | Charge density update                      :        0.093 s           0.095 s
  | Density mixing & preconditioning           :        0.013 s           0.013 s
  | Hartree multipole update                   :        0.001 s           0.001 s
  | Hartree multipole summation                :        0.114 s           0.116 s
  | Integration                                :        0.110 s           0.112 s
  | Solution of K.-S. eqns.                    :        0.116 s           0.119 s
  | Total energy evaluation                    :        0.001 s           0.000 s

  Partial memory accounting:
  | Current value for overall tracked memory usage on task 0  :           3.247 MB
  | Peak value for overall tracked memory usage on task 0     :           6.434 MB after allocating wave
  | Largest tracked array allocation on task 0 so far         :           2.500 MB  when allocating +KS_eigenvector_complex
  Note:  These values currently only include a subset of arrays which are explicitly tracked.
  The "true" memory usage will be greater.
------------------------------------------------------------

------------------------------------------------------------
          Begin self-consistency iteration #    6

  Date     :  20171223, Time     :  152957.901
------------------------------------------------------------
  Evaluating new KS density using the density matrix
  Evaluating density matrix
  Time summed over all CPUs for getting density from density matrix: real work        0.395 s, elapsed        0.414 s
  Integration grid: deviation in total charge (<rho> - N_e) =   8.292034E-12
  Pulay mixing of updated and previous charge densities.

  Evaluating partitioned Hartree potential by multipole expansion.
  | Analytical far-field extrapolation by fixed multipoles:
  | Hartree multipole sum: apparent total charge =   0.505438E-02
  Summing up the Hartree potential.
  Time summed over all CPUs for potential: real work        0.446 s, elapsed        0.454 s
  | RMS charge density error from multipole expansion :   0.110371E-01
  | Average real-space part of the electrostatic potential :      0.30575674 eV

  Integrating Hamiltonian matrix: batch-based integration.
  Time summed over all CPUs for integration: real work        0.360 s, elapsed        0.371 s

  Updating Kohn-Sham eigenvalues and eigenvectors using ELSI and the ELPA eigensolver.
  Finished Cholesky decomposition
  | Time :     0.000 s
  Finished transformation to standard eigenproblem
  | Time :     0.000 s
  Starting LAPACK eigensolver
  Finished solving standard eigenproblem
  | Time :     0.000 s
  Finished back-transformation of eigenvectors
  | Time :     0.000 s

  Obtaining occupation numbers and chemical potential using ELSI.
  | Chemical potential (Fermi level):    -5.40133981eV
  What follows are estimated values for band gap, HOMO, LUMO, etc.
  | They are estimated on a discrete k-point grid and not necessarily exact.
  | For converged numbers, create a DOS and/or band structure plot on a denser k-grid.

  Highest occupied state (VBM) at     -5.84866615 eV (relative to internal zero)
  | Occupation number:      2.00000000
  | K-point:       1 at    0.000000    0.000000    0.000000 (in units of recip. lattice)

  Lowest unoccupied state (CBM) at    -5.35913308 eV (relative to internal zero)
  | Occupation number:      0.00000000
  | K-point:      48 at    0.000000    0.416667    0.416667 (in units of recip. lattice)

  ESTIMATED overall HOMO-LUMO gap:      0.48953307 eV between HOMO at k-point 1 and LUMO at k-point 48
  | This appears to be an indirect band gap.
  | Smallest direct gap :      2.56864249 eV for k_point 1 at    0.000000    0.416667    0.416667 (in units of recip. lattice)
  The gap value is above 0.2 eV. Unless you are using a very sparse k-point grid,
  this system is most likely an insulator or a semiconductor.

  Total energy components:
  | Sum of eigenvalues            :        -327.58426206 Ha       -8914.02131093 eV
  | XC energy correction          :         -39.72144798 Ha       -1080.87559377 eV
  | XC potential correction       :          52.47823724 Ha        1428.00549155 eV
  | Free-atom electrostatic energy:        -263.27917698 Ha       -7164.19091561 eV
  | Hartree energy correction     :          -0.63005086 Ha         -17.14455609 eV
  | Entropy correction            :          -0.00000000 Ha          -0.00000000 eV
  | ---------------------------
  | Total energy                  :        -578.73670062 Ha      -15748.22688486 eV
  | Total energy, T -> 0          :        -578.73670062 Ha      -15748.22688486 eV  <-- do not rely on this value for anything but (periodic) metals
  | Electronic free energy        :        -578.73670062 Ha      -15748.22688486 eV

  Derived energy quantities:
  | Kinetic energy                :         579.74003378 Ha       15775.52896919 eV
  | Electrostatic energy          :       -1118.75528642 Ha      -30442.88026027 eV
  | Energy correction for multipole
  | error in Hartree potential    :           0.01464942 Ha           0.39863091 eV
  | Sum of eigenvalues per atom                           :       -4457.01065547 eV
  | Total energy (T->0) per atom                          :       -7874.11344243 eV  <-- do not rely on this value for anything but (periodic) metals
  | Electronic free energy per atom                       :       -7874.11344243 eV

  Self-consistency convergence accuracy:
  | Change of charge density      :  0.6817E-02
  | Change of sum of eigenvalues  : -0.1403E+00 eV
  | Change of total energy        :  0.1083E-03 eV

  End self-consistency iteration #     6       :  max(cpu_time)    wall_clock(cpu1)
  | Time for this iteration                    :        0.451 s           0.459 s
  | Charge density update                      :        0.124 s           0.126 s
  | Density mixing & preconditioning           :        0.015 s           0.015 s
  | Hartree multipole update                   :        0.001 s           0.001 s
  | Hartree multipole summation                :        0.113 s           0.115 s
  | Integration                                :        0.094 s           0.094 s
  | Solution of K.-S. eqns.                    :        0.105 s           0.107 s
  | Total energy evaluation                    :        0.000 s           0.000 s

  Partial memory accounting:
  | Current value for overall tracked memory usage on task 0  :           3.247 MB
  | Peak value for overall tracked memory usage on task 0     :           6.434 MB after allocating wave
  | Largest tracked array allocation on task 0 so far         :           2.500 MB  when allocating +KS_eigenvector_complex
  Note:  These values currently only include a subset of arrays which are explicitly tracked.
  The "true" memory usage will be greater.
------------------------------------------------------------

------------------------------------------------------------
          Begin self-consistency iteration #    7

  Date     :  20171223, Time     :  152958.360
------------------------------------------------------------
  Evaluating new KS density using the density matrix
  Evaluating density matrix
  Time summed over all CPUs for getting density from density matrix: real work        0.323 s, elapsed        0.340 s
  Integration grid: deviation in total charge (<rho> - N_e) =   8.306245E-12
  Pulay mixing of updated and previous charge densities.

  Evaluating partitioned Hartree potential by multipole expansion.
  | Analytical far-field extrapolation by fixed multipoles:
  | Hartree multipole sum: apparent total charge =   0.505856E-02
  Summing up the Hartree potential.
  Time summed over all CPUs for potential: real work        0.459 s, elapsed        0.468 s
  | RMS charge density error from multipole expansion :   0.110010E-01
  | Average real-space part of the electrostatic potential :      0.30130112 eV

  Integrating Hamiltonian matrix: batch-based integration.
  Time summed over all CPUs for integration: real work        0.379 s, elapsed        0.400 s

  Updating Kohn-Sham eigenvalues and eigenvectors using ELSI and the ELPA eigensolver.
  Finished Cholesky decomposition
  | Time :     0.000 s
  Finished transformation to standard eigenproblem
  | Time :     0.000 s
  Starting LAPACK eigensolver
  Finished solving standard eigenproblem
  | Time :     0.000 s
  Finished back-transformation of eigenvectors
  | Time :     0.000 s

  Obtaining occupation numbers and chemical potential using ELSI.
  | Chemical potential (Fermi level):    -5.40309724eV
  What follows are estimated values for band gap, HOMO, LUMO, etc.
  | They are estimated on a discrete k-point grid and not necessarily exact.
  | For converged numbers, create a DOS and/or band structure plot on a denser k-grid.

  Highest occupied state (VBM) at     -5.85420393 eV (relative to internal zero)
  | Occupation number:      2.00000000
  | K-point:       1 at    0.000000    0.000000    0.000000 (in units of recip. lattice)

  Lowest unoccupied state (CBM) at    -5.36089444 eV (relative to internal zero)
  | Occupation number:      0.00000000
  | K-point:      48 at    0.000000    0.416667    0.416667 (in units of recip. lattice)

  ESTIMATED overall HOMO-LUMO gap:      0.49330949 eV between HOMO at k-point 1 and LUMO at k-point 48
  | This appears to be an indirect band gap.
  | Smallest direct gap :      2.57101748 eV for k_point 1 at    0.000000    0.416667    0.416667 (in units of recip. lattice)
  The gap value is above 0.2 eV. Unless you are using a very sparse k-point grid,
  this system is most likely an insulator or a semiconductor.

  Total energy components:
  | Sum of eigenvalues            :        -327.60699186 Ha       -8914.63982040 eV
  | XC energy correction          :         -39.71916029 Ha       -1080.81334261 eV
  | XC potential correction       :          52.47520787 Ha        1427.92305811 eV
  | Free-atom electrostatic energy:        -263.27917698 Ha       -7164.19091561 eV
  | Hartree energy correction     :          -0.60656305 Ha         -16.50542025 eV
  | Entropy correction            :          -0.00000000 Ha          -0.00000000 eV
  | ---------------------------
  | Total energy                  :        -578.73668430 Ha      -15748.22644076 eV
  | Total energy, T -> 0          :        -578.73668430 Ha      -15748.22644076 eV  <-- do not rely on this value for anything but (periodic) metals
  | Electronic free energy        :        -578.73668430 Ha      -15748.22644076 eV

  Derived energy quantities:
  | Kinetic energy                :         579.71305203 Ha       15774.79475855 eV
  | Electrostatic energy          :       -1118.73057605 Ha      -30442.20785669 eV
  | Energy correction for multipole
  | error in Hartree potential    :           0.01457012 Ha           0.39647302 eV
  | Sum of eigenvalues per atom                           :       -4457.31991020 eV
  | Total energy (T->0) per atom                          :       -7874.11322038 eV  <-- do not rely on this value for anything but (periodic) metals
  | Electronic free energy per atom                       :       -7874.11322038 eV

  Self-consistency convergence accuracy:
  | Change of charge density      :  0.6524E-02
  | Change of sum of eigenvalues  : -0.6185E+00 eV
  | Change of total energy        :  0.4441E-03 eV

  End self-consistency iteration #     7       :  max(cpu_time)    wall_clock(cpu1)
  | Time for this iteration                    :        0.456 s           0.469 s
  | Charge density update                      :        0.100 s           0.102 s
  | Density mixing & preconditioning           :        0.021 s           0.022 s
  | Hartree multipole update                   :        0.001 s           0.001 s
  | Hartree multipole summation                :        0.116 s           0.119 s
  | Integration                                :        0.099 s           0.101 s
  | Solution of K.-S. eqns.                    :        0.120 s           0.123 s
  | Total energy evaluation                    :        0.000 s           0.000 s

  Partial memory accounting:
  | Current value for overall tracked memory usage on task 0  :           3.247 MB
  | Peak value for overall tracked memory usage on task 0     :           6.434 MB after allocating wave
  | Largest tracked array allocation on task 0 so far         :           2.500 MB  when allocating +KS_eigenvector_complex
  Note:  These values currently only include a subset of arrays which are explicitly tracked.
  The "true" memory usage will be greater.
------------------------------------------------------------

------------------------------------------------------------
          Begin self-consistency iteration #    8

  Date     :  20171223, Time     :  152958.829
------------------------------------------------------------
  Evaluating new KS density using the density matrix
  Evaluating density matrix
  Time summed over all CPUs for getting density from density matrix: real work        0.313 s, elapsed        0.328 s
  Integration grid: deviation in total charge (<rho> - N_e) =   8.320455E-12
  Pulay mixing of updated and previous charge densities.

  Evaluating partitioned Hartree potential by multipole expansion.
  | Analytical far-field extrapolation by fixed multipoles:
  | Hartree multipole sum: apparent total charge =   0.524309E-02
  Summing up the Hartree potential.
  Time summed over all CPUs for potential: real work        0.445 s, elapsed        0.458 s
  | RMS charge density error from multipole expansion :   0.109586E-01
  | Average real-space part of the electrostatic potential :      0.29332915 eV

  Integrating Hamiltonian matrix: batch-based integration.
  Time summed over all CPUs for integration: real work        0.416 s, elapsed        0.434 s

  Updating Kohn-Sham eigenvalues and eigenvectors using ELSI and the ELPA eigensolver.
  Finished Cholesky decomposition
  | Time :     0.000 s
  Finished transformation to standard eigenproblem
  | Time :     0.000 s
  Starting LAPACK eigensolver
  Finished solving standard eigenproblem
  | Time :     0.000 s
  Finished back-transformation of eigenvectors
  | Time :     0.000 s

  Obtaining occupation numbers and chemical potential using ELSI.
  | Chemical potential (Fermi level):    -5.40577924eV
  What follows are estimated values for band gap, HOMO, LUMO, etc.
  | They are estimated on a discrete k-point grid and not necessarily exact.
  | For converged numbers, create a DOS and/or band structure plot on a denser k-grid.

  Highest occupied state (VBM) at     -5.86294640 eV (relative to internal zero)
  | Occupation number:      2.00000000
  | K-point:       1 at    0.000000    0.000000    0.000000 (in units of recip. lattice)

  Lowest unoccupied state (CBM) at    -5.36356871 eV (relative to internal zero)
  | Occupation number:      0.00000000
  | K-point:      48 at    0.000000    0.416667    0.416667 (in units of recip. lattice)

  ESTIMATED overall HOMO-LUMO gap:      0.49937768 eV between HOMO at k-point 1 and LUMO at k-point 48
  | This appears to be an indirect band gap.
  | Smallest direct gap :      2.57473862 eV for k_point 1 at    0.000000    0.416667    0.416667 (in units of recip. lattice)
  The gap value is above 0.2 eV. Unless you are using a very sparse k-point grid,
  this system is most likely an insulator or a semiconductor.

  Total energy components:
  | Sum of eigenvalues            :        -327.64542386 Ha       -8915.68560831 eV
  | XC energy correction          :         -39.71524219 Ha       -1080.70672586 eV
  | XC potential correction       :          52.47001976 Ha        1427.78188249 eV
  | Free-atom electrostatic energy:        -263.27917698 Ha       -7164.19091561 eV
  | Hartree energy correction     :          -0.56683867 Ha         -15.42446507 eV
  | Entropy correction            :          -0.00000000 Ha          -0.00000000 eV
  | ---------------------------
  | Total energy                  :        -578.73666194 Ha      -15748.22583236 eV
  | Total energy, T -> 0          :        -578.73666194 Ha      -15748.22583236 eV  <-- do not rely on this value for anything but (periodic) metals
  | Electronic free energy        :        -578.73666194 Ha      -15748.22583236 eV

  Derived energy quantities:
  | Kinetic energy                :         579.66594082 Ha       15773.51279711 eV
  | Electrostatic energy          :       -1118.68736056 Ha      -30441.03190361 eV
  | Energy correction for multipole
  | error in Hartree potential    :           0.01445931 Ha           0.39345777 eV
  | Sum of eigenvalues per atom                           :       -4457.84280416 eV
  | Total energy (T->0) per atom                          :       -7874.11291618 eV  <-- do not rely on this value for anything but (periodic) metals
  | Electronic free energy per atom                       :       -7874.11291618 eV

  Self-consistency convergence accuracy:
  | Change of charge density      :  0.5139E-02
  | Change of sum of eigenvalues  : -0.1046E+01 eV
  | Change of total energy        :  0.6084E-03 eV

  End self-consistency iteration #     8       :  max(cpu_time)    wall_clock(cpu1)
[...]
  Processing batch of k-points:     5     5     6
  Processing batch of k-points:     5     5     7
  Processing batch of k-points:     5     5     8
  Processing batch of k-points:     5     6     1
  Processing batch of k-points:     5     6     2
  Processing batch of k-points:     5     6     3
  Processing batch of k-points:     5     6     4
  Processing batch of k-points:     5     6     5
  Processing batch of k-points:     5     6     6
  Processing batch of k-points:     5     6     7
  Processing batch of k-points:     5     6     8
  Processing batch of k-points:     5     7     1
  Processing batch of k-points:     5     7     2
  Processing batch of k-points:     5     7     3
  Processing batch of k-points:     5     7     4
  Processing batch of k-points:     5     7     5
  Processing batch of k-points:     5     7     6
  Processing batch of k-points:     5     7     7
  Processing batch of k-points:     5     7     8
  Processing batch of k-points:     5     8     1
  Processing batch of k-points:     5     8     2
  Processing batch of k-points:     5     8     3
  Processing batch of k-points:     5     8     4
  Processing batch of k-points:     5     8     5
  Processing batch of k-points:     5     8     6
  Processing batch of k-points:     5     8     7
  Processing batch of k-points:     5     8     8
  Processing batch of k-points:     6     1     1
  Processing batch of k-points:     6     1     2
  Processing batch of k-points:     6     1     3
  Processing batch of k-points:     6     1     4
  Processing batch of k-points:     6     1     5
  Processing batch of k-points:     6     1     6
  Processing batch of k-points:     6     1     7
  Processing batch of k-points:     6     1     8
  Processing batch of k-points:     6     2     1
  Processing batch of k-points:     6     2     2
  Processing batch of k-points:     6     2     3
  Processing batch of k-points:     6     2     4
  Processing batch of k-points:     6     2     5
  Processing batch of k-points:     6     2     6
  Processing batch of k-points:     6     2     7
  Processing batch of k-points:     6     2     8
  Processing batch of k-points:     6     3     1
  Processing batch of k-points:     6     3     2
  Processing batch of k-points:     6     3     3
  Processing batch of k-points:     6     3     4
  Processing batch of k-points:     6     3     5
  Processing batch of k-points:     6     3     6
  Processing batch of k-points:     6     3     7
  Processing batch of k-points:     6     3     8
  Processing batch of k-points:     6     4     1
  Processing batch of k-points:     6     4     2
  Processing batch of k-points:     6     4     3
  Processing batch of k-points:     6     4     4
  Processing batch of k-points:     6     4     5
  Processing batch of k-points:     6     4     6
  Processing batch of k-points:     6     4     7
  Processing batch of k-points:     6     4     8
  Processing batch of k-points:     6     5     1
  Processing batch of k-points:     6     5     2
  Processing batch of k-points:     6     5     3
  Processing batch of k-points:     6     5     4
  Processing batch of k-points:     6     5     5
  Processing batch of k-points:     6     5     6
  Processing batch of k-points:     6     5     7
  Processing batch of k-points:     6     5     8
  Processing batch of k-points:     6     6     1
  Processing batch of k-points:     6     6     2
  Processing batch of k-points:     6     6     3
  Processing batch of k-points:     6     6     4
  Processing batch of k-points:     6     6     5
  Processing batch of k-points:     6     6     6
  Processing batch of k-points:     6     6     7
  Processing batch of k-points:     6     6     8
  Processing batch of k-points:     6     7     1
  Processing batch of k-points:     6     7     2
  Processing batch of k-points:     6     7     3
  Processing batch of k-points:     6     7     4
  Processing batch of k-points:     6     7     5
  Processing batch of k-points:     6     7     6
  Processing batch of k-points:     6     7     7
  Processing batch of k-points:     6     7     8
  Processing batch of k-points:     6     8     1
  Processing batch of k-points:     6     8     2
  Processing batch of k-points:     6     8     3
  Processing batch of k-points:     6     8     4
  Processing batch of k-points:     6     8     5
  Processing batch of k-points:     6     8     6
  Processing batch of k-points:     6     8     7
  Processing batch of k-points:     6     8     8
  Processing batch of k-points:     7     1     1
  Processing batch of k-points:     7     1     2
  Processing batch of k-points:     7     1     3
  Processing batch of k-points:     7     1     4
  Processing batch of k-points:     7     1     5
  Processing batch of k-points:     7     1     6
  Processing batch of k-points:     7     1     7
  Processing batch of k-points:     7     1     8
  Processing batch of k-points:     7     2     1
  Processing batch of k-points:     7     2     2
  Processing batch of k-points:     7     2     3
  Processing batch of k-points:     7     2     4
  Processing batch of k-points:     7     2     5
  Processing batch of k-points:     7     2     6
  Processing batch of k-points:     7     2     7
  Processing batch of k-points:     7     2     8
  Processing batch of k-points:     7     3     1
  Processing batch of k-points:     7     3     2
  Processing batch of k-points:     7     3     3
  Processing batch of k-points:     7     3     4
  Processing batch of k-points:     7     3     5
  Processing batch of k-points:     7     3     6
  Processing batch of k-points:     7     3     7
  Processing batch of k-points:     7     3     8
  Processing batch of k-points:     7     4     1
  Processing batch of k-points:     7     4     2
  Processing batch of k-points:     7     4     3
  Processing batch of k-points:     7     4     4
  Processing batch of k-points:     7     4     5
  Processing batch of k-points:     7     4     6
  Processing batch of k-points:     7     4     7
  Processing batch of k-points:     7     4     8
  Processing batch of k-points:     7     5     1
  Processing batch of k-points:     7     5     2
  Processing batch of k-points:     7     5     3
  Processing batch of k-points:     7     5     4
  Processing batch of k-points:     7     5     5
  Processing batch of k-points:     7     5     6
  Processing batch of k-points:     7     5     7
  Processing batch of k-points:     7     5     8
  Processing batch of k-points:     7     6     1
  Processing batch of k-points:     7     6     2
  Processing batch of k-points:     7     6     3
  Processing batch of k-points:     7     6     4
  Processing batch of k-points:     7     6     5
  Processing batch of k-points:     7     6     6
  Processing batch of k-points:     7     6     7
  Processing batch of k-points:     7     6     8
  Processing batch of k-points:     7     7     1
  Processing batch of k-points:     7     7     2
  Processing batch of k-points:     7     7     3
  Processing batch of k-points:     7     7     4
  Processing batch of k-points:     7     7     5
  Processing batch of k-points:     7     7     6
  Processing batch of k-points:     7     7     7
  Processing batch of k-points:     7     7     8
  Processing batch of k-points:     7     8     1
  Processing batch of k-points:     7     8     2
  Processing batch of k-points:     7     8     3
  Processing batch of k-points:     7     8     4
  Processing batch of k-points:     7     8     5
  Processing batch of k-points:     7     8     6
  Processing batch of k-points:     7     8     7
  Processing batch of k-points:     7     8     8
  Processing batch of k-points:     8     1     1
  Processing batch of k-points:     8     1     2
  Processing batch of k-points:     8     1     3
  Processing batch of k-points:     8     1     4
  Processing batch of k-points:     8     1     5
  Processing batch of k-points:     8     1     6
  Processing batch of k-points:     8     1     7
  Processing batch of k-points:     8     1     8
  Processing batch of k-points:     8     2     1
  Processing batch of k-points:     8     2     2
  Processing batch of k-points:     8     2     3
  Processing batch of k-points:     8     2     4
  Processing batch of k-points:     8     2     5
  Processing batch of k-points:     8     2     6
  Processing batch of k-points:     8     2     7
  Processing batch of k-points:     8     2     8
  Processing batch of k-points:     8     3     1
  Processing batch of k-points:     8     3     2
  Processing batch of k-points:     8     3     3
  Processing batch of k-points:     8     3     4
  Processing batch of k-points:     8     3     5
  Processing batch of k-points:     8     3     6
  Processing batch of k-points:     8     3     7
  Processing batch of k-points:     8     3     8
  Processing batch of k-points:     8     4     1
  Processing batch of k-points:     8     4     2
  Processing batch of k-points:     8     4     3
  Processing batch of k-points:     8     4     4
  Processing batch of k-points:     8     4     5
  Processing batch of k-points:     8     4     6
  Processing batch of k-points:     8     4     7
  Processing batch of k-points:     8     4     8
  Processing batch of k-points:     8     5     1
  Processing batch of k-points:     8     5     2
  Processing batch of k-points:     8     5     3
  Processing batch of k-points:     8     5     4
  Processing batch of k-points:     8     5     5
  Processing batch of k-points:     8     5     6
  Processing batch of k-points:     8     5     7
  Processing batch of k-points:     8     5     8
  Processing batch of k-points:     8     6     1
  Processing batch of k-points:     8     6     2
  Processing batch of k-points:     8     6     3
  Processing batch of k-points:     8     6     4
  Processing batch of k-points:     8     6     5
  Processing batch of k-points:     8     6     6
  Processing batch of k-points:     8     6     7
  Processing batch of k-points:     8     6     8
  Processing batch of k-points:     8     7     1
  Processing batch of k-points:     8     7     2
  Processing batch of k-points:     8     7     3
  Processing batch of k-points:     8     7     4
  Processing batch of k-points:     8     7     5
  Processing batch of k-points:     8     7     6
  Processing batch of k-points:     8     7     7
  Processing batch of k-points:     8     7     8
  Processing batch of k-points:     8     8     1
  Processing batch of k-points:     8     8     2
  Processing batch of k-points:     8     8     3
  Processing batch of k-points:     8     8     4
  Processing batch of k-points:     8     8     5
  Processing batch of k-points:     8     8     6
  Processing batch of k-points:     8     8     7
  Processing batch of k-points:     8     8     8
  | writing perturbative DOS (shifted by electron chemical potential) to file KS_dos_total.dat
  | writing perturbative DOS (raw data) to file KS_dos_total_raw.dat

  Perturbative DOS                                        :  max(cpu_time) wall_clock(cpu1)
  | Total Time                                            :        116.689          117.966
  ------------------------------------------------------------

  -------------------------------------------------------------------
  Writing the requested band structure output (LAPACK version):
  -------------------------------------------------------------------

  Integrating Hamiltonian matrix: batch-based integration.
  Time summed over all CPUs for integration: real work        0.432 s, elapsed        0.462 s

  Treating all   50 k-points in band plot segment #   1:


  "Band gap" along reciprocal space direction number:    1
  | Lowest unoccupied state:      -4.37457032 eV
  | Highest occupied state :      -5.87321158 eV
  | Energy difference      :       1.49864125 eV


  Treating all   50 k-points in band plot segment #   2:


  "Band gap" along reciprocal space direction number:    2
  | Lowest unoccupied state:      -5.36712683 eV
  | Highest occupied state :      -5.87321158 eV
  | Energy difference      :       0.50608475 eV


  Treating all   50 k-points in band plot segment #   3:


  "Band gap" along reciprocal space direction number:    3
  | Lowest unoccupied state:      -5.22602413 eV
  | Highest occupied state :      -8.74382831 eV
  | Energy difference      :       3.51780418 eV


  Treating all   50 k-points in band plot segment #   4:


  "Band gap" along reciprocal space direction number:    4
  | Lowest unoccupied state:      -4.23853219 eV
  | Highest occupied state :      -6.94449172 eV
  | Energy difference      :       2.70595952 eV

  "Band gap" of total set of bands:
  | Lowest unoccupied state:      -5.36712683 eV
  | Highest occupied state :      -5.87321158 eV
  | Energy difference      :       0.50608475 eV


  Band Structure                                          :  max(cpu_time) wall_clock(cpu1)
  | Total Time                                            :          0.194            0.207
------------------------------------------------------------

------------------------------------------------------------------------------
  Final output of selected total energy values:

  The following output summarizes some interesting total energy values
  at the end of a run (AFTER all relaxation, molecular dynamics, etc.).

  | Total energy of the DFT / Hartree-Fock s.c.f. calculation      :         -15748.225365749 eV
  | Final zero-broadening corrected energy (caution - metals only) :         -15748.225365749 eV
  | For reference only, the value of 1 Hartree used in FHI-aims is :             27.211384500 eV

  Before relying on these values, please be sure to understand exactly which
  total energy value is referred to by a given number. Different objects may
  all carry the same name 'total energy'. Definitions:

  Total energy of the DFT / Hartree-Fock s.c.f. calculation:
  | Note that this energy does not include ANY quantities calculated after the
  | s.c.f. cycle, in particular not ANY RPA, MP2, etc. many-body perturbation terms.

  Final zero-broadening corrected energy:
  | For metallic systems only, a broadening of the occupation numbers at the Fermi
  | level can be extrapolated back to zero broadening by an electron-gas inspired
  | formula. For all systems that are not real metals, this value can be
  | meaningless and should be avoided.

------------------------------------------------------------------------------
  Methods described in the following list of references were used in this FHI-aims run.
  If you publish the results, please make sure to cite these reference if they apply.
  FHI-aims is an academic code, and for our developers (often, Ph.D. students
  and postdocs), scientific credit in the community is essential.
  Thank you for helping us!

  For any use of FHI-aims, please cite:

    Volker Blum, Ralf Gehrke, Felix Hanke, Paula Havu, Ville Havu,
    Xinguo Ren, Karsten Reuter, and Matthias Scheffler
    'Ab initio molecular simulations with numeric atom-centered orbitals'
    Computer Physics Communications 180, 2175-2196 (2009)
    http://dx.doi.org/10.1016/j.cpc.2009.06.022


  The provided symmetry information was generated with SPGlib:

    Atsushi Togo, Yusuke Seto, Dimitar Pashov
    SPGlib 1.7.3 obtained from http://spglib.sourceforge.net
    Copyright (C) 2008 Atsushi Togo


  The scalable eigensolver library ELPA was used in your run.
  ELPA is essential especially for large systems on hundreds or thousands of CPUs.
  For ELPA, please cite:

    Andreas Marek, Volker Blum, Rainer Johanni, Ville Havu, Bruno Lang,
    Thomas Auckenthaler, Alexander Heinecke, Hans-Joachim Bungartz, and Hermann Lederer,
    'The ELPA Library - Scalable Parallel Eigenvalue Solutions
    for Electronic Structure Theory and Computational Science'
    The Journal of Physics: Condensed Matter 26, 213201 (2014).
    http://dx.doi.org/10.1088/0953-8984/26/21/213201


  The ELSI infrastructure was used in your run to solve the Kohn-Sham electronic structure.
  Please check out http://elsi-interchange.org to learn more.
  If scalability is important for your project, please acknowledge ELSI by citing:

    V. W-z. Yu, F. Corsetti, A. Garcia, W. P. Huhn, M. Jacquelin, W. Jia,
    B. Lange, L. Lin, J. Lu, W. Mi, A. Seifitokaldani, A. Vazquez-Mayagoitia,
    C. Yang, H. Yang, and V. Blum
    'ELSI: A unified software interface for Kohn-Sham electronic structure solvers'
    Computer Physics Communications 222, 267-285 (2018).
    http://dx.doi.org/10.1016/j.cpc.2017.09.007


  For the real-space grid partitioning and parallelization used in this calculation, please cite:

    Ville Havu, Volker Blum, Paula Havu, and Matthias Scheffler,
    'Efficient O(N) integration for all-electron electronic structure calculation'
    'using numerically tabulated basis functions'
    Journal of Computational Physics 228, 8367-8379 (2009).
    http://dx.doi.org/10.1016/j.jcp.2009.08.008

  Of course, there are many other important community references, e.g., those cited in the
  above references. Our list is limited to references that describe implementations in the
  FHI-aims code. The reason is purely practical (length of this list) - please credit others as well.

------------------------------------------------------------
          Leaving FHI-aims.
          Date     :  20171223, Time     :  153159.212

          Computational steps:
          | Number of self-consistency cycles          :           12
          | Number of SCF (re)initializations          :            1

          Detailed time accounting                     :  max(cpu_time)    wall_clock(cpu1)
          | Total time                                 :      122.887 s         124.335 s
          | Preparation time                           :        0.141 s           0.151 s
          | Boundary condition initalization           :        0.072 s           0.076 s
          | Grid partitioning                          :        0.025 s           0.026 s
          | Preloading free-atom quantities on grid    :        0.001 s           0.001 s
          | Free-atom superposition energy             :        0.011 s           0.010 s
          | Total time for integrations                :        1.354 s           1.384 s
          | Total time for solution of K.-S. equations :        1.448 s           1.481 s
          | Total time for density update              :        1.199 s           1.225 s
          | Total time for mixing & preconditioning    :        0.176 s           0.177 s
          | Total time for Hartree multipole update    :        0.008 s           0.010 s
          | Total time for Hartree multipole sum       :        1.391 s           1.417 s
          | Total time for total energy evaluation     :        0.007 s           0.006 s
          | Total time for scaled ZORA corrections     :        0.000 s           0.000 s
          | Total time for band structures, DOS        :      116.892 s         118.173 s

          Partial memory accounting:
          | Residual value for overall tracked memory usage across tasks :           0.000 MB (should be 0.000 MB)
          | Peak values for overall tracked memory usage (after allocating wave):
          |   Minimum:        9.719 MB (on task 4)
          |   Maximum:        9.932 MB (on task 2)
          |   Average:        9.825 MB
          | Largest tracked array allocation (parallel_index):
          |   Minimum:        3.539 MB (on task 1)
          |   Maximum:        3.539 MB (on task 1)
          |   Average:        3.539 MB
          Note:  These values currently only include a subset of arrays which are explicitly tracked.
          The "true" memory usage will be greater.

          Have a nice day.
------------------------------------------------------------
