  MPI-parallelism will be employed.
------------------------------------------------------------
          Invoking FHI-aims ...

          When using FHI-aims, please cite the following reference:

          Volker Blum, Ralf Gehrke, Felix Hanke, Paula Havu,
          Ville Havu, Xinguo Ren, Karsten Reuter, and Matthias Scheffler,
          'Ab Initio Molecular Simulations with Numeric Atom-Centered Orbitals',
          Computer Physics Communications 180, 2175-2196 (2009)

          For any questions about FHI-aims, please visit the aimsclub website
          with its forums and wiki. Contributions to both the forums and the
          wiki are warmly encouraged - they are for you, and everyone is welcome there.

------------------------------------------------------------



  Date     :  20190817, Time     :  153436.352
  Time zero on CPU 1             :   0.314490000000000E-01  s.
  Internal wall clock time zero  :           335288076.352  s.

  FHI-aims created a unique identifier for this run for later identification
  aims_uuid : E6EC4660-7FA9-47EB-A964-110DCCCE932F

  Build configuration of the current instance of FHI-aims
  -------------------------------------------------------
  FHI-aims version      : 190813
  Commit number         : 3da7baeb3
  CMake host system     : Linux-4.4.180-94.97-default
  CMake version         : 3.5.2
  Fortran compiler      : /mpcdf/soft/SLE_12_SP3/packages/x86_64/intel_parallel_studio/2018.4/compilers_and_libraries_2018.5.274/linux/mpi/bin64/mpiifort (Intel) version 18.0.5.20180823
  Fortran compiler flags: -O3 -ip -fp-model precise
  C compiler            : /mpcdf/soft/SLE_12_SP3/packages/skylake/intel/18.0.5/bin/icc (Intel) version 18.0.5.20180823
  C compiler flags      : -O3 -ip -fp-model precise
  Architecture          :
  Using MPI
  Using Scalapack
  Using C files
  Using SPGlib
  Using i-PI
  Linking against: /mpcdf/soft/SLE_12_SP3/packages/x86_64/anaconda/3.5.1.0/lib/libmkl_intel_lp64.so
                   /mpcdf/soft/SLE_12_SP3/packages/x86_64/anaconda/3.5.1.0/lib/libmkl_sequential.so
                   /mpcdf/soft/SLE_12_SP3/packages/x86_64/anaconda/3.5.1.0/lib/libmkl_core.so
                   /mpcdf/soft/SLE_12_SP3/packages/x86_64/anaconda/3.5.1.0/lib/libmkl_blacs_intelmpi_lp64.so
                   /mpcdf/soft/SLE_12_SP3/packages/x86_64/anaconda/3.5.1.0/lib/libmkl_scalapack_lp64.so

  Using        8 parallel tasks.
  Task        0 on host co1631 reporting.
  Task        1 on host co1631 reporting.
  Task        2 on host co1631 reporting.
  Task        3 on host co1631 reporting.
  Task        4 on host co1631 reporting.
  Task        5 on host co1631 reporting.
  Task        6 on host co1631 reporting.
  Task        7 on host co1631 reporting.

  Performing system and environment tests:
  | Environment variable OMP_NUM_THREADS correctly set to 1.
  | Maximum stacksize for task 0: unlimited
  | Maximum stacksize for task 1: unlimited
  | Maximum stacksize for task 2: unlimited
  | Maximum stacksize for task 3: unlimited
  | Maximum stacksize for task 4: unlimited
  | Maximum stacksize for task 5: unlimited
  | Maximum stacksize for task 6: unlimited
  | Maximum stacksize for task 7: unlimited
  | Current stacksize for task 0: unlimited
  | Current stacksize for task 1: unlimited
  | Current stacksize for task 2: unlimited
  | Current stacksize for task 3: unlimited
  | Current stacksize for task 4: unlimited
  | Current stacksize for task 5: unlimited
  | Current stacksize for task 6: unlimited
  | Current stacksize for task 7: unlimited
  | Checking for scalapack...
  | Testing pdtran()...
  | All pdtran() tests passed.

  Obtaining array dimensions for all initial allocations:
  
  -----------------------------------------------------------------------
  Parsing control.in (first pass over file, find array dimensions only).
  The contents of control.in will be repeated verbatim below
  unless switched off by setting 'verbatim_writeout .false.' .
  in the first line of control.in .
  -----------------------------------------------------------------------
  
  sc_accuracy_eev                    1.00e-05
  sc_accuracy_rho                    1.00e-05
  sc_accuracy_etot                   1.00e-06
  
  compute_forces                     .false.
  
  mixer                              pulay
  
  xc                                 pbe
  
  spin                               none
  default_initial_moment             2.5
  k_grid                             6 6 1
  
  
  n_max_pulay                        8
  
  relativistic                       atomic_zora scalar
  
  charge_mix_param                   0.100000
  occupation_type                    gaussian 0.1
  
  output h_s_matrices
  ################################################################################
  #
  #  FHI-aims code project
  #  VB, Fritz-Haber Institut, 2009
  #
  #  Suggested "light" defaults for Fe atom (to be pasted into control.in file)
  #  Be sure to double-check any results obtained with these settings for post-processing,
  #  e.g., with the "tight" defaults and larger basis sets.
  #
  ################################################################################
    species        Fe
  #     global species definitions
      nucleus             26
      mass                55.845
  #
      l_hartree           4
  #
      cut_pot             3.5          1.5  1.0
      basis_dep_cutoff    1e-4
  #
      radial_base         51 5.0
      radial_multiplier   1
      angular_grids       specified
        division   0.4337   50
        division   0.8154  110
        division   1.1046  194
        division   1.3713  302
  #      division   1.5424  434
  #      division   1.7365  590
  #      division   1.9587  770
  #      division   1.9990  974
  #      division   2.4139 1202
  #      outer_grid  1202
        outer_grid  302
  ################################################################################
  #
  #  Definition of "minimal" basis
  #
  ################################################################################
  #     valence basis states
      valence      4  s   2.
      valence      3  p   6.
      valence      3  d   6.
  #     ion occupancy
      ion_occ      4  s   1.
      ion_occ      3  p   6.
      ion_occ      3  d   5.
  ################################################################################
  #
  #  Suggested additional basis functions. For production calculations,
  #  uncomment them one after another (the most important basis functions are
  #  listed first).
  #
  #  Constructed for dimers: 1.45 A, 1.725 A, 2.25 A, 3.00 A, 4.00 A
  #
  ################################################################################
  #  "First tier" - improvements: -300.53 meV to -10.50 meV
       hydro 4 f 9.4
       hydro 2 p 2.2
  #     hydro 5 g 12.4
       hydro 3 d 3.1
       ionic 4 s auto
  #  "Second tier" - improvements: -16.31 meV to -0.65 meV
  #     hydro 3 d 6.2
  #     hydro 6 h 19.2
  #     hydro 4 f 15.2
  #     hydro 4 f 6.6
  #     hydro 3 p 3
  #     hydro 5 g 13.2
  #     hydro 1 s 0.65
  #  "Third tier" - improvements: -1.60 meV to -0.10 meV
  #     hydro 4 d 7.8
  #     hydro 4 p 19.6
  #     hydro 4 d 10.4
  #     ionic 4 p auto
  #     hydro 6 h 17.6
  #     hydro 5 f 27.2
  #     hydro 4 s 4.8
  #  "Fourth tier": improvements -0.13 meV and below
  #     hydro 5 f 12
  #     hydro 5 g 10.4
  #     hydro 5 p 8.4
  #     hydro 4 d 14.8
  #     hydro 2 s 1.9
  
  -----------------------------------------------------------------------
  Completed first pass over input file control.in .
  -----------------------------------------------------------------------
  
  
  -----------------------------------------------------------------------
  Parsing geometry.in (first pass over file, find array dimensions only).
  The contents of geometry.in will be repeated verbatim below
  unless switched off by setting 'verbatim_writeout .false.' .
  in the first line of geometry.in .
  -----------------------------------------------------------------------
  
  lattice_vector 2.7559999999999998 0.0000000000000000 0.0000000000000000
  lattice_vector 0.0000000000000000 3.8975725799999998 0.0000000000000000
  lattice_vector 0.0000000000000000 0.0000000000000000 20.0000000000000000
  atom 0.0000000000000000 0.0000000000000000 0.0000000000000000 Fe
  atom 1.3779999999999999 1.9487862899999999 0.0000000000000000 Fe
  
  
  -----------------------------------------------------------------------
  Completed first pass over input file geometry.in .
  -----------------------------------------------------------------------
  

  Basic array size parameters:
  | Number of species                 :        1
  | Number of atoms                   :        2
  | Number of lattice vectors         :        3
  | Max. basis fn. angular momentum   :        3
  | Max. atomic/ionic basis occupied n:        4
  | Max. number of basis fn. types    :        3
  | Max. radial fns per species/type  :        7
  | Max. logarithmic grid size        :     1397
  | Max. radial integration grid size :       51
  | Max. angular integration grid size:      302
  | Max. angular grid division number :        8
  | Radial grid for Hartree potential :     1397
  | Number of spin channels           :        1

------------------------------------------------------------
          Reading file control.in.
------------------------------------------------------------
  Convergence accuracy of sum of eigenvalues:  0.1000E-04
  Convergence accuracy of self-consistent charge density:  0.1000E-04
  Convergence accuracy of total energy:  0.1000E-05
  Forces will not be computed.
  Using pulay charge density mixing.
  XC: Using PBE gradient-corrected functionals.
  Spin treatment: No spin polarisation.
  Initial spin moment per atom:   2.5000
  Found k-point grid:         6         6         1
  Pulay mixing - number of memorized iterations:    8
  Scalar relativistic treatment of kinetic energy: on-site free-atom approximation to ZORA.
  Charge density mixing - mixing parameter:     0.1000
  Occupation type: Gaussian broadening, width =   0.100000E+00 eV.
  Hamilton and overlap matrices will be written out in a_ij-format.
 
  Reading configuration options for species Fe                  .
  | Found nuclear charge :  26.0000
  | Found atomic mass :    55.8450000000000      amu
  | Found l_max for Hartree potential  :   4
  | Found cutoff potl. onset [A], width [A], scale factor :    3.50000    1.50000    1.00000
  | Threshold for basis-dependent cutoff potential is   0.100000E-03
  | Found data for basic radial integration grid :    51 points, outermost radius =    5.000 A
  | Found multiplier for basic radial grid :   1
  | Found angular grid specification: user-specified.
  | Specified grid contains     5 separate shells.
  | Check grid settings after all constraints further below.
  | Found free-atom valence shell :  4 s   2.000
  | Found free-atom valence shell :  3 p   6.000
  | Found free-atom valence shell :  3 d   6.000
  | Found free-ion valence shell :  4 s   1.000
  | Found free-ion valence shell :  3 p   6.000
  | Found free-ion valence shell :  3 d   5.000
  | Found hydrogenic basis function :  4 f   9.400
  | Found hydrogenic basis function :  2 p   2.200
  | Found hydrogenic basis function :  3 d   3.100
  | Found ionic basis function :  4 s , default cutoff radius.
  Species Fe                  : Missing cutoff potential type.
  Defaulting to exp(1/x)/(1-x)^2 type cutoff potential.
  Species Fe: No 'logarithmic' tag. Using default grid for free atom:
  | Default logarithmic grid data [bohr] : 0.1000E-03 0.1000E+03 0.1012E+01
  | Will include ionic basis functions of  2.0-fold positive Fe                   ion.
  Species Fe: On-site basis accuracy parameter (for Gram-Schmidt orthonormalisation) not specified.
  Using default value basis_acc =  0.1000000E-03.
  Species Fe                  : Using default innermost maximum threshold i_radial=  2 for radial functions.
  Species Fe                  : Default cutoff onset for free atom density etc. : 0.35000000E+01 AA.
  Species Fe                  : Basic radial grid will be enhanced according to radial_multiplier =   1, to contain    51 grid points.
 
  Finished reading input file 'control.in'. Consistency checks are next.
 
  MPI_IN_PLACE appears to work with this MPI implementation.
  | Keeping use_mpi_in_place .true. (see manual).
  Target number of points in a grid batch is not set. Defaulting to  100
  Method for grid partitioning is not set. Defaulting to parallel hash+maxmin partitioning.
  Batch size limit is not set. Defaulting to    200
  By default, will store active basis functions for each batch.
  If in need of memory, prune_basis_once .false. can be used to disable this option.
  communication_type for Hartree potential was not specified.
  Defaulting to calc_hartree .
  Pulay mixer: Number of initial linear mixing iterations not set.
  Defaulting to    0 iterations.
  Work space size for distributed Hartree potential not set.
  Defaulting to   0.200000E+03 MB.
  Algorithm-dependent basis array size parameters:
  | n_max_pulay                         :        8
  Maximum number of self-consistency iterations not provided.
  Presetting  1000 iterations.
  Presetting      1001 iterations before the initial mixing cycle
  is restarted anyway using the sc_init_iter criterion / keyword.
  Presetting a factor      1.000 between actual scf density residual
  and density convergence criterion sc_accuracy_rho below which sc_init_iter
  takes no effect.
  Geometry relaxation not requested: no relaxation will be performed.
  No accuracy limit for integral partition fn. given. Defaulting to  0.1000E-14.
  No threshold value for u(r) in integrations given. Defaulting to  0.1000E-05.
  No accuracy for occupation numbers given. Defaulting to  0.1000E-12.
  No threshold value for occupation numbers given. Defaulting to  0.0000E+00.
  No accuracy for fermi level given. Defaulting to  0.1000E-19.
  Maximum # of iterations to find E_F not set. Defaulting to  200.
  Preferred method for the eigenvalue solver ('KS_method') not specified in 'control.in'.
  Defaulting to serial version, LAPACK (via ELSI), since more k-points than CPUs available.
  Will not use alltoall communication since running on < 1024 CPUs.
  Threshold for basis singularities not set.
  Default threshold for basis singularities:  0.1000E-04
  partition_type (choice of integration weights) for integrals was not specified.
  | Using a version of the partition function of Stratmann and coworkers ('stratmann_sparse').
  | At each grid point, the set of atoms used to build the partition table is smoothly restricted to
  | only those atoms whose free-atom density would be non-zero at that grid point.
  Partitioning for Hartree potential was not defined. Using partition_type for integrals.
  | Adjusted default value of keyword multip_moments_threshold to:       0.10000000E-11
  | This value may affect high angular momentum components of the Hartree potential in periodic systems.
  No spin polarisation - ignoring explicitly requested default initial moment.
  Angular momentum expansion for Kerker preconditioner not set explicitly.
  | Using default value of   0
  No explicit requirement for turning off preconditioner.
  | By default, it will be turned off when the charge convergence reaches
  | sc_accuracy_rho  =   0.100000E-04
  | sc_accuracy_eev  =   0.100000E-04
  | sc_accuracy_etot =   0.100000E-05
  No special mixing parameter while Kerker preconditioner is on.
  Using default: charge_mix_param =     0.1000.
  No q(lm)/r^(l+1) cutoff set for long-range Hartree potential.
  | Using default value of  0.100000E-09 .
  | Verify using the multipole_threshold keyword.
  Defaulting to new monopole extrapolation.
  Density update method: automatic selection selected.
  Using density matrix based charge density update.
  Using density matrix based charge density update.
  Using packed matrix style: index .
  Defaulting to use time-reversal symmetry for k-point grid.
  Charge integration errors on the 3D integration grid will be compensated
  by explicit normalization and distribution of residual charges.
  Use the "compensate_multipole_errors" flag to change this behaviour.
------------------------------------------------------------


------------------------------------------------------------
          Reading geometry description geometry.in.
------------------------------------------------------------
  Input structure read successfully.
  The structure contains        2 atoms,  and a total of         52.000 electrons.

  Input geometry:
  | Unit cell:
  |        2.75600000        0.00000000        0.00000000
  |        0.00000000        3.89757258        0.00000000
  |        0.00000000        0.00000000       20.00000000
  | Atomic structure:
  |       Atom                x [A]            y [A]            z [A]
  |    1: Species Fe            0.00000000        0.00000000        0.00000000
  |    2: Species Fe            1.37800000        1.94878629        0.00000000

  Lattice parameters for 3D lattice (in Angstroms) :     2.756000    3.897573   20.000000
  Angle(s) between unit vectors (in degrees)       :    90.000000   90.000000   90.000000

  | The smallest distance between any two atoms is         2.38676601 AA.
  | The first atom of this pair is atom number                      1 .
  | The second atom of this pair is atom number                     2 .
  | Wigner-Seitz cell of the first atom image           0     0     0 .
  | (The Wigner-Seitz cell of the second atom is 0 0 0  by definition.)

  Symmetry information by spglib:
  | Precision set to  0.1E-04
  | Number of Operations  : 16
  | Space group           : 65
  | International         : Cmmm
  | Schoenflies           : D2h^19

  Quantities derived from the lattice vectors:
  | Reciprocal lattice vector 1:  2.279821  0.000000  0.000000
  | Reciprocal lattice vector 2:  0.000000  1.612077  0.000000
  | Reciprocal lattice vector 3:  0.000000  0.000000  0.314159
  | Unit cell volume                               :   0.214834E+03  A^3

  Range separation radius for Ewald summation (hartree_convergence_parameter):      5.00000000 bohr.

  Fractional coordinates:
                         L1                L2                L3
       atom_frac         0.00000000        0.00000000        0.00000000  Fe
       atom_frac         0.50000000        0.50000000        0.00000000  Fe

  Number of empty states per atom not set in control.in - providing a guess from actual geometry.
  | Total number of empty states used during s.c.f. cycle:       11
  If you use a very high smearing, use empty_states (per atom!) in control.in to increase this value.

  Structure-dependent array size parameters: 
  | Maximum number of distinct radial functions  :       11
  | Maximum number of basis functions            :       62
  | Number of Kohn-Sham states (occupied + empty):       37
------------------------------------------------------------

------------------------------------------------------------
          Preparing all fixed parts of the calculation.
------------------------------------------------------------
  Determining machine precision:
    2.225073858507201E-308
  Setting up grids for atomic and cluster calculations.

  Creating wave function, potential, and density for free atoms.

  Species: Fe

  List of occupied orbitals and eigenvalues:
    n    l              occ      energy [Ha]    energy [eV]
    1    0           2.0000      -259.347078     -7057.1931
    2    0           2.0000       -30.151288      -820.4583
    3    0           2.0000        -3.446299       -93.7786
    4    0           2.0000        -0.186616        -5.0781
    2    1           6.0000       -25.685596      -698.9406
    3    1           6.0000        -2.197354       -59.7930
    3    2           6.0000        -0.267356        -7.2751

  Creating fixed part of basis set: Ionic, confined, hydrogenic.
 
  Fe                   ion:

  List of free ionic orbitals and eigenvalues:
    n    l      energy [Ha]    energy [eV]
    1    0      -260.321188     -7083.6999
    2    0       -31.136355      -847.2633
    3    0        -4.393974      -119.5661
    4    0        -0.821894       -22.3649
    2    1       -26.668999      -725.7004
    3    1        -3.137384       -85.3726
    3    2        -1.170461       -31.8499


  List of ionic basis orbitals and eigenvalues:
    n    l      energy [Ha]    energy [eV]    outer radius [A]
    4    0        -0.821823       -22.3629       4.554938

 
  Fe                   hydrogenic:
 
  List of hydrogenic basis orbitals: 
    n    l      effective z      eigenvalue [eV]  inner max. [A]     outer max. [A]     outer radius [A]   
    4    3         9.400000       -75.1370           0.896093           0.896093           3.791786
    2    1         2.200000       -16.4552           0.964292           0.964292           4.554938
    3    2         3.100000       -14.4291           1.515830           1.515830           4.610964
 

  Adding cutoff potential to free-atom effective potential.
  Creating atomic-like basis functions for current effective potential.

  Species Fe                  :

  List of atomic basis orbitals and eigenvalues:
    n    l      energy [Ha]    energy [eV]    outer radius [A]
    1    0      -259.347078     -7057.1931       0.409790
    2    0       -30.151288      -820.4583       1.216422
    3    0        -3.446299       -93.7786       3.438507
    4    0        -0.186616        -5.0781       4.610964
    2    1       -25.685596      -698.9406       1.277383
    3    1        -2.197354       -59.7930       3.981813
    3    2        -0.267356        -7.2751       4.499593

  Assembling full basis from fixed parts.
  | Species Fe :   atomic orbital   1 s accepted.
  | Species Fe :   atomic orbital   2 s accepted.
  | Species Fe :   atomic orbital   3 s accepted.
  | Species Fe :    ionic orbital   4 s accepted.
  | Species Fe :   atomic orbital   4 s accepted.
  | Species Fe :   atomic orbital   2 p accepted.
  | Species Fe :   atomic orbital   3 p accepted.
  | Species Fe :    hydro orbital   2 p accepted.
  | Species Fe :   atomic orbital   3 d accepted.
  | Species Fe :    hydro orbital   3 d accepted.
  | Species Fe :    hydro orbital   4 f accepted.
 
  Basis size parameters after reduction:
  | Total number of radial functions:       11
  | Total number of basis functions :       62
 
  Per-task memory consumption for arrays in subroutine allocate_ext:
  |           3.935944MB.
  Testing on-site integration grid accuracy.
  |  Species  Function  <phi|h_atom|phi> (log., in eV)  <phi|h_atom|phi> (rad., in eV)
           1        1              -7057.1930710306              -7057.1872777124
           1        2               -820.4582952878               -820.4582331439
           1        3                -93.7785623021                -93.7785610589
           1        4                 -4.2201457338                 -4.2209190008
           1        5                  6.4834568061                  6.3497174940 ***
           1        6               -698.9406259938               -698.9406257532
           1        7                -59.7930400084                -59.7930399016
           1        8                  2.2031040148                  2.1993518317
           1        9                 -7.2752599110                 -7.2754441096
           1       10                  7.3532119403                  7.3196728658 ***
           1       11                 40.5776732000                 40.5777100294
 * Note: Onsite integrals marked "***" above are less accurate than
 * onsite_accuracy_threshold =    0.03000 eV. Usually, this is harmless.
 * When in doubt, tighten the "radial" and/or "radial_multiplier" flags to check.

  Preparing densities etc. for the partition functions (integrals / Hartree potential).

  Preparations completed.
  max(cpu_time)          :      0.228 s.
  Wall clock time (cpu1) :      0.227 s.
------------------------------------------------------------

------------------------------------------------------------
          Begin self-consistency loop: Initialization.

          Date     :  20190817, Time     :  153436.628
------------------------------------------------------------

  Initializing index lists of integration centers etc. from given atomic structure:
  Mapping all atomic coordinates to central unit cell.

  Initializing the k-points
          Using symmetry for reducing the k-points
  | k-points reduced from:       36 to       20
  | Number of k-points                             :        20
  The eigenvectors in the calculations are COMPLEX.
  | K-points in task   0:         2
  | K-points in task   1:         3
  | K-points in task   2:         3
  | K-points in task   3:         3
  | K-points in task   4:         3
  | K-points in task   5:         2
  | K-points in task   6:         2
  | K-points in task   7:         2
  | Number of basis functions in the Hamiltonian integrals :       731
  | Number of basis functions in a single unit cell        :        62
  | Number of centers in hartree potential         :       188
  | Number of centers in hartree multipole         :        76
  | Number of centers in electron density summation:        60
  | Number of centers in basis integrals           :        64
  | Number of centers in integrals                 :        31
  | Number of centers in hamiltonian               :        60
  | Consuming         10 KiB for k_phase.
  | Number of super-cells (origin) [n_cells]                     :         825
  | Number of super-cells (after PM_index) [n_cells]             :          34
  | Number of super-cells in hamiltonian [n_cells_in_hamiltonian]:          34
  | Size of matrix packed + index [n_hamiltonian_matrix_size] :       36025
  | Estimated reciprocal-space cutoff momentum G_max:         1.84432723 bohr^-1 .
  | Reciprocal lattice points for long-range Hartree potential:     164
  Partitioning the integration grid into batches with parallel hashing+maxmin method.
  | Number of batches:      198
  | Maximal batch size:     113
  | Minimal batch size:      55
  | Average batch size:      72.061
  | Standard deviation of batch sizes:      18.844

  Integration load balanced across     8 MPI tasks.
  Work distribution over tasks is as follows:
  Task     0 has       1781 integration points.
  Task     1 has       1820 integration points.
  Task     2 has       1821 integration points.
  Task     3 has       1733 integration points.
  Task     4 has       1834 integration points.
  Task     5 has       1746 integration points.
  Task     6 has       1787 integration points.
  Task     7 has       1746 integration points.
  Initializing partition tables, free-atom densities, potentials, etc. across the integration grid (initialize_grid_storage).
  | initialize_grid_storage: Actual outermost partition radius vs. multipole_radius_free
  | (-- VB: in principle, multipole_radius_free should be larger, hence this output)
  | Species        1: Confinement radius =              4.999999999999999 AA, multipole_radius_free =              5.022921912105459 AA.
  | Species        1: outer_partition_radius set to              5.022921912105459 AA .
  | The sparse table of interatomic distances needs         28.00 kbyte instead of        32.77 kbyte of memory.
  | Net number of integration points:    14268
  | of which are non-zero points    :    12936
  | Numerical average free-atom electrostatic potential    :     -2.93093414 eV
  Renormalizing the initial density to the exact electron count on the 3D integration grid.
  | Initial density: Formal number of electrons (from input files) :      52.0000000000
  | Integrated number of electrons on 3D grid     :      51.9999548888
  | Charge integration error                      :      -0.0000451112
  | Normalization factor for density and gradient :       1.0000008675
  Renormalizing the free-atom superposition density to the exact electron count on the 3D integration grid.
  | Formal number of electrons (from input files) :      52.0000000000
  | Integrated number of electrons on 3D grid     :      51.9999548888
  | Charge integration error                      :      -0.0000451112
  | Normalization factor for density and gradient :       1.0000008675
  Obtaining max. number of non-zero basis functions in each batch (get_n_compute_maxes).
  | Maximal number of non-zero basis functions:      375 in task     0
  | Maximal number of non-zero basis functions:      375 in task     1
  | Maximal number of non-zero basis functions:      392 in task     2
  | Maximal number of non-zero basis functions:      377 in task     3
  | Maximal number of non-zero basis functions:      377 in task     4
  | Maximal number of non-zero basis functions:      366 in task     5
  | Maximal number of non-zero basis functions:      370 in task     6
  | Maximal number of non-zero basis functions:      380 in task     7
  Allocating        0.070 MB for KS_eigenvector_complex
  Integrating Hamiltonian matrix: batch-based integration.
  Time summed over all CPUs for integration: real work        0.347 s, elapsed        0.354 s
  Integrating overlap matrix.
  Time summed over all CPUs for integration: real work        0.213 s, elapsed        0.216 s
  Decreasing sparse matrix size:
   Tolerance:  9.999999824516700E-014
   Hamiltonian matrix
  | Array has    16906 nonzero elements out of    36025 elements
  | Sparsity factor is 0.531
   Overlap matrix
  | Array has    15784 nonzero elements out of    36025 elements
  | Sparsity factor is 0.562
  New size of hamiltonian matrix:       17697
  Writing basis function properties and matrices.
     62 basis functions used.

  Updating Kohn-Sham eigenvalues and eigenvectors using ELSI and the (modified) LAPACK eigensolver.
  Singularity check in k-point 8, task 0 (analysis for other k-points/tasks may follow below):
  Overlap matrix is not singular
  | Lowest and highest eigenvalues :  0.5778E-02,  0.3715E+01
  Finished singularity check of overlap matrix
  | Time :     0.001 s
  Starting LAPACK eigensolver
  Finished Cholesky decomposition
  | Time :     0.000 s
  Finished transformation to standard eigenproblem
  | Time :     0.000 s
  Finished solving standard eigenproblem
  | Time :     0.000 s
  Finished back-transformation of eigenvectors
  | Time :     0.001 s

  Obtaining occupation numbers and chemical potential using ELSI.
  | Chemical potential (Fermi level):    -7.78362823 eV
  Writing Kohn-Sham eigenvalues.
  K-point:       1 at    0.000000    0.000000    0.000000 (in units of recip. lattice)

  State    Occupation    Eigenvalue [Ha]    Eigenvalue [eV]
      1       2.00000        -259.369930        -7057.81490
      2       2.00000        -259.369930        -7057.81490
      3       2.00000         -30.175037         -821.10452
      4       2.00000         -30.175037         -821.10452
      5       2.00000         -25.709448         -699.58967
      6       2.00000         -25.709448         -699.58967
      7       2.00000         -25.709274         -699.58495
      8       2.00000         -25.709274         -699.58495
      9       2.00000         -25.708791         -699.57180
     10       2.00000         -25.708791         -699.57180
     11       2.00000          -3.480102          -94.69840
     12       2.00000          -3.476444          -94.59885
     13       2.00000          -2.244365          -61.07228
     14       2.00000          -2.234742          -60.81042
     15       2.00000          -2.227353          -60.60936
     16       2.00000          -2.226612          -60.58919
     17       2.00000          -2.226446          -60.58467
     18       2.00000          -2.223593          -60.50704
     19       2.00000          -0.477127          -12.98330
     20       2.00000          -0.410593          -11.17282
     21       2.00000          -0.368622          -10.03073
     22       2.00000          -0.351508           -9.56502
     23       2.00000          -0.321862           -8.75831
     24       2.00000          -0.302544           -8.23263
     25       1.55406          -0.288024           -7.83752
     26       0.00010          -0.275947           -7.50891
     27       0.00000          -0.273100           -7.43143
     28       0.00000          -0.265532           -7.22550
     29       0.00000          -0.235151           -6.39879
     30       0.00000          -0.180361           -4.90786
     31       0.00000          -0.099091           -2.69640
     32       0.00000           0.079803            2.17155
     33       0.00000           0.089518            2.43592
     34       0.00000           0.259623            7.06469
     35       0.00000           0.300257            8.17040
     36       0.00000           0.327824            8.92054
     37       0.00000           0.441022           12.00083

  What follows are estimated values for band gap, HOMO, LUMO, etc.
  | They are estimated on a discrete k-point grid and not necessarily exact.
  | For converged numbers, create a DOS and/or band structure plot on a denser k-grid.

  Highest occupied state (VBM) at     -7.81861679 eV (relative to internal zero)
  | Occupation number:      1.37926792
  | K-point:      16 at    0.500000    0.500000    0.000000 (in units of recip. lattice)

  Lowest unoccupied state (CBM) at    -7.76220596 eV (relative to internal zero)
  | Occupation number:      0.76192290
  | K-point:      11 at    0.333333    0.333333    0.000000 (in units of recip. lattice)

  ESTIMATED overall HOMO-LUMO gap:      0.05641084 eV between HOMO at k-point 16 and LUMO at k-point 11
  | This appears to be an indirect band gap.
  | Smallest direct gap :      0.09412802 eV for k_point 11 at    0.333333    0.333333    0.000000 (in units of recip. lattice)
  However, this system has fractional occupation numbers. Since we use a finite k-point grid,
  this material is metallic within the approximate finite broadening function (occupation_type)
  applied to determine the occupation numbers.
  Calculating total energy contributions from superposition of free atom densities.

  Total energy components:
  | Sum of eigenvalues            :       -1512.81629369 Ha      -41165.82584533 eV
  | XC energy correction          :        -111.72543608 Ha       -3040.20379963 eV
  | XC potential correction       :         144.99150450 Ha        3945.41957823 eV
  | Free-atom electrostatic energy:       -1075.61566251 Ha      -29268.99136673 eV
  | Hartree energy correction     :           0.00000000 Ha           0.00000000 eV
  | Entropy correction            :          -0.00084916 Ha          -0.02310685 eV
  | ---------------------------
  | Total energy                  :       -2555.16588777 Ha      -69529.60143346 eV
  | Total energy, T -> 0          :       -2555.16673693 Ha      -69529.62454030 eV  <-- do not rely on this value for anything but (periodic) metals
  | Electronic free energy        :       -2555.16758609 Ha      -69529.64764715 eV

  Derived energy quantities:
  | Kinetic energy                :        2585.87776804 Ha       70365.31421611 eV
  | Electrostatic energy          :       -5029.31821973 Ha     -136854.71184994 eV
  | Energy correction for multipole
  | error in Hartree potential    :           0.00000000 Ha           0.00000000 eV
  | Sum of eigenvalues per atom                           :      -20582.91292267 eV
  | Total energy (T->0) per atom                          :      -34764.81227015 eV  <-- do not rely on this value for anything but (periodic) metals
  | Electronic free energy per atom                       :      -34764.82382357 eV
  Initialize hartree_potential_storage
  Max. number of atoms included in rho_multipole:            2

  End scf initialization - timings             :  max(cpu_time)    wall_clock(cpu1)
  | Time for scf. initialization               :        0.200 s           0.209 s
  | Boundary condition initialization          :        0.067 s           0.067 s
  | Integration                                :        0.075 s           0.074 s
  | Solution of K.-S. eqns.                    :        0.015 s           0.009 s
  | Grid partitioning                          :        0.012 s           0.012 s
  | Preloading free-atom quantities on grid    :        0.002 s           0.002 s
  | Free-atom superposition energy             :        0.004 s           0.004 s
  | Total energy evaluation                    :        0.000 s           0.000 s

  Partial memory accounting:
  | Current value for overall tracked memory usage:
  |   Minimum:        0.408 MB (on task 0)
  |   Maximum:        0.443 MB (on task 1)
  |   Average:        0.425 MB
  | Peak value for overall tracked memory usage:
  |   Minimum:        2.734 MB (on task 5 after allocating wave)
  |   Maximum:        2.988 MB (on task 2 after allocating wave)
  |   Average:        2.839 MB
  | Largest tracked array allocation so far:
  |   Minimum:        1.022 MB (hamiltonian_shell on task 5)
  |   Maximum:        1.172 MB (hamiltonian_shell on task 2)
  |   Average:        1.082 MB
  Note:  These values currently only include a subset of arrays which are explicitly tracked.
  The "true" memory usage will be greater.
------------------------------------------------------------

------------------------------------------------------------
          Begin self-consistency iteration #    1

  Date     :  20190817, Time     :  153436.837
------------------------------------------------------------
  Evaluating new KS density using the density matrix
  Evaluating density matrix
  Time summed over all CPUs for getting density from density matrix: real work        0.545 s, elapsed        0.560 s
  Integration grid: deviation in total charge (<rho> - N_e) =  -3.339551E-13
  Pulay mixing of updated and previous charge densities.
  Renormalizing the density to the exact electron count on the 3D integration grid.
  | Formal number of electrons (from input files) :      52.0000000000
  | Integrated number of electrons on 3D grid     :      51.9996297499
  | Charge integration error                      :      -0.0003702501
  | Normalization factor for density and gradient :       1.0000071202

  Evaluating partitioned Hartree potential by multipole expansion.
  | Original multipole sum: apparent total charge =   0.258873E-13
  | Sum of charges compensated after spline to logarithmic grids =   0.105835E-04
  | Analytical far-field extrapolation by fixed multipoles:
  | Hartree multipole sum: apparent total charge =   0.000000E+00
  Summing up the Hartree potential.
  Time summed over all CPUs for potential: real work        0.353 s, elapsed        0.366 s
  | RMS charge density error from multipole expansion :   0.277973E-03
  | Average real-space part of the electrostatic potential :     -0.00104788 eV

  Integrating Hamiltonian matrix: batch-based integration.
  Time summed over all CPUs for integration: real work        0.340 s, elapsed        0.347 s
  Writing basis function properties and matrices.
     62 basis functions used.

  Updating Kohn-Sham eigenvalues and eigenvectors using ELSI and the (modified) LAPACK eigensolver.
  Starting LAPACK eigensolver
  Finished Cholesky decomposition
  | Time :     0.000 s
  Finished transformation to standard eigenproblem
  | Time :     0.001 s
  Finished solving standard eigenproblem
  | Time :     0.001 s
  Finished back-transformation of eigenvectors
  | Time :     0.000 s

  Obtaining occupation numbers and chemical potential using ELSI.
  | Chemical potential (Fermi level):    -7.28669720 eV
  Writing Kohn-Sham eigenvalues.
  K-point:       1 at    0.000000    0.000000    0.000000 (in units of recip. lattice)

  State    Occupation    Eigenvalue [Ha]    Eigenvalue [eV]
      1       2.00000        -259.343317        -7057.09072
      2       2.00000        -259.343317        -7057.09072
      3       2.00000         -30.148716         -820.38830
      4       2.00000         -30.148716         -820.38830
      5       2.00000         -25.683589         -698.88602
      6       2.00000         -25.683589         -698.88602
      7       2.00000         -25.682422         -698.85427
      8       2.00000         -25.682422         -698.85427
      9       2.00000         -25.682246         -698.84947
     10       2.00000         -25.682246         -698.84947
     11       2.00000          -3.458394          -94.10769
     12       2.00000          -3.454711          -94.00746
     13       2.00000          -2.223545          -60.50574
     14       2.00000          -2.212053          -60.19302
     15       2.00000          -2.206253          -60.03521
     16       2.00000          -2.205663          -60.01914
     17       2.00000          -2.204595          -59.99009
     18       2.00000          -2.203369          -59.95672
     19       2.00000          -0.463107          -12.60178
     20       2.00000          -0.391987          -10.66650
     21       2.00000          -0.348671           -9.48781
     22       2.00000          -0.334424           -9.10013
     23       2.00000          -0.307340           -8.36313
     24       2.00000          -0.283168           -7.70539
     25       0.81316          -0.267167           -7.26998
     26       0.00015          -0.257913           -7.01817
     27       0.00000          -0.253081           -6.88669
     28       0.00000          -0.246528           -6.70836
     29       0.00000          -0.213691           -5.81483
     30       0.00000          -0.172106           -4.68323
     31       0.00000          -0.085654           -2.33075
     32       0.00000           0.087175            2.37216
     33       0.00000           0.102523            2.78979
     34       0.00000           0.269316            7.32846
     35       0.00000           0.310247            8.44226
     36       0.00000           0.342619            9.32313
     37       0.00000           0.453214           12.33258

  What follows are estimated values for band gap, HOMO, LUMO, etc.
  | They are estimated on a discrete k-point grid and not necessarily exact.
  | For converged numbers, create a DOS and/or band structure plot on a denser k-grid.

  Highest occupied state (VBM) at     -7.30552471 eV (relative to internal zero)
  | Occupation number:      1.20996188
  | K-point:       4 at    0.000000    0.500000    0.000000 (in units of recip. lattice)

  Lowest unoccupied state (CBM) at    -7.26998474 eV (relative to internal zero)
  | Occupation number:      0.81316116
  | K-point:       1 at    0.000000    0.000000    0.000000 (in units of recip. lattice)

  ESTIMATED overall HOMO-LUMO gap:      0.03553997 eV between HOMO at k-point 4 and LUMO at k-point 1
  | This appears to be an indirect band gap.
  | Smallest direct gap :      0.19685281 eV for k_point 11 at    0.000000    0.000000    0.000000 (in units of recip. lattice)
  However, this system has fractional occupation numbers. Since we use a finite k-point grid,
  this material is metallic within the approximate finite broadening function (occupation_type)
  applied to determine the occupation numbers.

  Total energy components:
  | Sum of eigenvalues            :       -1511.66121168 Ha      -41134.39446475 eV
  | XC energy correction          :        -111.76263513 Ha       -3041.21603731 eV
  | XC potential correction       :         145.04026050 Ha        3946.74629646 eV
  | Free-atom electrostatic energy:       -1075.61566251 Ha      -29268.99136673 eV
  | Hartree energy correction     :          -1.15813000 Ha         -31.51432072 eV
  | Entropy correction            :          -0.00083282 Ha          -0.02266205 eV
  | ---------------------------
  | Total energy                  :       -2555.15737882 Ha      -69529.36989304 eV
  | Total energy, T -> 0          :       -2555.15821163 Ha      -69529.39255509 eV  <-- do not rely on this value for anything but (periodic) metals
  | Electronic free energy        :       -2555.15904445 Ha      -69529.41521714 eV

  Derived energy quantities:
  | Kinetic energy                :        2586.12623242 Ha       70372.07527586 eV
  | Electrostatic energy          :       -5029.52097610 Ha     -136860.22913159 eV
  | Energy correction for multipole
  | error in Hartree potential    :           0.00023801 Ha           0.00647654 eV
  | Sum of eigenvalues per atom                           :      -20567.19723238 eV
  | Total energy (T->0) per atom                          :      -34764.69627755 eV  <-- do not rely on this value for anything but (periodic) metals
  | Electronic free energy per atom                       :      -34764.70760857 eV

  Self-consistency convergence accuracy:
  | Change of charge density      :  0.1704E+00
  | Change of sum of eigenvalues  :  0.3143E+02 eV
  | Change of total energy        :  0.2315E+00 eV

  End self-consistency iteration #     1       :  max(cpu_time)    wall_clock(cpu1)
  | Time for this iteration                    :        0.203 s           0.204 s
  | Charge density update                      :        0.071 s           0.072 s
  | Density mixing & preconditioning           :        0.016 s           0.015 s
  | Hartree multipole update                   :        0.001 s           0.001 s
  | Hartree multipole summation                :        0.048 s           0.048 s
  | Integration                                :        0.044 s           0.044 s
  | Solution of K.-S. eqns.                    :        0.018 s           0.004 s
  | Total energy evaluation                    :        0.000 s           0.000 s

  Partial memory accounting:
  | Current value for overall tracked memory usage:
  |   Minimum:        0.408 MB (on task 0)
  |   Maximum:        0.443 MB (on task 1)
  |   Average:        0.425 MB
  | Peak value for overall tracked memory usage:
  |   Minimum:        3.323 MB (on task 5 after allocating gradient_basis_wave)
  |   Maximum:        3.643 MB (on task 2 after allocating gradient_basis_wave)
  |   Average:        3.455 MB
  | Largest tracked array allocation so far:
  |   Minimum:        1.022 MB (hamiltonian_shell on task 5)
  |   Maximum:        1.172 MB (hamiltonian_shell on task 2)
  |   Average:        1.082 MB
  Note:  These values currently only include a subset of arrays which are explicitly tracked.
  The "true" memory usage will be greater.
------------------------------------------------------------

------------------------------------------------------------
          Begin self-consistency iteration #    2

  Date     :  20190817, Time     :  153437.041
------------------------------------------------------------
  Evaluating new KS density using the density matrix
  Evaluating density matrix
  Time summed over all CPUs for getting density from density matrix: real work        0.523 s, elapsed        0.535 s
  Integration grid: deviation in total charge (<rho> - N_e) =  -3.197442E-13
  Pulay mixing of updated and previous charge densities.
  Renormalizing the density to the exact electron count on the 3D integration grid.
  | Formal number of electrons (from input files) :      52.0000000000
  | Integrated number of electrons on 3D grid     :      51.9994396719
  | Charge integration error                      :      -0.0005603281
  | Normalization factor for density and gradient :       1.0000107757

  Evaluating partitioned Hartree potential by multipole expansion.
  | Original multipole sum: apparent total charge =   0.541813E-14
  | Sum of charges compensated after spline to logarithmic grids =   0.278507E-04
  | Analytical far-field extrapolation by fixed multipoles:
  | Hartree multipole sum: apparent total charge =   0.000000E+00
  Summing up the Hartree potential.
  Time summed over all CPUs for potential: real work        0.364 s, elapsed        0.378 s
  | RMS charge density error from multipole expansion :   0.665139E-03
  | Average real-space part of the electrostatic potential :     -0.00458198 eV

  Integrating Hamiltonian matrix: batch-based integration.
  Time summed over all CPUs for integration: real work        0.338 s, elapsed        0.345 s
  Writing basis function properties and matrices.
     62 basis functions used.

  Updating Kohn-Sham eigenvalues and eigenvectors using ELSI and the (modified) LAPACK eigensolver.
  Starting LAPACK eigensolver
  Finished Cholesky decomposition
  | Time :     0.000 s
  Finished transformation to standard eigenproblem
  | Time :     0.000 s
  Finished solving standard eigenproblem
  | Time :     0.001 s
  Finished back-transformation of eigenvectors
  | Time :     0.000 s

  Obtaining occupation numbers and chemical potential using ELSI.
  | Chemical potential (Fermi level):    -6.80943624 eV
  What follows are estimated values for band gap, HOMO, LUMO, etc.
  | They are estimated on a discrete k-point grid and not necessarily exact.
  | For converged numbers, create a DOS and/or band structure plot on a denser k-grid.

  Highest occupied state (VBM) at     -6.84826295 eV (relative to internal zero)
  | Occupation number:      1.41705809
  | K-point:      12 at    0.333333    0.666667    0.000000 (in units of recip. lattice)

  Lowest unoccupied state (CBM) at    -6.80930414 eV (relative to internal zero)
  | Occupation number:      0.99850936
  | K-point:      18 at    0.666667    0.500000    0.000000 (in units of recip. lattice)

  ESTIMATED overall HOMO-LUMO gap:      0.03895881 eV between HOMO at k-point 12 and LUMO at k-point 18
  | This appears to be an indirect band gap.
  | Smallest direct gap :      0.15429623 eV for k_point 12 at    0.666667    0.500000    0.000000 (in units of recip. lattice)
  However, this system has fractional occupation numbers. Since we use a finite k-point grid,
  this material is metallic within the approximate finite broadening function (occupation_type)
  applied to determine the occupation numbers.

  Checking to see if s.c.f. parameters should be adjusted.

  Total energy components:
  | Sum of eigenvalues            :       -1510.62730704 Ha      -41106.26048803 eV
  | XC energy correction          :        -111.78937219 Ha       -3041.94358958 eV
  | XC potential correction       :         145.07540624 Ha        3947.70266068 eV
  | Free-atom electrostatic energy:       -1075.61566251 Ha      -29268.99136673 eV
  | Hartree energy correction     :          -2.19545220 Ha         -59.74129386 eV
  | Entropy correction            :          -0.00083564 Ha          -0.02273905 eV
  | ---------------------------
  | Total energy                  :       -2555.15238769 Ha      -69529.23407752 eV
  | Total energy, T -> 0          :       -2555.15322333 Ha      -69529.25681657 eV  <-- do not rely on this value for anything but (periodic) metals
  | Electronic free energy        :       -2555.15405898 Ha      -69529.27955562 eV

  Derived energy quantities:
  | Kinetic energy                :        2586.24225531 Ha       70375.23241951 eV
  | Electrostatic energy          :       -5029.60527082 Ha     -136862.52290745 eV
  | Energy correction for multipole
  | error in Hartree potential    :           0.00043483 Ha           0.01183225 eV
  | Sum of eigenvalues per atom                           :      -20553.13024402 eV
  | Total energy (T->0) per atom                          :      -34764.62840828 eV  <-- do not rely on this value for anything but (periodic) metals
  | Electronic free energy per atom                       :      -34764.63977781 eV

  Self-consistency convergence accuracy:
  | Change of charge density      :  0.1133E+00
  | Change of sum of eigenvalues  :  0.2813E+02 eV
  | Change of total energy        :  0.1358E+00 eV

  End self-consistency iteration #     2       :  max(cpu_time)    wall_clock(cpu1)
  | Time for this iteration                    :        0.201 s           0.201 s
  | Charge density update                      :        0.068 s           0.068 s
  | Density mixing & preconditioning           :        0.016 s           0.016 s
  | Hartree multipole update                   :        0.001 s           0.001 s
  | Hartree multipole summation                :        0.049 s           0.049 s
  | Integration                                :        0.044 s           0.044 s
  | Solution of K.-S. eqns.                    :        0.017 s           0.004 s
  | Total energy evaluation                    :        0.000 s           0.000 s

  Partial memory accounting:
  | Current value for overall tracked memory usage:
  |   Minimum:        0.408 MB (on task 0)
  |   Maximum:        0.443 MB (on task 1)
  |   Average:        0.426 MB
  | Peak value for overall tracked memory usage:
  |   Minimum:        3.323 MB (on task 5 after allocating gradient_basis_wave)
  |   Maximum:        3.643 MB (on task 2 after allocating gradient_basis_wave)
  |   Average:        3.455 MB
  | Largest tracked array allocation so far:
  |   Minimum:        1.022 MB (hamiltonian_shell on task 5)
  |   Maximum:        1.172 MB (hamiltonian_shell on task 2)
  |   Average:        1.082 MB
  Note:  These values currently only include a subset of arrays which are explicitly tracked.
  The "true" memory usage will be greater.
------------------------------------------------------------

------------------------------------------------------------
          Begin self-consistency iteration #    3

  Date     :  20190817, Time     :  153437.242
------------------------------------------------------------
  Evaluating new KS density using the density matrix
  Evaluating density matrix
  Time summed over all CPUs for getting density from density matrix: real work        0.518 s, elapsed        0.530 s
  Integration grid: deviation in total charge (<rho> - N_e) =  -4.192202E-13
  Pulay mixing of updated and previous charge densities.
  Renormalizing the density to the exact electron count on the 3D integration grid.
  | Formal number of electrons (from input files) :      52.0000000000
  | Integrated number of electrons on 3D grid     :      51.9973218948
  | Charge integration error                      :      -0.0026781052
  | Normalization factor for density and gradient :       1.0000515047

  Evaluating partitioned Hartree potential by multipole expansion.
  | Original multipole sum: apparent total charge =   0.593590E-13
  | Sum of charges compensated after spline to logarithmic grids =   0.104072E-03
  | Analytical far-field extrapolation by fixed multipoles:
  | Hartree multipole sum: apparent total charge =   0.000000E+00
  Summing up the Hartree potential.
  Time summed over all CPUs for potential: real work        0.389 s, elapsed        0.405 s
  | RMS charge density error from multipole expansion :   0.232298E-02
  | Average real-space part of the electrostatic potential :     -0.02506017 eV

  Integrating Hamiltonian matrix: batch-based integration.
  Time summed over all CPUs for integration: real work        0.338 s, elapsed        0.349 s
  Writing basis function properties and matrices.
     62 basis functions used.

  Updating Kohn-Sham eigenvalues and eigenvectors using ELSI and the (modified) LAPACK eigensolver.
  Starting LAPACK eigensolver
  Finished Cholesky decomposition
  | Time :     0.000 s
  Finished transformation to standard eigenproblem
  | Time :     0.000 s
  Finished solving standard eigenproblem
  | Time :     0.001 s
  Finished back-transformation of eigenvectors
  | Time :     0.000 s

  Obtaining occupation numbers and chemical potential using ELSI.
  | Chemical potential (Fermi level):    -5.69039551 eV
  What follows are estimated values for band gap, HOMO, LUMO, etc.
  | They are estimated on a discrete k-point grid and not necessarily exact.
  | For converged numbers, create a DOS and/or band structure plot on a denser k-grid.

  Highest occupied state (VBM) at     -5.69109233 eV (relative to internal zero)
  | Occupation number:      1.00786263
  | K-point:      12 at    0.333333    0.666667    0.000000 (in units of recip. lattice)

  Lowest unoccupied state (CBM) at    -5.66034424 eV (relative to internal zero)
  | Occupation number:      0.67084455
  | K-point:       8 at    0.166667    0.666667    0.000000 (in units of recip. lattice)

  ESTIMATED overall HOMO-LUMO gap:      0.03074809 eV between HOMO at k-point 12 and LUMO at k-point 8
  | This appears to be an indirect band gap.
  | Smallest direct gap :      0.05161462 eV for k_point 6 at    0.166667    0.666667    0.000000 (in units of recip. lattice)
  However, this system has fractional occupation numbers. Since we use a finite k-point grid,
  this material is metallic within the approximate finite broadening function (occupation_type)
  applied to determine the occupation numbers.

  Total energy components:
  | Sum of eigenvalues            :       -1508.56804098 Ha      -41050.22500756 eV
  | XC energy correction          :        -111.80491504 Ha       -3042.36653227 eV
  | XC potential correction       :         145.09646753 Ha        3948.27576759 eV
  | Free-atom electrostatic energy:       -1075.61566251 Ha      -29268.99136673 eV
  | Hartree energy correction     :          -4.25508706 Ha        -115.78681005 eV
  | Entropy correction            :          -0.00087908 Ha          -0.02392111 eV
  | ---------------------------
  | Total energy                  :       -2555.14723806 Ha      -69529.09394901 eV
  | Total energy, T -> 0          :       -2555.14811715 Ha      -69529.11787012 eV  <-- do not rely on this value for anything but (periodic) metals
  | Electronic free energy        :       -2555.14899623 Ha      -69529.14179123 eV

  Derived energy quantities:
  | Kinetic energy                :        2585.82458097 Ha       70363.86692222 eV
  | Electrostatic energy          :       -5029.16690398 Ha     -136850.59433897 eV
  | Energy correction for multipole
  | error in Hartree potential    :           0.00077203 Ha           0.02100814 eV
  | Sum of eigenvalues per atom                           :      -20525.11250378 eV
  | Total energy (T->0) per atom                          :      -34764.55893506 eV  <-- do not rely on this value for anything but (periodic) metals
  | Electronic free energy per atom                       :      -34764.57089561 eV

  Self-consistency convergence accuracy:
  | Change of charge density      :  0.9871E-01
  | Change of sum of eigenvalues  :  0.5604E+02 eV
  | Change of total energy        :  0.1401E+00 eV

  End self-consistency iteration #     3       :  max(cpu_time)    wall_clock(cpu1)
  | Time for this iteration                    :        0.202 s           0.202 s
  | Charge density update                      :        0.067 s           0.067 s
  | Density mixing & preconditioning           :        0.016 s           0.016 s
  | Hartree multipole update                   :        0.001 s           0.001 s
  | Hartree multipole summation                :        0.052 s           0.052 s
  | Integration                                :        0.044 s           0.045 s
  | Solution of K.-S. eqns.                    :        0.016 s           0.004 s
  | Total energy evaluation                    :        0.000 s           0.000 s

  Partial memory accounting:
  | Current value for overall tracked memory usage:
  |   Minimum:        0.408 MB (on task 0)
  |   Maximum:        0.443 MB (on task 1)
  |   Average:        0.426 MB
  | Peak value for overall tracked memory usage:
  |   Minimum:        3.324 MB (on task 5 after allocating gradient_basis_wave)
  |   Maximum:        3.644 MB (on task 2 after allocating gradient_basis_wave)
  |   Average:        3.455 MB
  | Largest tracked array allocation so far:
  |   Minimum:        1.022 MB (hamiltonian_shell on task 5)
  |   Maximum:        1.172 MB (hamiltonian_shell on task 2)
  |   Average:        1.082 MB
  Note:  These values currently only include a subset of arrays which are explicitly tracked.
  The "true" memory usage will be greater.
------------------------------------------------------------

------------------------------------------------------------
          Begin self-consistency iteration #    4

  Date     :  20190817, Time     :  153437.444
------------------------------------------------------------
  Evaluating new KS density using the density matrix
  Evaluating density matrix
  Time summed over all CPUs for getting density from density matrix: real work        0.524 s, elapsed        0.534 s
  Integration grid: deviation in total charge (<rho> - N_e) =  -4.334311E-13
  Pulay mixing of updated and previous charge densities.
  Renormalizing the density to the exact electron count on the 3D integration grid.
  | Formal number of electrons (from input files) :      52.0000000000
  | Integrated number of electrons on 3D grid     :      51.9990145619
  | Charge integration error                      :      -0.0009854381
  | Normalization factor for density and gradient :       1.0000189511

  Evaluating partitioned Hartree potential by multipole expansion.
  | Original multipole sum: apparent total charge =   0.223440E-13
  | Sum of charges compensated after spline to logarithmic grids =   0.122048E-03
  | Analytical far-field extrapolation by fixed multipoles:
  | Hartree multipole sum: apparent total charge =   0.000000E+00
  Summing up the Hartree potential.
  Time summed over all CPUs for potential: real work        0.386 s, elapsed        0.405 s
  | RMS charge density error from multipole expansion :   0.279061E-02
  | Average real-space part of the electrostatic potential :     -0.03197518 eV

  Integrating Hamiltonian matrix: batch-based integration.
  Time summed over all CPUs for integration: real work        0.341 s, elapsed        0.352 s
  Writing basis function properties and matrices.
     62 basis functions used.

  Updating Kohn-Sham eigenvalues and eigenvectors using ELSI and the (modified) LAPACK eigensolver.
  Starting LAPACK eigensolver
  Finished Cholesky decomposition
  | Time :     0.000 s
  Finished transformation to standard eigenproblem
  | Time :     0.000 s
  Finished solving standard eigenproblem
  | Time :     0.001 s
  Finished back-transformation of eigenvectors
  | Time :     0.000 s

  Obtaining occupation numbers and chemical potential using ELSI.
  | Chemical potential (Fermi level):    -5.68596619 eV
  What follows are estimated values for band gap, HOMO, LUMO, etc.
  | They are estimated on a discrete k-point grid and not necessarily exact.
  | For converged numbers, create a DOS and/or band structure plot on a denser k-grid.

  Highest occupied state (VBM) at     -5.68923599 eV (relative to internal zero)
  | Occupation number:      1.03688256
  | K-point:      12 at    0.333333    0.666667    0.000000 (in units of recip. lattice)

  Lowest unoccupied state (CBM) at    -5.64269786 eV (relative to internal zero)
  | Occupation number:      0.54059952
  | K-point:       8 at    0.166667    0.666667    0.000000 (in units of recip. lattice)

  ESTIMATED overall HOMO-LUMO gap:      0.04653813 eV between HOMO at k-point 12 and LUMO at k-point 8
  | This appears to be an indirect band gap.
  | Smallest direct gap :      0.08343232 eV for k_point 12 at    0.166667    0.666667    0.000000 (in units of recip. lattice)
  However, this system has fractional occupation numbers. Since we use a finite k-point grid,
  this material is metallic within the approximate finite broadening function (occupation_type)
  applied to determine the occupation numbers.

  Total energy components:
  | Sum of eigenvalues            :       -1508.79619056 Ha      -41056.43327336 eV
  | XC energy correction          :        -111.77563695 Ha       -3041.56983491 eV
  | XC potential correction       :         145.05833999 Ha        3947.23826443 eV
  | Free-atom electrostatic energy:       -1075.61566251 Ha      -29268.99136673 eV
  | Hartree energy correction     :          -4.01747627 Ha        -109.32109152 eV
  | Entropy correction            :          -0.00086357 Ha          -0.02349891 eV
  | ---------------------------
  | Total energy                  :       -2555.14662630 Ha      -69529.07730209 eV
  | Total energy, T -> 0          :       -2555.14748987 Ha      -69529.10080100 eV  <-- do not rely on this value for anything but (periodic) metals
  | Electronic free energy        :       -2555.14835344 Ha      -69529.12429991 eV

  Derived energy quantities:
  | Kinetic energy                :        2585.39572984 Ha       70352.19728939 eV
  | Electrostatic energy          :       -5028.76671919 Ha     -136839.70475657 eV
  | Energy correction for multipole
  | error in Hartree potential    :           0.00071865 Ha           0.01955558 eV
  | Sum of eigenvalues per atom                           :      -20528.21663668 eV
  | Total energy (T->0) per atom                          :      -34764.55040050 eV  <-- do not rely on this value for anything but (periodic) metals
  | Electronic free energy per atom                       :      -34764.56214995 eV

  Self-consistency convergence accuracy:
  | Change of charge density      :  0.7791E-01
  | Change of sum of eigenvalues  : -0.6208E+01 eV
  | Change of total energy        :  0.1665E-01 eV

  End self-consistency iteration #     4       :  max(cpu_time)    wall_clock(cpu1)
  | Time for this iteration                    :        0.205 s           0.205 s
  | Charge density update                      :        0.068 s           0.068 s
  | Density mixing & preconditioning           :        0.015 s           0.015 s
  | Hartree multipole update                   :        0.001 s           0.001 s
  | Hartree multipole summation                :        0.052 s           0.052 s
  | Integration                                :        0.045 s           0.045 s
  | Solution of K.-S. eqns.                    :        0.019 s           0.004 s
  | Total energy evaluation                    :        0.000 s           0.000 s

  Partial memory accounting:
  | Current value for overall tracked memory usage:
  |   Minimum:        0.409 MB (on task 0)
  |   Maximum:        0.444 MB (on task 1)
  |   Average:        0.426 MB
  | Peak value for overall tracked memory usage:
  |   Minimum:        3.324 MB (on task 5 after allocating gradient_basis_wave)
  |   Maximum:        3.644 MB (on task 2 after allocating gradient_basis_wave)
  |   Average:        3.455 MB
  | Largest tracked array allocation so far:
  |   Minimum:        1.022 MB (hamiltonian_shell on task 5)
  |   Maximum:        1.172 MB (hamiltonian_shell on task 2)
  |   Average:        1.082 MB
  Note:  These values currently only include a subset of arrays which are explicitly tracked.
  The "true" memory usage will be greater.
------------------------------------------------------------

------------------------------------------------------------
          Begin self-consistency iteration #    5

  Date     :  20190817, Time     :  153437.649
------------------------------------------------------------
  Evaluating new KS density using the density matrix
  Evaluating density matrix
  Time summed over all CPUs for getting density from density matrix: real work        0.519 s, elapsed        0.531 s
  Integration grid: deviation in total charge (<rho> - N_e) =  -4.405365E-13
  Pulay mixing of updated and previous charge densities.
  Renormalizing the density to the exact electron count on the 3D integration grid.
  | Formal number of electrons (from input files) :      52.0000000000
  | Integrated number of electrons on 3D grid     :      51.9995321737
  | Charge integration error                      :      -0.0004678263
  | Normalization factor for density and gradient :       1.0000089967

  Evaluating partitioned Hartree potential by multipole expansion.
  | Original multipole sum: apparent total charge =   0.768437E-13
  | Sum of charges compensated after spline to logarithmic grids =   0.117434E-03
  | Analytical far-field extrapolation by fixed multipoles:
  | Hartree multipole sum: apparent total charge =   0.768672E-13
  Summing up the Hartree potential.
  Time summed over all CPUs for potential: real work        0.385 s, elapsed        0.401 s
  | RMS charge density error from multipole expansion :   0.284568E-02
  | Average real-space part of the electrostatic potential :     -0.03180792 eV

  Integrating Hamiltonian matrix: batch-based integration.
  Time summed over all CPUs for integration: real work        0.339 s, elapsed        0.345 s
  Writing basis function properties and matrices.
     62 basis functions used.

  Updating Kohn-Sham eigenvalues and eigenvectors using ELSI and the (modified) LAPACK eigensolver.
  Starting LAPACK eigensolver
  Finished Cholesky decomposition
  | Time :     0.000 s
  Finished transformation to standard eigenproblem
  | Time :     0.000 s
  Finished solving standard eigenproblem
  | Time :     0.000 s
  Finished back-transformation of eigenvectors
  | Time :     0.000 s

  Obtaining occupation numbers and chemical potential using ELSI.
  | Chemical potential (Fermi level):    -5.70825491 eV
  What follows are estimated values for band gap, HOMO, LUMO, etc.
  | They are estimated on a discrete k-point grid and not necessarily exact.
  | For converged numbers, create a DOS and/or band structure plot on a denser k-grid.

  Highest occupied state (VBM) at     -5.71313522 eV (relative to internal zero)
  | Occupation number:      1.05502471
  | K-point:      12 at    0.333333    0.666667    0.000000 (in units of recip. lattice)

  Lowest unoccupied state (CBM) at    -5.66022641 eV (relative to internal zero)
  | Occupation number:      0.49699498
  | K-point:       8 at    0.166667    0.666667    0.000000 (in units of recip. lattice)

  ESTIMATED overall HOMO-LUMO gap:      0.05290881 eV between HOMO at k-point 12 and LUMO at k-point 8
  | This appears to be an indirect band gap.
  | Smallest direct gap :      0.08900471 eV for k_point 12 at    0.166667    0.666667    0.000000 (in units of recip. lattice)
  However, this system has fractional occupation numbers. Since we use a finite k-point grid,
  this material is metallic within the approximate finite broadening function (occupation_type)
  applied to determine the occupation numbers.

  Total energy components:
  | Sum of eigenvalues            :       -1508.88521548 Ha      -41058.85576484 eV
  | XC energy correction          :        -111.76999402 Ha       -3041.41628294 eV
  | XC potential correction       :         145.05091659 Ha        3947.03626352 eV
  | Free-atom electrostatic energy:       -1075.61566251 Ha      -29268.99136673 eV
  | Hartree energy correction     :          -3.92669223 Ha        -106.85073212 eV
  | Entropy correction            :          -0.00086032 Ha          -0.02341062 eV
  | ---------------------------
  | Total energy                  :       -2555.14664765 Ha      -69529.07788310 eV
  | Total energy, T -> 0          :       -2555.14750797 Ha      -69529.10129372 eV  <-- do not rely on this value for anything but (periodic) metals
  | Electronic free energy        :       -2555.14836830 Ha      -69529.12470434 eV

  Derived energy quantities:
  | Kinetic energy                :        2585.31037658 Ha       70349.87470903 eV
  | Electrostatic energy          :       -5028.68703021 Ha     -136837.53630920 eV
  | Energy correction for multipole
  | error in Hartree potential    :           0.00072631 Ha           0.01976383 eV
  | Sum of eigenvalues per atom                           :      -20529.42788242 eV
  | Total energy (T->0) per atom                          :      -34764.55064686 eV  <-- do not rely on this value for anything but (periodic) metals
  | Electronic free energy per atom                       :      -34764.56235217 eV

  Self-consistency convergence accuracy:
  | Change of charge density      :  0.2697E-01
  | Change of sum of eigenvalues  : -0.2422E+01 eV
  | Change of total energy        : -0.5810E-03 eV

  End self-consistency iteration #     5       :  max(cpu_time)    wall_clock(cpu1)
  | Time for this iteration                    :        0.203 s           0.203 s
  | Charge density update                      :        0.067 s           0.067 s
  | Density mixing & preconditioning           :        0.015 s           0.015 s
  | Hartree multipole update                   :        0.001 s           0.001 s
  | Hartree multipole summation                :        0.052 s           0.052 s
  | Integration                                :        0.044 s           0.044 s
  | Solution of K.-S. eqns.                    :        0.018 s           0.005 s
  | Total energy evaluation                    :        0.000 s           0.000 s

  Partial memory accounting:
  | Current value for overall tracked memory usage:
  |   Minimum:        0.409 MB (on task 0)
  |   Maximum:        0.444 MB (on task 1)
  |   Average:        0.426 MB
  | Peak value for overall tracked memory usage:
  |   Minimum:        3.324 MB (on task 5 after allocating gradient_basis_wave)
  |   Maximum:        3.644 MB (on task 2 after allocating gradient_basis_wave)
  |   Average:        3.455 MB
  | Largest tracked array allocation so far:
  |   Minimum:        1.022 MB (hamiltonian_shell on task 5)
  |   Maximum:        1.172 MB (hamiltonian_shell on task 2)
  |   Average:        1.082 MB
  Note:  These values currently only include a subset of arrays which are explicitly tracked.
  The "true" memory usage will be greater.
------------------------------------------------------------

------------------------------------------------------------
          Begin self-consistency iteration #    6

  Date     :  20190817, Time     :  153437.853
------------------------------------------------------------
  Evaluating new KS density using the density matrix
  Evaluating density matrix
  Time summed over all CPUs for getting density from density matrix: real work        0.523 s, elapsed        0.539 s
  Integration grid: deviation in total charge (<rho> - N_e) =  -4.405365E-13
  Pulay mixing of updated and previous charge densities.
  Renormalizing the density to the exact electron count on the 3D integration grid.
  | Formal number of electrons (from input files) :      52.0000000000
  | Integrated number of electrons on 3D grid     :      51.9987086356
  | Charge integration error                      :      -0.0012913644
  | Normalization factor for density and gradient :       1.0000248345

  Evaluating partitioned Hartree potential by multipole expansion.
  | Original multipole sum: apparent total charge =  -0.479946E-13
  | Sum of charges compensated after spline to logarithmic grids =   0.918289E-04
  | Analytical far-field extrapolation by fixed multipoles:
  | Hartree multipole sum: apparent total charge =  -0.478804E-13
  Summing up the Hartree potential.
  Time summed over all CPUs for potential: real work        0.390 s, elapsed        0.424 s
  | RMS charge density error from multipole expansion :   0.281991E-02
  | Average real-space part of the electrostatic potential :     -0.02732057 eV

  Integrating Hamiltonian matrix: batch-based integration.
  Time summed over all CPUs for integration: real work        0.341 s, elapsed        0.353 s
  Writing basis function properties and matrices.
     62 basis functions used.

  Updating Kohn-Sham eigenvalues and eigenvectors using ELSI and the (modified) LAPACK eigensolver.
  Starting LAPACK eigensolver
  Finished Cholesky decomposition
  | Time :     0.000 s
  Finished transformation to standard eigenproblem
  | Time :     0.000 s
  Finished solving standard eigenproblem
  | Time :     0.000 s
  Finished back-transformation of eigenvectors
  | Time :     0.000 s

  Obtaining occupation numbers and chemical potential using ELSI.
  | Chemical potential (Fermi level):    -5.67606887 eV
  What follows are estimated values for band gap, HOMO, LUMO, etc.
  | They are estimated on a discrete k-point grid and not necessarily exact.
  | For converged numbers, create a DOS and/or band structure plot on a denser k-grid.

  Highest occupied state (VBM) at     -5.68097372 eV (relative to internal zero)
  | Occupation number:      1.05530092
  | K-point:      11 at    0.333333    0.333333    0.000000 (in units of recip. lattice)

  Lowest unoccupied state (CBM) at    -5.62974131 eV (relative to internal zero)
  | Occupation number:      0.51235786
  | K-point:       8 at    0.166667    0.666667    0.000000 (in units of recip. lattice)

  ESTIMATED overall HOMO-LUMO gap:      0.05123241 eV between HOMO at k-point 11 and LUMO at k-point 8
  | This appears to be an indirect band gap.
  | Smallest direct gap :      0.08774254 eV for k_point 11 at    0.166667    0.666667    0.000000 (in units of recip. lattice)
  However, this system has fractional occupation numbers. Since we use a finite k-point grid,
  this material is metallic within the approximate finite broadening function (occupation_type)
  applied to determine the occupation numbers.

  Total energy components:
  | Sum of eigenvalues            :       -1508.79754492 Ha      -41056.47012749 eV
  | XC energy correction          :        -111.77643767 Ha       -3041.59162347 eV
  | XC potential correction       :         145.05910535 Ha        3947.25909086 eV
  | Free-atom electrostatic energy:       -1075.61566251 Ha      -29268.99136673 eV
  | Hartree energy correction     :          -4.01609050 Ha        -109.28338275 eV
  | Entropy correction            :          -0.00086289 Ha          -0.02348040 eV
  | ---------------------------
  | Total energy                  :       -2555.14663025 Ha      -69529.07740958 eV
  | Total energy, T -> 0          :       -2555.14749314 Ha      -69529.10088998 eV  <-- do not rely on this value for anything but (periodic) metals
  | Electronic free energy        :       -2555.14835603 Ha      -69529.12437038 eV

  Derived energy quantities:
  | Kinetic energy                :        2585.32147260 Ha       70350.17664713 eV
  | Electrostatic energy          :       -5028.69166518 Ha     -136837.66243324 eV
  | Energy correction for multipole
  | error in Hartree potential    :           0.00084048 Ha           0.02287074 eV
  | Sum of eigenvalues per atom                           :      -20528.23506375 eV
  | Total energy (T->0) per atom                          :      -34764.55044499 eV  <-- do not rely on this value for anything but (periodic) metals
  | Electronic free energy per atom                       :      -34764.56218519 eV

  Self-consistency convergence accuracy:
  | Change of charge density      :  0.2021E-01
  | Change of sum of eigenvalues  :  0.2386E+01 eV
  | Change of total energy        :  0.4735E-03 eV

  End self-consistency iteration #     6       :  max(cpu_time)    wall_clock(cpu1)
  | Time for this iteration                    :        0.216 s           0.215 s
  | Charge density update                      :        0.068 s           0.068 s
  | Density mixing & preconditioning           :        0.015 s           0.015 s
  | Hartree multipole update                   :        0.001 s           0.001 s
  | Hartree multipole summation                :        0.055 s           0.055 s
  | Integration                                :        0.045 s           0.045 s
  | Solution of K.-S. eqns.                    :        0.026 s           0.005 s
  | Total energy evaluation                    :        0.000 s           0.000 s

  Partial memory accounting:
  | Current value for overall tracked memory usage:
  |   Minimum:        0.409 MB (on task 0)
  |   Maximum:        0.444 MB (on task 1)
  |   Average:        0.426 MB
  | Peak value for overall tracked memory usage:
  |   Minimum:        3.324 MB (on task 5 after allocating gradient_basis_wave)
  |   Maximum:        3.644 MB (on task 2 after allocating gradient_basis_wave)
[...]
  | Hartree multipole summation                :        0.052 s           0.052 s
  | Integration                                :        0.044 s           0.044 s
  | Solution of K.-S. eqns.                    :        0.018 s           0.004 s
  | Total energy evaluation                    :        0.000 s           0.000 s

  Partial memory accounting:
  | Current value for overall tracked memory usage:
  |   Minimum:        0.409 MB (on task 0)
  |   Maximum:        0.444 MB (on task 1)
  |   Average:        0.426 MB
  | Peak value for overall tracked memory usage:
  |   Minimum:        3.324 MB (on task 5 after allocating gradient_basis_wave)
  |   Maximum:        3.644 MB (on task 2 after allocating gradient_basis_wave)
  |   Average:        3.456 MB
  | Largest tracked array allocation so far:
  |   Minimum:        1.022 MB (hamiltonian_shell on task 5)
  |   Maximum:        1.172 MB (hamiltonian_shell on task 2)
  |   Average:        1.082 MB
  Note:  These values currently only include a subset of arrays which are explicitly tracked.
  The "true" memory usage will be greater.
------------------------------------------------------------

------------------------------------------------------------
          Begin self-consistency iteration #   21

  Date     :  20190817, Time     :  153440.987
------------------------------------------------------------
  Evaluating new KS density using the density matrix
  Evaluating density matrix
  Time summed over all CPUs for getting density from density matrix: real work        0.522 s, elapsed        0.533 s
  Integration grid: deviation in total charge (<rho> - N_e) =  -4.121148E-13
  Pulay mixing of updated and previous charge densities.
  Renormalizing the density to the exact electron count on the 3D integration grid.
  | Formal number of electrons (from input files) :      52.0000000000
  | Integrated number of electrons on 3D grid     :      51.9999999996
  | Charge integration error                      :      -0.0000000004
  | Normalization factor for density and gradient :       1.0000000000

  Evaluating partitioned Hartree potential by multipole expansion.
  | Original multipole sum: apparent total charge =  -0.197606E-13
  | Sum of charges compensated after spline to logarithmic grids =   0.865962E-04
  | Analytical far-field extrapolation by fixed multipoles:
  | Hartree multipole sum: apparent total charge =  -0.199032E-13
  Summing up the Hartree potential.
  Time summed over all CPUs for potential: real work        0.388 s, elapsed        0.403 s
  | RMS charge density error from multipole expansion :   0.287001E-02
  | Average real-space part of the electrostatic potential :     -0.02790856 eV

  Integrating Hamiltonian matrix: batch-based integration.
  Time summed over all CPUs for integration: real work        0.341 s, elapsed        0.354 s
  Writing basis function properties and matrices.
     62 basis functions used.

  Updating Kohn-Sham eigenvalues and eigenvectors using ELSI and the (modified) LAPACK eigensolver.
  Starting LAPACK eigensolver
  Finished Cholesky decomposition
  | Time :     0.000 s
  Finished transformation to standard eigenproblem
  | Time :     0.000 s
  Finished solving standard eigenproblem
  | Time :     0.001 s
  Finished back-transformation of eigenvectors
  | Time :     0.000 s

  Obtaining occupation numbers and chemical potential using ELSI.
  | Chemical potential (Fermi level):    -5.65873348 eV
  What follows are estimated values for band gap, HOMO, LUMO, etc.
  | They are estimated on a discrete k-point grid and not necessarily exact.
  | For converged numbers, create a DOS and/or band structure plot on a denser k-grid.

  Highest occupied state (VBM) at     -5.66377953 eV (relative to internal zero)
  | Occupation number:      1.05689022
  | K-point:      11 at    0.333333    0.333333    0.000000 (in units of recip. lattice)

  Lowest unoccupied state (CBM) at    -5.61349418 eV (relative to internal zero)
  | Occupation number:      0.52231542
  | K-point:       6 at    0.166667    0.333333    0.000000 (in units of recip. lattice)

  ESTIMATED overall HOMO-LUMO gap:      0.05028535 eV between HOMO at k-point 11 and LUMO at k-point 6
  | This appears to be an indirect band gap.
  | Smallest direct gap :      0.08701123 eV for k_point 12 at    0.166667    0.333333    0.000000 (in units of recip. lattice)
  However, this system has fractional occupation numbers. Since we use a finite k-point grid,
  this material is metallic within the approximate finite broadening function (occupation_type)
  applied to determine the occupation numbers.

  Total energy components:
  | Sum of eigenvalues            :       -1508.80227669 Ha      -41056.59888561 eV
  | XC energy correction          :        -111.77196529 Ha       -3041.46992372 eV
  | XC potential correction       :         145.05324763 Ha        3947.09969412 eV
  | Free-atom electrostatic energy:       -1075.61566251 Ha      -29268.99136673 eV
  | Hartree energy correction     :          -4.00996969 Ha        -109.11682699 eV
  | Entropy correction            :          -0.00086524 Ha          -0.02354429 eV
  | ---------------------------
  | Total energy                  :       -2555.14662655 Ha      -69529.07730893 eV
  | Total energy, T -> 0          :       -2555.14749179 Ha      -69529.10085322 eV  <-- do not rely on this value for anything but (periodic) metals
  | Electronic free energy        :       -2555.14835702 Ha      -69529.12439751 eV

  Derived energy quantities:
  | Kinetic energy                :        2585.15344341 Ha       70345.60434002 eV
  | Electrostatic energy          :       -5028.52810467 Ha     -136833.21172524 eV
  | Energy correction for multipole
  | error in Hartree potential    :           0.00087833 Ha           0.02390044 eV
  | Sum of eigenvalues per atom                           :      -20528.29944281 eV
  | Total energy (T->0) per atom                          :      -34764.55042661 eV  <-- do not rely on this value for anything but (periodic) metals
  | Electronic free energy per atom                       :      -34764.56219875 eV

  Self-consistency convergence accuracy:
  | Change of charge density      :  0.4616E-07
  | Change of sum of eigenvalues  :  0.8191E-05 eV
  | Change of total energy        :  0.7920E-09 eV

  Preliminary charge convergence reached. Turning off preconditioner.

  Writing Kohn-Sham eigenvalues.
  K-point:       1 at    0.000000    0.000000    0.000000 (in units of recip. lattice)

  State    Occupation    Eigenvalue [Ha]    Eigenvalue [eV]
      1       2.00000        -259.302587        -7055.98241
      2       2.00000        -259.302587        -7055.98241
      3       2.00000         -30.103308         -819.15269
      4       2.00000         -30.103308         -819.15269
      5       2.00000         -25.641649         -697.74477
      6       2.00000         -25.641649         -697.74477
      7       2.00000         -25.638339         -697.65471
      8       2.00000         -25.638339         -697.65471
      9       2.00000         -25.634517         -697.55070
     10       2.00000         -25.634517         -697.55070
     11       2.00000          -3.395526          -92.39696
     12       2.00000          -3.391871          -92.29750
     13       2.00000          -2.161949          -58.82964
     14       2.00000          -2.148483          -58.46321
     15       2.00000          -2.144295          -58.34924
     16       2.00000          -2.141886          -58.28369
     17       2.00000          -2.141098          -58.26224
     18       2.00000          -2.138978          -58.20454
     19       2.00000          -0.402379          -10.94930
     20       2.00000          -0.328013           -8.92569
     21       2.00000          -0.284081           -7.73023
     22       2.00000          -0.275334           -7.49222
     23       2.00000          -0.255377           -6.94915
     24       2.00000          -0.220963           -6.01270
     25       0.10923          -0.203793           -5.54548
     26       0.00021          -0.198326           -5.39672
     27       0.00000          -0.190215           -5.17601
     28       0.00000          -0.184939           -5.03245
     29       0.00000          -0.150404           -4.09269
     30       0.00000          -0.132047           -3.59317
     31       0.00000          -0.026642           -0.72497
     32       0.00000           0.119015            3.23856
     33       0.00000           0.152577            4.15182
     34       0.00000           0.308716            8.40059
     35       0.00000           0.355106            9.66293
     36       0.00000           0.403973           10.99267
     37       0.00000           0.500477           13.61866

  What follows are estimated values for band gap, HOMO, LUMO, etc.
  | They are estimated on a discrete k-point grid and not necessarily exact.
  | For converged numbers, create a DOS and/or band structure plot on a denser k-grid.

  Highest occupied state (VBM) at     -5.66377953 eV (relative to internal zero)
  | Occupation number:      1.05689022
  | K-point:      11 at    0.333333    0.333333    0.000000 (in units of recip. lattice)

  Lowest unoccupied state (CBM) at    -5.61349418 eV (relative to internal zero)
  | Occupation number:      0.52231542
  | K-point:       6 at    0.166667    0.333333    0.000000 (in units of recip. lattice)

  ESTIMATED overall HOMO-LUMO gap:      0.05028535 eV between HOMO at k-point 11 and LUMO at k-point 6
  | This appears to be an indirect band gap.
  | Smallest direct gap :      0.08701123 eV for k_point 12 at    0.166667    0.333333    0.000000 (in units of recip. lattice)
  However, this system has fractional occupation numbers. Since we use a finite k-point grid,
  this material is metallic within the approximate finite broadening function (occupation_type)
  applied to determine the occupation numbers.

  Self-consistency cycle converged.

  End self-consistency iteration #    21       :  max(cpu_time)    wall_clock(cpu1)
  | Time for this iteration                    :        0.202 s           0.202 s
  | Charge density update                      :        0.067 s           0.068 s
  | Density mixing                             :        0.014 s           0.014 s
  | Hartree multipole update                   :        0.001 s           0.001 s
  | Hartree multipole summation                :        0.052 s           0.052 s
  | Integration                                :        0.045 s           0.045 s
  | Solution of K.-S. eqns.                    :        0.017 s           0.004 s
  | Total energy evaluation                    :        0.000 s           0.000 s

  Partial memory accounting:
  | Current value for overall tracked memory usage:
  |   Minimum:        0.409 MB (on task 0)
  |   Maximum:        0.444 MB (on task 1)
  |   Average:        0.426 MB
  | Peak value for overall tracked memory usage:
  |   Minimum:        3.324 MB (on task 5 after allocating gradient_basis_wave)
  |   Maximum:        3.644 MB (on task 2 after allocating gradient_basis_wave)
  |   Average:        3.456 MB
  | Largest tracked array allocation so far:
  |   Minimum:        1.022 MB (hamiltonian_shell on task 5)
  |   Maximum:        1.172 MB (hamiltonian_shell on task 2)
  |   Average:        1.082 MB
  Note:  These values currently only include a subset of arrays which are explicitly tracked.
  The "true" memory usage will be greater.
------------------------------------------------------------

  Energy and forces in a compact form:
  | Total energy uncorrected      :         -0.695290773089333E+05 eV
  | Total energy corrected        :         -0.695291008532205E+05 eV  <-- do not rely on this value for anything but (periodic) metals
  | Electronic free energy        :         -0.695291243975077E+05 eV

  ------------------------------------ 
  Start decomposition of the XC Energy 
  ------------------------------------ 
  X and C from original XC functional choice 
  Hartree-Fock Energy :          0.000000000 Ha              0.000000000 eV
  X Energy            :       -109.407499026 Ha          -2977.129523168 eV
  C Energy            :         -2.364466260 Ha            -64.340400551 eV
  Total XC Energy     :       -111.771965286 Ha          -3041.469923719 eV
  ------------------------------------ 
  LDA X and C from self-consistent density 
  X Energy LDA        :       -102.822299590 Ha          -2797.937129311 eV
  C Energy LDA        :         -4.447677954 Ha           -121.027474933 eV
  ------------------------------------ 
  End decomposition of the XC Energy 
  ------------------------------------ 

------------------------------------------------------------
  |------------------------------------------------------
  | Final ELSI Output
  |------------------------------------------------------
  |
  | Physical Properties
  |   Number of electrons       :        0.52000000E+02
  |   Number of states          :                    37
  |
  | Matrix Properties
  |   Matrix format             :           BLACS_DENSE
  |   Number of basis functions :                    62
  |
  | Computational Details
  |   Parallel mode             :           SINGLE_PROC
  |   Solver requested          :                LAPACK
  |   Number of ELSI calls      :                    44
  |
  |------------------------------------------------------
  | ELSI Project (c)  elsi-interchange.org
  |------------------------------------------------------

------------------------------------------------------------------------------
  Final output of selected total energy values:

  The following output summarizes some interesting total energy values
  at the end of a run (AFTER all relaxation, molecular dynamics, etc.).

  | Total energy of the DFT / Hartree-Fock s.c.f. calculation      :         -69529.077308933 eV
  | Final zero-broadening corrected energy (caution - metals only) :         -69529.100853220 eV
  | For reference only, the value of 1 Hartree used in FHI-aims is :             27.211384500 eV
  | For reference only, the overall average (free atom contribution
  | + realspace contribution) of the electrostatic potential after
  | s.c.f. convergence is                                          :             -2.958842705 eV

  Before relying on these values, please be sure to understand exactly which
  total energy value is referred to by a given number. Different objects may
  all carry the same name 'total energy'. Definitions:

  Total energy of the DFT / Hartree-Fock s.c.f. calculation:
  | Note that this energy does not include ANY quantities calculated after the
  | s.c.f. cycle, in particular not ANY RPA, MP2, etc. many-body perturbation terms.

  Final zero-broadening corrected energy:
  | For metallic systems only, a broadening of the occupation numbers at the Fermi
  | level can be extrapolated back to zero broadening by an electron-gas inspired
  | formula. For all systems that are not real metals, this value can be
  | meaningless and should be avoided.

------------------------------------------------------------------------------
  Methods described in the following list of references were used in this FHI-aims run.
  If you publish the results, please make sure to cite these reference if they apply.
  FHI-aims is an academic code, and for our developers (often, Ph.D. students
  and postdocs), scientific credit in the community is essential.
  Thank you for helping us!

  For any use of FHI-aims, please cite:

    Volker Blum, Ralf Gehrke, Felix Hanke, Paula Havu, Ville Havu,
    Xinguo Ren, Karsten Reuter, and Matthias Scheffler
    'Ab initio molecular simulations with numeric atom-centered orbitals'
    Computer Physics Communications 180, 2175-2196 (2009)
    http://dx.doi.org/10.1016/j.cpc.2009.06.022


  The provided symmetry information was generated with SPGlib:

    Atsushi Togo, Yusuke Seto, Dimitar Pashov
    SPGlib 1.7.3 obtained from http://spglib.sourceforge.net
    Copyright (C) 2008 Atsushi Togo


  The ELSI infrastructure was used in your run to solve the Kohn-Sham electronic structure.
  Please check out http://elsi-interchange.org to learn more.
  If scalability is important for your project, please acknowledge ELSI by citing:

    V. W-z. Yu, F. Corsetti, A. Garcia, W. P. Huhn, M. Jacquelin, W. Jia,
    B. Lange, L. Lin, J. Lu, W. Mi, A. Seifitokaldani, A. Vazquez-Mayagoitia,
    C. Yang, H. Yang, and V. Blum
    'ELSI: A unified software interface for Kohn-Sham electronic structure solvers'
    Computer Physics Communications 222, 267-285 (2018).
    http://dx.doi.org/10.1016/j.cpc.2017.09.007


  For the real-space grid partitioning and parallelization used in this calculation, please cite:

    Ville Havu, Volker Blum, Paula Havu, and Matthias Scheffler,
    'Efficient O(N) integration for all-electron electronic structure calculation'
    'using numerically tabulated basis functions'
    Journal of Computational Physics 228, 8367-8379 (2009).
    http://dx.doi.org/10.1016/j.jcp.2009.08.008

  Of course, there are many other important community references, e.g., those cited in the
  above references. Our list is limited to references that describe implementations in the
  FHI-aims code. The reason is purely practical (length of this list) - please credit others as well.

------------------------------------------------------------
          Leaving FHI-aims.
          Date     :  20190817, Time     :  153441.193

          Computational steps:
          | Number of self-consistency cycles          :           21
          | Number of SCF (re)initializations          :            1

          Detailed time accounting                     :  max(cpu_time)    wall_clock(cpu1)
          | Total time                                 :        4.824 s           4.841 s
          | Preparation time                           :        0.228 s           0.227 s
          | Boundary condition initalization           :        0.067 s           0.067 s
          | Grid partitioning                          :        0.012 s           0.012 s
          | Preloading free-atom quantities on grid    :        0.002 s           0.002 s
          | Free-atom superposition energy             :        0.004 s           0.004 s
          | Total time for integrations                :        1.010 s           1.012 s
          | Total time for solution of K.-S. equations :        0.447 s           0.095 s
          | Total time for density update              :        1.442 s           1.442 s
          | Total time for mixing & preconditioning    :        0.308 s           0.309 s
          | Total time for Hartree multipole update    :        0.020 s           0.020 s
          | Total time for Hartree multipole sum       :        1.095 s           1.092 s
          | Total time for total energy evaluation     :        0.003 s           0.001 s
          | Total time for scaled ZORA corrections     :        0.000 s           0.000 s

          Partial memory accounting:
          | Residual value for overall tracked memory usage across tasks:     0.000000 MB (should be 0.000000 MB)
          | Peak values for overall tracked memory usage:
          |   Minimum:        3.324 MB (on task 5 after allocating gradient_basis_wave)
          |   Maximum:        3.644 MB (on task 2 after allocating gradient_basis_wave)
          |   Average:        3.456 MB
          | Largest tracked array allocation:
          |   Minimum:        1.022 MB (hamiltonian_shell on task 5)
          |   Maximum:        1.172 MB (hamiltonian_shell on task 2)
          |   Average:        1.082 MB
          Note:  These values currently only include a subset of arrays which are explicitly tracked.
          The "true" memory usage will be greater.

          Have a nice day.
------------------------------------------------------------
