  MPI-parallelism will be employed.
------------------------------------------------------------
          Invoking FHI-aims ...

          When using FHI-aims, please cite the following reference:

          Volker Blum, Ralf Gehrke, Felix Hanke, Paula Havu,
          Ville Havu, Xinguo Ren, Karsten Reuter, and Matthias Scheffler,
          'Ab Initio Molecular Simulations with Numeric Atom-Centered Orbitals',
          Computer Physics Communications 180, 2175-2196 (2009)

          For any questions about FHI-aims, please visit the aimsclub website
          with its forums and wiki. Contributions to both the forums and the
          wiki are warmly encouraged - they are for you, and everyone is welcome there.

------------------------------------------------------------



  Date     :  20190817, Time     :  154608.206
  Time zero on CPU 1             :   0.205680000000000E-01  s.
  Internal wall clock time zero  :           335288768.206  s.

  FHI-aims created a unique identifier for this run for later identification
  aims_uuid : 38F669BA-7393-4AA4-A7A6-17CA51679153

  Build configuration of the current instance of FHI-aims
  -------------------------------------------------------
  FHI-aims version      : 190813
  Commit number         : 3da7baeb3
  CMake host system     : Linux-4.4.180-94.97-default
  CMake version         : 3.5.2
  Fortran compiler      : /mpcdf/soft/SLE_12_SP3/packages/x86_64/intel_parallel_studio/2018.4/compilers_and_libraries_2018.5.274/linux/mpi/bin64/mpiifort (Intel) version 18.0.5.20180823
  Fortran compiler flags: -O3 -ip -fp-model precise
  C compiler            : /mpcdf/soft/SLE_12_SP3/packages/skylake/intel/18.0.5/bin/icc (Intel) version 18.0.5.20180823
  C compiler flags      : -O3 -ip -fp-model precise
  Architecture          :
  Using MPI
  Using Scalapack
  Using C files
  Using SPGlib
  Using i-PI
  Linking against: /mpcdf/soft/SLE_12_SP3/packages/x86_64/anaconda/3.5.1.0/lib/libmkl_intel_lp64.so
                   /mpcdf/soft/SLE_12_SP3/packages/x86_64/anaconda/3.5.1.0/lib/libmkl_sequential.so
                   /mpcdf/soft/SLE_12_SP3/packages/x86_64/anaconda/3.5.1.0/lib/libmkl_core.so
                   /mpcdf/soft/SLE_12_SP3/packages/x86_64/anaconda/3.5.1.0/lib/libmkl_blacs_intelmpi_lp64.so
                   /mpcdf/soft/SLE_12_SP3/packages/x86_64/anaconda/3.5.1.0/lib/libmkl_scalapack_lp64.so

  Using        8 parallel tasks.
  Task        0 on host co1631 reporting.
  Task        1 on host co1631 reporting.
  Task        2 on host co1631 reporting.
  Task        3 on host co1631 reporting.
  Task        4 on host co1631 reporting.
  Task        5 on host co1631 reporting.
  Task        6 on host co1631 reporting.
  Task        7 on host co1631 reporting.

  Performing system and environment tests:
  | Environment variable OMP_NUM_THREADS correctly set to 1.
  | Maximum stacksize for task 0: unlimited
  | Maximum stacksize for task 1: unlimited
  | Maximum stacksize for task 2: unlimited
  | Maximum stacksize for task 3: unlimited
  | Maximum stacksize for task 4: unlimited
  | Maximum stacksize for task 5: unlimited
  | Maximum stacksize for task 6: unlimited
  | Maximum stacksize for task 7: unlimited
  | Current stacksize for task 0: unlimited
  | Current stacksize for task 1: unlimited
  | Current stacksize for task 2: unlimited
  | Current stacksize for task 3: unlimited
  | Current stacksize for task 4: unlimited
  | Current stacksize for task 5: unlimited
  | Current stacksize for task 6: unlimited
  | Current stacksize for task 7: unlimited
  | Checking for scalapack...
  | Testing pdtran()...
  | All pdtran() tests passed.

  Obtaining array dimensions for all initial allocations:
  
  -----------------------------------------------------------------------
  Parsing control.in (first pass over file, find array dimensions only).
  The contents of control.in will be repeated verbatim below
  unless switched off by setting 'verbatim_writeout .false.' .
  in the first line of control.in .
  -----------------------------------------------------------------------
  
    xc                 hse06   0.2
    hse_unit           A
  spin none
  relativistic none
  #
  charge_mix_param 0.5
  sc_accuracy_rho 1e-3
  sc_accuracy_eev 1e-2
  sc_accuracy_etot 1e-5
  sc_iter_limit 40
  #
   relax_geometry trm_2012 1.5e-2
  #
  k_grid 3 3 1
  #
  ################################################################################
  #
  #  FHI-aims code project
  #  VB, Fritz-Haber Institut, 2009
  #
  #  Suggested "light" defaults for Si atom (to be pasted into control.in file)
  #  Be sure to double-check any results obtained with these settings for post-processing,
  #  e.g., with the "tight" defaults and larger basis sets.
  #
  ################################################################################
    species        Si
  #     global species definitions
      nucleus             14
      mass                28.0855
  #
      l_hartree           4
  #
      cut_pot             3.5          1.5  1.0
      basis_dep_cutoff    1e-4
  #
      radial_base         42 5.0
      radial_multiplier   1
      angular_grids       specified
        division   0.5866   50
        division   0.9616  110
        division   1.2249  194
        division   1.3795  302
  #      division   1.4810  434
  #      division   1.5529  590
  #      division   1.6284  770
  #      division   1.7077  974
  #      division   2.4068 1202
  #      outer_grid   974
        outer_grid 302
  ################################################################################
  #
  #  Definition of "minimal" basis
  #
  ################################################################################
  #     valence basis states
      valence      3  s   2.
      valence      3  p   2.
  #     ion occupancy
      ion_occ      3  s   1.
      ion_occ      3  p   1.
  ################################################################################
  #
  #  Suggested additional basis functions. For production calculations,
  #  uncomment them one after another (the most important basis functions are
  #  listed first).
  #
  #  Constructed for dimers: 1.75 A, 2.0 A, 2.25 A, 2.75 A, 3.75 A
  #
  ################################################################################
  #  "First tier" - improvements: -571.96 meV to -37.03 meV
       hydro 3 d 4.2
  for_aux     hydro 2 p 1.4
  #     hydro 4 f 6.2
  for_aux     ionic 3 s auto
  #  "Second tier" - improvements: -16.76 meV to -3.03 meV
  #     hydro 3 d 9
  #     hydro 5 g 9.4
  #     hydro 4 p 4
  #     hydro 1 s 0.65
  #  "Third tier" - improvements: -3.89 meV to -0.60 meV
  #     ionic 3 d auto
  #     hydro 3 s 2.6
  #     hydro 4 f 8.4
  #     hydro 3 d 3.4
  #     hydro 3 p 7.8
  #  "Fourth tier" - improvements: -0.33 meV to -0.11 meV
  #     hydro 2 p 1.6
  #     hydro 5 g 10.8
  #     hydro 5 f 11.2
  #     hydro 3 d 1
  #     hydro 4 s 4.5
  #  Further basis functions that fell out of the optimization - noise
  #  level... < -0.08 meV
  #     hydro 4 d 6.6
  #     hydro 5 g 16.4
  #     hydro 4 d 9
  ################################################################################
  #
  #  FHI-aims code project
  #  VB, Fritz-Haber Institut, 2009
  #
  #  Suggested "light" defaults for H atom (to be pasted into control.in file)
  #  Be sure to double-check any results obtained with these settings for post-processing,
  #  e.g., with the "tight" defaults and larger basis sets.
  #
  ################################################################################
    species        H
  #     global species definitions
      nucleus             1
      mass                1.00794
  #
      l_hartree           4
  #
      cut_pot             3.5  1.5  1.0
      basis_dep_cutoff    1e-4
  #
      radial_base         24 5.0
      radial_multiplier   1
      angular_grids       specified
        division   0.2421   50
        division   0.3822  110
        division   0.4799  194
        division   0.5341  302
  #      division   0.5626  434
  #      division   0.5922  590
  #      division   0.6542  770
  #      division   0.6868 1202
  #      outer_grid  770
        outer_grid  302
  ################################################################################
  #
  #  Definition of "minimal" basis
  #
  ################################################################################
  #     valence basis states
      valence      1  s   1.
  #     ion occupancy
      ion_occ      1  s   0.5
  ################################################################################
  #
  #  Suggested additional basis functions. For production calculations,
  #  uncomment them one after another (the most important basis functions are
  #  listed first).
  #
  #  Basis constructed for dimers: 0.5 A, 0.7 A, 1.0 A, 1.5 A, 2.5 A
  #
  ################################################################################
  #  "First tier" - improvements: -1014.90 meV to -62.69 meV
       hydro 2 s 2.1
  for_aux     hydro 2 p 3.5
  #  "Second tier" - improvements: -12.89 meV to -1.83 meV
  #     hydro 1 s 0.85
  #     hydro 2 p 3.7
  #     hydro 2 s 1.2
  #     hydro 3 d 7
  #  "Third tier" - improvements: -0.25 meV to -0.12 meV
  #     hydro 4 f 11.2
  #     hydro 3 p 4.8
  #     hydro 4 d 9
  #     hydro 3 s 3.2
  ################################################################################
  #
  #  FHI-aims code project
  #  VB, Fritz-Haber Institut, 2009
  #
  #  Suggested "light" defaults for O atom (to be pasted into control.in file)
  #  Be sure to double-check any results obtained with these settings for post-processing,
  #  e.g., with the "tight" defaults and larger basis sets.
  #
  ################################################################################
    species        O
  #     global species definitions
      nucleus             8
      mass                15.9994
  #
      l_hartree           4
  #
      cut_pot             3.5  1.5  1.0
      basis_dep_cutoff    1e-4
  #
      radial_base         36 5.0
      radial_multiplier   1
       angular_grids specified
        division   0.2659   50
        division   0.4451  110
        division   0.6052  194
        division   0.7543  302
  #      division   0.8014  434
  #      division   0.8507  590
  #      division   0.8762  770
  #      division   0.9023  974
  #      division   1.2339 1202
  #      outer_grid 974
        outer_grid 302
  ################################################################################
  #
  #  Definition of "minimal" basis
  #
  ################################################################################
  #     valence basis states
      valence      2  s   2.
      valence      2  p   4.
  #     ion occupancy
      ion_occ      2  s   1.
      ion_occ      2  p   3.
  ################################################################################
  #
  #  Suggested additional basis functions. For production calculations,
  #  uncomment them one after another (the most important basis functions are
  #  listed first).
  #
  #  Constructed for dimers: 1.0 A, 1.208 A, 1.5 A, 2.0 A, 3.0 A
  #
  ################################################################################
  #  "First tier" - improvements: -699.05 meV to -159.38 meV
       hydro 2 p 1.8
  for_aux     hydro 3 d 7.6
       hydro 3 s 6.4
  #  "Second tier" - improvements: -49.91 meV to -5.39 meV
  #     hydro 4 f 11.6
  #     hydro 3 p 6.2
  #     hydro 3 d 5.6
  #     hydro 5 g 17.6
  #     hydro 1 s 0.75
  #  "Third tier" - improvements: -2.83 meV to -0.50 meV
  #     ionic 2 p auto
  #     hydro 4 f 10.8
  #     hydro 4 d 4.7
  #     hydro 2 s 6.8
  #  "Fourth tier" - improvements: -0.40 meV to -0.12 meV
  #     hydro 3 p 5
  #     hydro 3 s 3.3
  #     hydro 5 g 15.6
  #     hydro 4 f 17.6
  #     hydro 4 d 14
  # Further basis functions - -0.08 meV and below
  #     hydro 3 s 2.1
  #     hydro 4 d 11.6
  #     hydro 3 p 16
  #     hydro 2 s 17.2
  
  -----------------------------------------------------------------------
  Completed first pass over input file control.in .
  -----------------------------------------------------------------------
  
  
  -----------------------------------------------------------------------
  Parsing geometry.in (first pass over file, find array dimensions only).
  The contents of geometry.in will be repeated verbatim below
  unless switched off by setting 'verbatim_writeout .false.' .
  in the first line of geometry.in .
  -----------------------------------------------------------------------
  
  #
  # This is the geometry file that corresponds to the current relaxation step.
  # If you do not want this file to be written, set the "write_restart_geometry" flag to .false.
  #
  lattice_vector      3.82969033      0.00000000      0.00000000
  lattice_vector      0.00000000      3.82969033      0.00000000
  lattice_vector      0.00000000      0.00000000     50.00000000
  atom      -1.14820386      0.00000002     -0.90017133 H
  atom       1.14820386      0.00000003     -0.90017132 H
  atom       0.00000000     -0.00000001      0.00890057 Si
  atom       0.00000000      1.91484518      1.29596974 Si
  atom       1.91484516      1.91484510      1.64343234 O
  #
  # What follows is the current estimated Hessian matrix constructed by the BFGS algorithm.
  # This is NOT the true Hessian matrix of the system.
  # If you do not want this information here, switch it off using the "hessian_to_restart_geometry" keyword.
  #
  trust_radius             0.2000000030
  hessian_block                1       1          19.057659           0.000000          11.507611           0.000000           2.18148
  hessian_block                1       2          -0.214439           0.000000           0.332991           0.000000          -0.00421
  hessian_block                1       3         -16.880019           0.000000         -11.788223           0.000000          -0.21399
  hessian_block                1       4           0.035935           0.000000          -0.051201           0.000000           0.03567
  hessian_block                1       5           0.000863           0.000000          -0.001178           0.000000           0.00105
  hessian_block                2       2          19.057659           0.000000         -11.507611           0.000000           2.18148
  hessian_block                2       3         -16.880019           0.000000          11.788223           0.000000          -0.21399
  hessian_block                2       4           0.035935           0.000000           0.051201           0.000000           0.03567
  hessian_block                2       5           0.000863           0.000000           0.001178           0.000000           0.00105
  hessian_block                3       3          36.288493           0.000000           0.000000           0.000000           8.70716
  hessian_block                3       4          -0.416307           0.000000          -0.000001           0.000000          -6.20458
  hessian_block                3       5          -0.112148           0.000000           0.000000           0.000000          -0.07459
  hessian_block                4       4          57.755069           0.000000           0.000001           0.000000           9.49736
  hessian_block                4       5         -55.410633           0.000000          -0.000001           0.000000          -1.36412
  hessian_block                5       5          57.521055           0.000000           0.000000           0.000000           3.43661
  
  -----------------------------------------------------------------------
  Completed first pass over input file geometry.in .
  -----------------------------------------------------------------------
  

  Basic array size parameters:
  | Number of species                 :        3
  | Number of atoms                   :        5
  | Number of lattice vectors         :        3
  | Max. basis fn. angular momentum   :        2
  | Max. atomic/ionic basis occupied n:        3
  | Max. number of basis fn. types    :        3
  | Max. radial fns per species/type  :        5
  | Max. logarithmic grid size        :     1346
  | Max. radial integration grid size :       42
  | Max. angular integration grid size:      302
  | Max. angular grid division number :        8
  | Radial grid for Hartree potential :     1346
  | Number of spin channels           :        1

------------------------------------------------------------
          Reading file control.in.
------------------------------------------------------------
  XC: Using HSE-functional with OMEGA =  0.200000E+00 <units>.
  XC: For the actual units (bohr^-1 or Angstrom^-1), see below.
  hse_unit: Unit for the HSE06 hybrid functional screening parameter set to A^(-1).
  Spin treatment: No spin polarisation.
  Non-relativistic treatment of kinetic energy.
  Charge density mixing - mixing parameter:     0.5000
  Convergence accuracy of self-consistent charge density:  0.1000E-02
  Convergence accuracy of sum of eigenvalues:  0.1000E-01
  Convergence accuracy of total energy:  0.1000E-04
  Maximum number of s.-c. iterations  :    40
  Geometry relaxation: Modified BFGS - TRM (trust radius method, i.e., trusted quadratic extrapolation).
  Convergence accuracy for geometry relaxation: Maximum force <   0.150000E-01 eV/A.
  Found k-point grid:         3         3         1
 
  Reading configuration options for species Si                  .
  | Found nuclear charge :  14.0000
  | Found atomic mass :    28.0855000000000      amu
  | Found l_max for Hartree potential  :   4
  | Found cutoff potl. onset [A], width [A], scale factor :    3.50000    1.50000    1.00000
  | Threshold for basis-dependent cutoff potential is   0.100000E-03
  | Found data for basic radial integration grid :    42 points, outermost radius =    5.000 A
  | Found multiplier for basic radial grid :   1
  | Found angular grid specification: user-specified.
  | Specified grid contains     5 separate shells.
  | Check grid settings after all constraints further below.
  | Found free-atom valence shell :  3 s   2.000
  | Found free-atom valence shell :  3 p   2.000
  | Found free-ion valence shell :  3 s   1.000
  | Found free-ion valence shell :  3 p   1.000
  | Found hydrogenic basis function :  3 d   4.200
  | Found hydrogenic extended basis function :  2 p   1.400
  | Found ionic extended basis function :  3 s , default cutoff radius.
  Species Si                  : Missing cutoff potential type.
  Defaulting to exp(1/x)/(1-x)^2 type cutoff potential.
  Species Si: No 'logarithmic' tag. Using default grid for free atom:
  | Default logarithmic grid data [bohr] : 0.1000E-03 0.1000E+03 0.1012E+01
  | Will include ionic basis functions of  2.0-fold positive Si                   ion.
  Species Si: On-site basis accuracy parameter (for Gram-Schmidt orthonormalisation) not specified.
  Using default value basis_acc =  0.1000000E-03.
  Species Si                  : Using default innermost maximum threshold i_radial=  2 for radial functions.
  Species Si                  : Default cutoff onset for free atom density etc. : 0.35000000E+01 AA.
  Species Si                  : Basic radial grid will be enhanced according to radial_multiplier =   1, to contain    42 grid points.
 
  Reading configuration options for species H                   .
  | Found nuclear charge :   1.0000
  | Found atomic mass :    1.00794000000000      amu
  | Found l_max for Hartree potential  :   4
  | Found cutoff potl. onset [A], width [A], scale factor :    3.50000    1.50000    1.00000
  | Threshold for basis-dependent cutoff potential is   0.100000E-03
  | Found data for basic radial integration grid :    24 points, outermost radius =    5.000 A
  | Found multiplier for basic radial grid :   1
  | Found angular grid specification: user-specified.
  | Specified grid contains     5 separate shells.
  | Check grid settings after all constraints further below.
  | Found free-atom valence shell :  1 s   1.000
  | Found free-ion valence shell :  1 s   0.500
  | Found hydrogenic basis function :  2 s   2.100
  | Found hydrogenic extended basis function :  2 p   3.500
  Species H                   : Missing cutoff potential type.
  Defaulting to exp(1/x)/(1-x)^2 type cutoff potential.
  Species H : No 'logarithmic' tag. Using default grid for free atom:
  | Default logarithmic grid data [bohr] : 0.1000E-03 0.1000E+03 0.1012E+01
  Species H : On-site basis accuracy parameter (for Gram-Schmidt orthonormalisation) not specified.
  Using default value basis_acc =  0.1000000E-03.
  Species H                   : Using default innermost maximum threshold i_radial=  2 for radial functions.
  Species H                   : Default cutoff onset for free atom density etc. : 0.35000000E+01 AA.
  Species H                   : Basic radial grid will be enhanced according to radial_multiplier =   1, to contain    24 grid points.
 
  Reading configuration options for species O                   .
  | Found nuclear charge :   8.0000
  | Found atomic mass :    15.9994000000000      amu
  | Found l_max for Hartree potential  :   4
  | Found cutoff potl. onset [A], width [A], scale factor :    3.50000    1.50000    1.00000
  | Threshold for basis-dependent cutoff potential is   0.100000E-03
  | Found data for basic radial integration grid :    36 points, outermost radius =    5.000 A
  | Found multiplier for basic radial grid :   1
  | Found angular grid specification: user-specified.
  | Specified grid contains     5 separate shells.
  | Check grid settings after all constraints further below.
  | Found free-atom valence shell :  2 s   2.000
  | Found free-atom valence shell :  2 p   4.000
  | Found free-ion valence shell :  2 s   1.000
  | Found free-ion valence shell :  2 p   3.000
  | Found hydrogenic basis function :  2 p   1.800
  | Found hydrogenic extended basis function :  3 d   7.600
  | Found hydrogenic basis function :  3 s   6.400
  Species O                   : Missing cutoff potential type.
  Defaulting to exp(1/x)/(1-x)^2 type cutoff potential.
  Species O : No 'logarithmic' tag. Using default grid for free atom:
  | Default logarithmic grid data [bohr] : 0.1000E-03 0.1000E+03 0.1012E+01
  Species O : On-site basis accuracy parameter (for Gram-Schmidt orthonormalisation) not specified.
  Using default value basis_acc =  0.1000000E-03.
  Species O                   : Using default innermost maximum threshold i_radial=  2 for radial functions.
  Species O                   : Default cutoff onset for free atom density etc. : 0.35000000E+01 AA.
  Species O                   : Basic radial grid will be enhanced according to radial_multiplier =   1, to contain    36 grid points.
 
  Finished reading input file 'control.in'. Consistency checks are next.
 
  HSE06 functional: Converting omega to        0.10583544 bohr^-1.
  HSE06 screening parameters: omega_HF  =      0.10583544 bohr^-1, and
                              omega_PBE =      0.10583544 bohr^-1.
  MPI_IN_PLACE appears to work with this MPI implementation.
  | Keeping use_mpi_in_place .true. (see manual).
  Explicit treatment of the Coulomb operator is needed, but the RI method is not specified.
  Coulomb operator: Defaulting to 'LVL fast' resolution of identity - RI_type = LVL_fast 
  Species Si: Using default value for prodbas_acc =   1.000000E-04.
  Species Si: Using default value max_l_prodbas =    20.
  Explicit treatment of the Coulomb operator is needed, but the RI method is not specified.
  Coulomb operator: Defaulting to 'LVL fast' resolution of identity - RI_type = LVL_fast 
  Species H: Using default value for prodbas_acc =   1.000000E-04.
  Species H: Using default value max_l_prodbas =    20.
  Explicit treatment of the Coulomb operator is needed, but the RI method is not specified.
  Coulomb operator: Defaulting to 'LVL fast' resolution of identity - RI_type = LVL_fast 
  Species O: Using default value for prodbas_acc =   1.000000E-04.
  Species O: Using default value max_l_prodbas =    20.
  Target number of points in a grid batch is not set. Defaulting to  100
  Method for grid partitioning is not set. Defaulting to parallel hash+maxmin partitioning.
  Batch size limit is not set. Defaulting to    200
  By default, will store active basis functions for each batch.
  If in need of memory, prune_basis_once .false. can be used to disable this option.
  communication_type for Hartree potential was not specified.
  Defaulting to calc_hartree .
  Defaulting to Pulay charge density mixer.
  Pulay mixer: Number of relevant iterations not set.
  Defaulting to    8 iterations.
  Pulay mixer: Number of initial linear mixing iterations not set.
  Defaulting to    0 iterations.
  Work space size for distributed Hartree potential not set.
  Defaulting to   0.200000E+03 MB.
  Algorithm-dependent basis array size parameters:
  | n_max_pulay                         :        8
  Presetting      1001 iterations before the initial mixing cycle
  is restarted anyway using the sc_init_iter criterion / keyword.
  Presetting a factor      1.000 between actual scf density residual
  and density convergence criterion sc_accuracy_rho below which sc_init_iter
  takes no effect.
  No maximum number of relaxation steps, defaulting to     1000
  Using explicit Hessian from geometry.in.
  No maximum energy tolerance for TRM/BFGS moves, defaulting to   0.100000E-02
  Maximum energy tolerance by which TRM/BFGS trajectory may increase over multiple steps:   0.300000E-02
  No harmonic length scale. Defaulting to   0.250000E-01 A.
  No trust radius initializer. Defaulting to   0.200000E+00 A.
  Force calculation: scf convergence accuracy of forces not set.
  Defaulting to 'sc_accuracy_forces not_checked'.
  Handling of forces: Unphysical translation and rotation will be removed from forces.
  No accuracy limit for integral partition fn. given. Defaulting to  0.1000E-14.
  No threshold value for u(r) in integrations given. Defaulting to  0.1000E-05.
  No occupation type (smearing scheme) given. Defaulting to Gaussian broadening, width =  0.1000E-01 eV.
  The width will be adjusted in iteration number     2 of the first full s.c.f. cycle only.
  S.C.F. convergence parameters will be adjusted in iteration number     2 of the first full s.c.f. cycle only.
  No accuracy for occupation numbers given. Defaulting to  0.1000E-12.
  No threshold value for occupation numbers given. Defaulting to  0.0000E+00.
  No accuracy for fermi level given. Defaulting to  0.1000E-19.
  Maximum # of iterations to find E_F not set. Defaulting to  200.
  Preferred method for the eigenvalue solver ('KS_method') not specified in 'control.in'.
  Defaulting to serial version, LAPACK (via ELSI), since more k-points than CPUs available.
  Will not use alltoall communication since running on < 1024 CPUs.
  Threshold for basis singularities not set.
  Default threshold for basis singularities:  0.1000E-04
  partition_type (choice of integration weights) for integrals was not specified.
  | Using a version of the partition function of Stratmann and coworkers ('stratmann_sparse').
  | At each grid point, the set of atoms used to build the partition table is smoothly restricted to
  | only those atoms whose free-atom density would be non-zero at that grid point.
  Partitioning for Hartree potential was not defined. Using partition_type for integrals.
  | Adjusted default value of keyword multip_moments_threshold to:       0.10000000E-11
  | This value may affect high angular momentum components of the Hartree potential in periodic systems.
  Threshold for auxiliary basis singularities not set.
  Default threshold for auxiliary basis singularities:  0.1000E-04
  No q(lm)/r^(l+1) cutoff set for long-range Hartree potential.
  | Using default value of  0.100000E-09 .
  | Verify using the multipole_threshold keyword.
  Defaulting to new monopole extrapolation.
  Density update method: automatic selection selected.
  Using density matrix based charge density update.
  Using density matrix based charge density update.
  Using packed matrix style: index .
 * NOTE: You are attempting to run a periodic structure with an exchange treatment
 * which requires a two-electron Coulomb operator (Hartree-Fock or a hybrid functional).
 * The present implementation is reliable to our knowledge, but some things
 * (like band structure output, or perhaps the auxilary basis set for small
 * orbital basis sets - see the "for_aux" keyword) require extra care.
 * Please let us know if you encounter any trouble.
  Coulomb operator: Defaulting to screening threshold for four-center integrals:   0.100000E-06
  Coulomb operator: Defaulting to screening threshold for Coulomb matrix:   0.100000E-09
  Coulomb operator: Defaulting to 'LVL_fast' resolution of identity - RI_type = LVL_fast 
  No other resolution of identity version is supported for periodic boundary conditions at present.
  Coulomb operator: Defaulting to logarithmic spherical Bessel transform integrals (use_logsbt .true.).
  HSE with LVL_fast: Also defaulting to logarithmic spherical Bessel transform integrals.
  Geometry relaxation: A file "geometry.in.next_step" is written out by default after each step.
  | This file contains the geometry of the current relaxation step as well as
  | the current Hessian matrix needed to restart the relaxation algorithm.
  | If you do not want part or all of this information, use the keywords
  | "write_restart_geometry" or "hessian_to_restart_geometry" to switch the output off.
  Defaulting to use full k-point grid (no symmetry reduction).
  Charge integration errors on the 3D integration grid will be compensated
  by explicit normalization and distribution of residual charges.
  Use the "compensate_multipole_errors" flag to change this behaviour.
  LVL not implemented with density matrix yet
  -> switching to transformed overlap
  LVL probably works better with logsbt
  Default to 1D ("use_logsbt") integrations for auxiliary 2-center integrals.
  Default onset of logarithmic r-grid for SBT is-38.000000000000
  Default onset of logarithmic k-grid for SBT is-25.000000000000
  Default range of logarithmic r- and k-grid for SBT is 45.000000000000
  Default number of logarithmic r- and k-grid for SBT is  4096
  * Use logSBT for radial HSE integration, too
------------------------------------------------------------


------------------------------------------------------------
          Reading geometry description geometry.in.
------------------------------------------------------------
 * Large trust radius value found - resetting to the current value of max_atomic_move,      0.20000000 A.
 * Attention. You are trying to treat an element beyond Ne (Z=10) without
 * accounting for relativity. This will lead to slight deviations from the true
 * physics of the system. Check your results if in doubt.
  Input structure read successfully.
  The structure contains        5 atoms,  and a total of         38.000 electrons.

  Input geometry:
  | Unit cell:
  |        3.82969033        0.00000000        0.00000000
  |        0.00000000        3.82969033        0.00000000
  |        0.00000000        0.00000000       50.00000000
  | Atomic structure:
  |       Atom                x [A]            y [A]            z [A]
  |    1: Species H            -1.14820386        0.00000002       -0.90017133
  |    2: Species H             1.14820386        0.00000003       -0.90017132
  |    3: Species Si            0.00000000       -0.00000001        0.00890057
  |    4: Species Si            0.00000000        1.91484518        1.29596974
  |    5: Species O             1.91484516        1.91484510        1.64343234

  Lattice parameters for 3D lattice (in Angstroms) :     3.829690    3.829690   50.000000
  Angle(s) between unit vectors (in degrees)       :    90.000000   90.000000   90.000000

  | The smallest distance between any two atoms is         1.46450804 AA.
  | The first atom of this pair is atom number                      2 .
  | The second atom of this pair is atom number                     3 .
  | Wigner-Seitz cell of the first atom image           0     0     0 .
  | (The Wigner-Seitz cell of the second atom is 0 0 0  by definition.)

  Symmetry information by spglib:
  | Precision set to  0.1E-04
  | Number of Operations  : 4
  | Space group           : 25
  | International         : Pmm2
  | Schoenflies           : C2v^1

  Quantities derived from the lattice vectors:
  | Reciprocal lattice vector 1:  1.640651  0.000000  0.000000
  | Reciprocal lattice vector 2:  0.000000  1.640651  0.000000
  | Reciprocal lattice vector 3:  0.000000  0.000000  0.125664
  | Unit cell volume                               :   0.733326E+03  A^3

  Range separation radius for Ewald summation (hartree_convergence_parameter):      5.00000000 bohr.

  Fractional coordinates:
                         L1                L2                L3
       atom_frac        -0.29981637        0.00000001       -0.01800343  H
       atom_frac         0.29981637        0.00000001       -0.01800343  H
       atom_frac         0.00000000       -0.00000000        0.00017801  Si
       atom_frac         0.00000000        0.50000000        0.02591939  Si
       atom_frac         0.50000000        0.49999998        0.03286865  O

  Number of empty states per atom not set in control.in - providing a guess from actual geometry.
  | Total number of empty states used during s.c.f. cycle:       12
  If you use a very high smearing, use empty_states (per atom!) in control.in to increase this value.

  Structure-dependent array size parameters: 
  | Maximum number of distinct radial functions  :       17
  | Maximum number of basis functions            :       60
  | Number of Kohn-Sham states (occupied + empty):       31
------------------------------------------------------------
  Setting Coulomb cut-width to  1.091868692359 * rcut.
  Setting Coulomb cutting radius rcut to  5.744535495000 A.

------------------------------------------------------------
          Preparing all fixed parts of the calculation.
------------------------------------------------------------
  Determining machine precision:
    2.225073858507201E-308
  Setting up grids for atomic and cluster calculations.

  Creating wave function, potential, and density for free atoms.

  Species: Si

  List of occupied orbitals and eigenvalues:
    n    l              occ      energy [Ha]    energy [eV]
    1    0           2.0000       -65.445149     -1780.8531
    2    0           2.0000        -5.090624      -138.5229
    3    0           2.0000        -0.387306       -10.5391
    2    1           6.0000        -3.501074       -95.2691
    3    1           2.0000        -0.141183        -3.8418


  Species: H

  List of occupied orbitals and eigenvalues:
    n    l              occ      energy [Ha]    energy [eV]
    1    0           1.0000        -0.237589        -6.4651


  Species: O

  List of occupied orbitals and eigenvalues:
    n    l              occ      energy [Ha]    energy [eV]
    1    0           2.0000       -18.898188      -514.2459
    2    0           2.0000        -0.878505       -23.9053
    2    1           4.0000        -0.331779        -9.0282

  Creating fixed part of basis set: Ionic, confined, hydrogenic.
 
  Si                   ion:

  List of free ionic orbitals and eigenvalues:
    n    l      energy [Ha]    energy [eV]
    1    0       -66.316121     -1804.5535
    2    0        -5.938141      -161.5850
    3    0        -1.071307       -29.1517
    2    1        -4.349847      -118.3654
    3    1        -0.776664       -21.1341


  List of extra ionic orbitals and eigenvalues for auxliary basis:
    n    l      energy [Ha]    energy [eV]    outer radius [A]
    3    0        -1.071285       -29.1512       4.214062

 
  Si                   hydrogenic:
 
  List of hydrogenic basis orbitals: 
    n    l      effective z      eigenvalue [eV]  inner max. [A]     outer max. [A]     outer radius [A]   
    3    2         4.200000       -26.6624           1.139231           1.139231           4.534782
 
  List of extra hydrogenic orbitals for auxiliary basis: 
    n    l      effective z      eigenvalue [eV]  inner max. [A]     outer max. [A]     outer radius [A]   
    2    1         1.400000        -6.4613           1.472672           1.472672           4.590560
 
 
  H                    hydrogenic:
 
  List of hydrogenic basis orbitals: 
    n    l      effective z      eigenvalue [eV]  inner max. [A]     outer max. [A]     outer radius [A]   
    2    0         2.100000       -14.9728           0.193243           1.317208           4.583499
 
  List of extra hydrogenic orbitals for auxiliary basis: 
    n    l      effective z      eigenvalue [eV]  inner max. [A]     outer max. [A]     outer radius [A]   
    2    1         3.500000       -41.6669           0.602369           0.602369           3.723403
 
 
  O                    hydrogenic:
 
  List of hydrogenic basis orbitals: 
    n    l      effective z      eigenvalue [eV]  inner max. [A]     outer max. [A]     outer radius [A]   
    2    1         1.800000       -10.9749           1.164242           1.164242           4.578029
    3    0         6.400000       -61.9207           0.061167           1.081902           4.001998
 
  List of extra hydrogenic orbitals for auxiliary basis: 
    n    l      effective z      eigenvalue [eV]  inner max. [A]     outer max. [A]     outer radius [A]   
    3    2         7.600000       -87.3180           0.624125           0.624125           3.251020
 

  Adding cutoff potential to free-atom effective potential.
  Creating atomic-like basis functions for current effective potential.

  Species Si                  :

  List of atomic basis orbitals and eigenvalues:
    n    l      energy [Ha]    energy [eV]    outer radius [A]
    1    0       -65.445149     -1780.8531       0.789468
    2    0        -5.090624      -138.5229       2.815114
    3    0        -0.387306       -10.5391       4.534782
    2    1        -3.501074       -95.2691       3.259919
    3    1        -0.141183        -3.8418       4.590560


  Species H                   :

  List of atomic basis orbitals and eigenvalues:
    n    l      energy [Ha]    energy [eV]    outer radius [A]
    1    0        -0.237589        -6.4651       4.527807


  Species O                   :

  List of atomic basis orbitals and eigenvalues:
    n    l      energy [Ha]    energy [eV]    outer radius [A]
    1    0       -18.898188      -514.2459       1.415765
    2    0        -0.878505       -23.9053       4.413171
    2    1        -0.331779        -9.0282       4.522403

  Assembling full basis from fixed parts.
  | Species Si :   atomic orbital   1 s accepted.
  | Species Si :   atomic orbital   2 s accepted.
  | Species Si :   atomic orbital   3 s accepted.
  | Species Si :   atomic orbital   2 p accepted.
  | Species Si :   atomic orbital   3 p accepted.
  | Species Si :    hydro orbital   3 d accepted.
  | Species H :   atomic orbital   1 s accepted.
  | Species H :    hydro orbital   2 s accepted.
  | Species O :   atomic orbital   1 s accepted.
  | Species O :    hydro orbital   3 s accepted.
  | Species O :   atomic orbital   2 s accepted.
  | Species O :   atomic orbital   2 p accepted.
  | Species O :    hydro orbital   2 p accepted.
 
  Basis size parameters after reduction:
  | Total number of radial functions:       13
  | Total number of basis functions :       41
 
  Assembling extended basis for auxiliary basis.
  | Species Si :   atomic orbital   1 s accepted.
  | Species Si :   atomic orbital   2 s accepted.
  | Species Si :    ionic orbital   3 s accepted.
  | Species Si :   atomic orbital   3 s accepted.
  | Species Si :   atomic orbital   2 p accepted.
  | Species Si :   atomic orbital   3 p accepted.
  | Species Si :    hydro orbital   2 p accepted.
  | Species Si :    hydro orbital   3 d accepted.
  | Species H :   atomic orbital   1 s accepted.
  | Species H :    hydro orbital   2 s accepted.
  | Species H :    hydro orbital   2 p accepted.
  | Species O :   atomic orbital   1 s accepted.
  | Species O :    hydro orbital   3 s accepted.
  | Species O :   atomic orbital   2 s accepted.
  | Species O :   atomic orbital   2 p accepted.
  | Species O :    hydro orbital   2 p accepted.
  | Species O :    hydro orbital   3 d accepted.
  Per-task memory consumption for arrays in subroutine allocate_ext:
  |           4.396024MB.
 
  Extended basis size parameters after reduction:
  | Total number of radial functions:       17
  | Total number of basis functions :       60
 
  Testing on-site integration grid accuracy.
  |  Species  Function  <phi|h_atom|phi> (log., in eV)  <phi|h_atom|phi> (rad., in eV)
           1        1              -1780.8531022213              -1780.8524015359
           1        2               -138.5229174676               -138.5229135715
           1        3                -10.5400359297                -10.5413313557
           1        4                -95.2690610510                -95.2690610363
           1        5                 -3.8516954565                 -3.8673652321
           1        6                  6.3656980517                  6.3636026281
           2        7                 -6.4663192853                 -6.4651273558
           2        8                 13.7111246313                 13.7170609718
           3        9               -514.2458688638               -514.2457643834
           3       10                 15.1795651126                 15.1795290741
           3       11                -21.5359799773                -21.5360846185
           3       12                 -9.0283069236                 -9.0284644067
           3       13                  8.3027758563                  8.2834874195

  Preparing densities etc. for the partition functions (integrals / Hartree potential).

  Preparations completed.
  max(cpu_time)          :      0.228 s.
  Wall clock time (cpu1) :      0.236 s.
------------------------------------------------------------

------------------------------------------------------------
          Begin self-consistency loop: Initialization.

          Date     :  20190817, Time     :  154608.502
------------------------------------------------------------

  Initializing index lists of integration centers etc. from given atomic structure:
  Mapping all atomic coordinates to central unit cell.

  Initializing the k-points
  | Number of k-points                             :         9
  | Consuming          1 KiB for k_phase_exx.
  The eigenvectors in the calculations are COMPLEX.
  | K-points in task   0:         1
  | K-points in task   1:         2
  | K-points in task   2:         1
  | K-points in task   3:         1
  | K-points in task   4:         1
  | K-points in task   5:         1
  | K-points in task   6:         1
  | K-points in task   7:         1
  | Number of basis functions in the Hamiltonian integrals :       392
  | Number of basis functions in a single unit cell        :        41
  | Number of centers in hartree potential         :       346
  | Number of centers in hartree multipole         :       156
  | Number of centers in electron density summation:       119
  | Number of centers in basis integrals           :       125
  | Number of centers in integrals                 :        57
  | Number of centers in hamiltonian               :       119
  | Consuming          4 KiB for k_phase.
  | Number of super-cells (origin) [n_cells]                     :         363
  | Number of super-cells (after PM_index) [n_cells]             :          30
  | Number of super-cells in hamiltonian [n_cells_in_hamiltonian]:          30
  | Size of matrix packed + index [n_hamiltonian_matrix_size] :       12768

  Initializing relaxation algorithms.
  Finished initialization of distributed Hessian storage.
  | Global dimension:        15
  | BLACS block size:         2
  | Number of workers:        8

  | Estimated reciprocal-space cutoff momentum G_max:         1.84432723 bohr^-1 .
  | Reciprocal lattice points for long-range Hartree potential:     490
  Partitioning the integration grid into batches with parallel hashing+maxmin method.
  | Number of batches:      311
  | Maximal batch size:     198
  | Minimal batch size:      49
  | Average batch size:      87.241
  | Standard deviation of batch sizes:      24.160

  Integration load balanced across     8 MPI tasks.
  Work distribution over tasks is as follows:
  Task     0 has       3340 integration points.
  Task     1 has       3394 integration points.
  Task     2 has       3400 integration points.
  Task     3 has       3436 integration points.
  Task     4 has       3409 integration points.
  Task     5 has       3418 integration points.
  Task     6 has       3335 integration points.
  Task     7 has       3400 integration points.
  Initializing partition tables, free-atom densities, potentials, etc. across the integration grid (initialize_grid_storage).
  | initialize_grid_storage: Actual outermost partition radius vs. multipole_radius_free
  | (-- VB: in principle, multipole_radius_free should be larger, hence this output)
  | Species        1: Confinement radius =              4.999999999999999 AA, multipole_radius_free =              5.000694715736543 AA.
  | Species        1: outer_partition_radius set to              5.000694715736543 AA .
  | Species        2: Confinement radius =              4.999999999999999 AA, multipole_radius_free =              5.054417573612229 AA.
  | Species        2: outer_partition_radius set to              5.054417573612229 AA .
  | Species        3: Confinement radius =              4.999999999999999 AA, multipole_radius_free =              5.048384829883283 AA.
  | Species        3: outer_partition_radius set to              5.048384829883283 AA .
  | The sparse table of interatomic distances needs         98.35 kbyte instead of       125.00 kbyte of memory.
  | Net number of integration points:    27132
  | of which are non-zero points    :    23422
  | Numerical average free-atom electrostatic potential    :     -0.93627811 eV
  Renormalizing the initial density to the exact electron count on the 3D integration grid.
  | Initial density: Formal number of electrons (from input files) :      38.0000000000
  | Integrated number of electrons on 3D grid     :      38.0004144651
  | Charge integration error                      :       0.0004144651
  | Normalization factor for density and gradient :       0.9999890931
  Renormalizing the free-atom superposition density to the exact electron count on the 3D integration grid.
  | Formal number of electrons (from input files) :      38.0000000000
  | Integrated number of electrons on 3D grid     :      38.0004144651
  | Charge integration error                      :       0.0004144651
  | Normalization factor for density and gradient :       0.9999890931
  Obtaining max. number of non-zero basis functions in each batch (get_n_compute_maxes).
  | Maximal number of non-zero basis functions:      219 in task     0
  | Maximal number of non-zero basis functions:      202 in task     1
  | Maximal number of non-zero basis functions:      206 in task     2
  | Maximal number of non-zero basis functions:      207 in task     3
  | Maximal number of non-zero basis functions:      200 in task     4
  | Maximal number of non-zero basis functions:      200 in task     5
  | Maximal number of non-zero basis functions:      204 in task     6
  | Maximal number of non-zero basis functions:      209 in task     7
  Allocating        0.019 MB for KS_eigenvector_complex
  Integrating Hamiltonian matrix: batch-based integration.
  Time summed over all CPUs for integration: real work        0.359 s, elapsed        0.383 s
  Integrating overlap matrix.
  Time summed over all CPUs for integration: real work        0.180 s, elapsed        0.194 s

  Updating Kohn-Sham eigenvalues and eigenvectors using ELSI and the (modified) LAPACK eigensolver.
  Singularity check in k-point 8, task 0 (analysis for other k-points/tasks may follow below):
  Overlap matrix is not singular
  | Lowest and highest eigenvalues :  0.3683E-01,  0.3698E+01
  Finished singularity check of overlap matrix
  | Time :     0.001 s
  Starting LAPACK eigensolver
  Finished Cholesky decomposition
  | Time :     0.000 s
  Finished transformation to standard eigenproblem
  | Time :     0.001 s
  Finished solving standard eigenproblem
  | Time :     0.000 s
  Finished back-transformation of eigenvectors
  | Time :     0.000 s

  Obtaining occupation numbers and chemical potential using ELSI.
  | Chemical potential (Fermi level):    -6.65339524 eV
  Writing Kohn-Sham eigenvalues.
  K-point:       1 at    0.000000    0.000000    0.000000 (in units of recip. lattice)

  State    Occupation    Eigenvalue [Ha]    Eigenvalue [eV]
      1       2.00000         -65.475328        -1781.67432
      2       2.00000         -65.460780        -1781.27845
      3       2.00000         -18.941849         -515.43394
      4       2.00000          -5.126628         -139.50263
      5       2.00000          -5.109788         -139.04439
      6       2.00000          -3.537436          -96.25853
      7       2.00000          -3.537069          -96.24854
      8       2.00000          -3.536051          -96.22086
      9       2.00000          -3.520892          -95.80835
     10       2.00000          -3.519906          -95.78151
     11       2.00000          -3.519506          -95.77064
     12       2.00000          -0.971084          -26.42453
     13       2.00000          -0.617913          -16.81428
     14       2.00000          -0.498821          -13.57360
     15       2.00000          -0.454463          -12.36658
     16       2.00000          -0.409093          -11.13200
     17       2.00000          -0.395207          -10.75413
     18       2.00000          -0.344849           -9.38382
     19       2.00000          -0.252521           -6.87146
     20       0.00000          -0.201562           -5.48478
     21       0.00000          -0.142518           -3.87812
     22       0.00000          -0.029204           -0.79469
     23       0.00000          -0.028410           -0.77307
     24       0.00000          -0.001680           -0.04571
     25       0.00000           0.085165            2.31747
     26       0.00000           0.141896            3.86118
     27       0.00000           0.208377            5.67023
     28       0.00000           0.229675            6.24978
     29       0.00000           0.246443            6.70605
     30       0.00000           0.301871            8.21433
     31       0.00000           0.379729           10.33294

  What follows are estimated values for band gap, HOMO, LUMO, etc.
  | They are estimated on a discrete k-point grid and not necessarily exact.
  | For converged numbers, create a DOS and/or band structure plot on a denser k-grid.

  Highest occupied state (VBM) at     -6.87145739 eV (relative to internal zero)
  | Occupation number:      2.00000000
  | K-point:       1 at    0.000000    0.000000    0.000000 (in units of recip. lattice)

  Lowest unoccupied state (CBM) at    -5.61137128 eV (relative to internal zero)
  | Occupation number:      0.00000000
  | K-point:       2 at    0.000000    0.333333    0.000000 (in units of recip. lattice)

  ESTIMATED overall HOMO-LUMO gap:      1.26008611 eV between HOMO at k-point 1 and LUMO at k-point 2
  | This appears to be an indirect band gap.
  | Smallest direct gap :      1.38667531 eV for k_point 1 at    0.000000    0.333333    0.000000 (in units of recip. lattice)
  The gap value is above 0.2 eV. Unless you are using a very sparse k-point grid,
  this system is most likely an insulator or a semiconductor.
  Calculating total energy contributions from superposition of free atom densities.

  Total energy components:
  | Sum of eigenvalues            :        -370.59730191 Ha      -10084.46567694 eV
  | XC energy correction          :         -50.54633235 Ha       -1375.43568472 eV
  | XC potential correction       :          65.22998932 Ha        1774.99832041 eV
  | Free-atom electrostatic energy:        -299.25151628 Ha       -8143.04807169 eV
  | Hartree energy correction     :           0.00000000 Ha           0.00000000 eV
  | Entropy correction            :          -0.00000000 Ha          -0.00000000 eV
  | ---------------------------
  | Total energy                  :        -655.16516122 Ha      -17827.95111294 eV
  | Total energy, T -> 0          :        -655.16516122 Ha      -17827.95111294 eV  <-- do not rely on this value for anything but (periodic) metals
  | Electronic free energy        :        -655.16516122 Ha      -17827.95111294 eV

  Derived energy quantities:
  | Kinetic energy                :         653.56256441 Ha       17784.34223486 eV
  | Electrostatic energy          :       -1258.18139327 Ha      -34236.85766308 eV
  | Energy correction for multipole
  | error in Hartree potential    :           0.00000000 Ha           0.00000000 eV
  | Sum of eigenvalues per atom                           :       -2016.89313539 eV
  | Total energy (T->0) per atom                          :       -3565.59022259 eV  <-- do not rely on this value for anything but (periodic) metals
  | Electronic free energy per atom                       :       -3565.59022259 eV
  
  --------------------------------------------
  Constructing auxiliary basis (full product) ...
  
  Product basis:
  | charge radius: extent of product basis function
  | field radius: extent of its Coulomb potential
  | Species   l  charge radius    field radius
  |    Si     0     4.318366 A      4.318366 A
  |    Si     0     4.371482 A      6.231559 A
  |    Si     0     4.425251 A      8.883104 A
  |    Si     0     4.534782 A     12.976313 A
  |    Si     0     4.590560 A     18.955613 A
  |    Si     0     4.590560 A     21.684006 A
  |    Si     0     4.534782 A     24.205982 A
  |    Si     0     4.590560 A     25.419071 A
  |    Si     0     4.590560 A     26.048226 A
  |    Si     0     4.590560 A     26.048226 A
  |    Si     1     4.318366 A      4.318366 A
  |    Si     1     4.371482 A      5.251306 A
  |    Si     1     4.479682 A     10.802211 A
  |    Si     1     4.534782 A     13.794232 A
  |    Si     1     4.590560 A     16.774339 A
  |    Si     1     4.590560 A     22.494028 A
  |    Si     1     4.647024 A     24.205982 A
  |    Si     1     4.647024 A     25.419071 A
  |    Si     1     4.647024 A     26.048226 A
  |    Si     1     4.647024 A     26.368620 A
  |    Si     2     4.371482 A      4.371482 A
  |    Si     2     4.479682 A      7.041889 A
  |    Si     2     4.534782 A     15.398581 A
  |    Si     2     4.590560 A     22.220713 A
  |    Si     2     4.590560 A     24.205982 A
  |    Si     2     4.590560 A     25.419071 A
  |    Si     2     4.590560 A     26.048226 A
  |    Si     3     4.479682 A     18.955613 A
  |    Si     3     4.534782 A     22.770705 A
  |    Si     3     4.590560 A     24.503715 A
  |    Si     3     4.590560 A     25.731726 A
  |    Si     4     4.534782 A     24.205982 A
  |    H      0     4.472792 A     22.459432 A
  |    H      0     4.527807 A     24.466028 A
  |    H      0     4.527807 A     25.379976 A
  |    H      0     4.527807 A     25.379976 A
  |    H      1     3.958095 A     22.459432 A
  |    H      1     3.958095 A     24.168752 A
  |    H      1     3.958095 A     24.766961 A
  |    H      2     3.678162 A     23.875088 A
  |    O      0     4.306578 A      4.306578 A
  |    O      0     4.359549 A      4.359549 A
  |    O      0     4.467453 A     14.270465 A
  |    O      0     4.522403 A     21.102499 A
  |    O      0     4.578029 A     23.556843 A
  |    O      0     4.578029 A     25.041670 A
  |    O      0     4.578029 A     25.661485 A
  |    O      0     4.578029 A     25.661485 A
  |    O      1     4.413171 A      5.775028 A
  |    O      1     4.467453 A      9.889192 A
  |    O      1     4.522403 A     19.610038 A
  |    O      1     4.578029 A     22.987863 A
  |    O      1     4.578029 A     24.737400 A
  |    O      1     4.578029 A     25.661485 A
  |    O      1     4.578029 A     25.977121 A
  |    O      2     4.413171 A      4.413171 A
  |    O      2     4.467453 A     14.623677 A
  |    O      2     4.522403 A     21.102499 A
  |    O      2     4.578029 A     23.556843 A
  |    O      2     4.578029 A     25.041670 A
  |    O      2     4.578029 A     25.661485 A
  |    O      3     3.498446 A     18.674177 A
  |    O      3     3.498446 A     22.432626 A
  |    O      3     3.541477 A     24.139906 A
  |    O      4     3.251020 A     22.432626 A

  | Shrink_full_auxil_basis : there are       65  radial auxiliary wave functions
                            accepted and      36 rejected.
  | Shrink_full_auxil_basis : there are totally                8076 partial auxiliary wave functions.
  prodbas_tasks_distribution_pbc not up to date - distributing tasks.
 
  | Number of product basis functions per thread :  1010
  Parallel distribution of product basis not up to date - distributing tasks.
 
  | Number of product basis functions per thread :    44
  | Minimal requirement for computer memory :           0.003 Gbs
  -----------------------------------------
  --- Initializing Fock matrix calculations
  -----------------------------------------
  screening_threshold (crit_val) =  0.000000100000
  coul_mat_threshold =  0.000000000100
 Trying to make the workload more even by internally splitting atoms into fractions
 Atom:            1  Basis/atom:    2.00000000000000
 Atom:            2  Basis/atom:    2.00000000000000
 Atom:            3  Basis/atom:    14.0000000000000
 Atom:            4  Basis/atom:    14.0000000000000
 Atom:            5  Basis/atom:    9.00000000000000
 No atoms are split internally
  Number of super-cells in X Y Z:       5       5       1
  Number of atoms pairs total:          459
  Atom pair distribution:
  Cell:       -3      -1       0 atom pairs:        1
  Cell:       -3       0       0 atom pairs:        2
  Cell:       -2      -2       0 atom pairs:        5
  Cell:       -2      -1       0 atom pairs:       16
  Cell:       -2       0       0 atom pairs:       21
  Cell:       -2       1       0 atom pairs:       17
  Cell:       -2       2       0 atom pairs:        2
  Cell:       -1      -2       0 atom pairs:       17
  Cell:       -1      -1       0 atom pairs:       25
  Cell:       -1       0       0 atom pairs:       25
  Cell:       -1       1       0 atom pairs:       25
  Cell:       -1       2       0 atom pairs:       17
  Cell:        0      -2       0 atom pairs:       19
  Cell:        0      -1       0 atom pairs:       25
  Cell:        0       0       0 atom pairs:       25
  Cell:        0       1       0 atom pairs:       25
  Cell:        0       2       0 atom pairs:       19
  Cell:        1      -2       0 atom pairs:       17
  Cell:        1      -1       0 atom pairs:       25
  Cell:        1       0       0 atom pairs:       25
  Cell:        1       1       0 atom pairs:       25
  Cell:        1       2       0 atom pairs:       17
  Cell:        2      -2       0 atom pairs:        2
  Cell:        2      -1       0 atom pairs:       17
  Cell:        2       0       0 atom pairs:       21
  Cell:        2       1       0 atom pairs:       16
  Cell:        2       2       0 atom pairs:        5
  Cell:        3       0       0 atom pairs:        2
  Cell:        3       1       0 atom pairs:        1
  Number of atoms pairs in BvK cells:          225
  Initializing work distribution for fock matrix calculation
  -----------------------------------------------------
  Dividing atoms among tasks for exact exchange energy:
  Atom:     1 Weight:   18.000
  Atom:     2 Weight:   18.000
  Atom:     3 Weight:   112.00
  Atom:     4 Weight:   112.00
  Atom:     5 Weight:   89.000

  Average weight per task:   43.625

  Number of "big" (above average) atoms  :     3
  Number of "small" (below average) atoms:     2

  There are "big" and "small" atoms
  Reserving    3 tasks for "big" atoms
  Max. weight for big atoms:   112.00     small atoms:   18.000
  Trying 4 tasks for "big" atoms:
  Max. weight for big atoms:   112.00     small atoms:   18.000
  => Atom 3 gets 2 tasks
  Trying 5 tasks for "big" atoms:
  Max. weight for big atoms:   89.000     small atoms:   18.000
  => Atom 4 gets 2 tasks
  Trying 6 tasks for "big" atoms:
  Max. weight for big atoms:   56.000     small atoms:   18.000
  => Atom 5 gets 2 tasks
  Trying 7 tasks for "big" atoms:
  Max. weight for big atoms:   56.000     small atoms:   36.000
  => Atom 3 gets 3 tasks
  Using 1 tasks for "small" atoms 7, for "big" atoms

  Atom division among tasks:
  Atom     1: (initial) task:     0, # of tasks:     1
  Atom     2: (initial) task:     0, # of tasks:     1
  Atom     3: (initial) task:     1, # of tasks:     3
  Atom     4: (initial) task:     4, # of tasks:     2
  Atom     5: (initial) task:     6, # of tasks:     2

  -----------------------------------------------------
  Task     0 : Coulomb matrix distribution changed.
  Task     1 : Coulomb matrix distribution changed.
  Task     2 : Coulomb matrix distribution changed.
  Task     3 : Coulomb matrix distribution changed.
  Task     4 : Coulomb matrix distribution changed.
  Task     5 : Coulomb matrix distribution changed.
  Task     6 : Coulomb matrix distribution changed.
  Task     7 : Coulomb matrix distribution changed.
  Overall Coulomb matrix distribution changed.
  Coulomb matrix subdivision:
  Task     0 works on full atoms (no Coulomb matrix division)
  Task      0: my_n_atoms:      2 my_atom_list:      1     2
  Task      1: my_n_atoms:      1 my_atom_list:      3
  Task      2: my_n_atoms:      1 my_atom_list:      3
  Task      3: my_n_atoms:      1 my_atom_list:      3
  Task      4: my_n_atoms:      1 my_atom_list:      4
  Task      5: my_n_atoms:      1 my_atom_list:      4
  Task      6: my_n_atoms:      1 my_atom_list:      5
  Task      7: my_n_atoms:      1 my_atom_list:      5
  Task      0: my_n_atom_pairs:     90
  Task      1: my_n_atom_pairs:     15
  Task      2: my_n_atom_pairs:     15
  Task      3: my_n_atom_pairs:     15
  Task      4: my_n_atom_pairs:     23
  Task      5: my_n_atom_pairs:     22
  Task      6: my_n_atom_pairs:     23
  Task      7: my_n_atom_pairs:     22
  Memory needs for ovlp3fn and Coulomb matrix:
  For Coulomb matrix, this is the upper limit if no compression occurs
  ovlp3fn:        0.850 MB, Coulomb:        3.618 MB
Size of ovlp3fn for atom     738       1      18
Size of ovlp3fn for atom     738       2      18
  --- Initializing LVL triples, type HSE
  | Storage requirements for basis-basbas products (processor-local):
  |   Species Si: n_prodsfn:   270; storage:        8.44 MiB.
  |   Species H: n_prodsfn:    16; storage:        0.50 MiB.
  |   Species O: n_prodsfn:   159; storage:        4.97 MiB.

  --- Initializing Coulomb matrix calculations, type HSE
  Preparing TB like auxiliary 2-center HSE-pot matrix
  SBT integration errors (all should be 'small'):
  large logFT aliasing -> increase N/lnrange
  large SBT aliasing -> decrease lnk0 & increase lnk0+lnrange
  large SBT ringing -> decrease lnr0 & increase lnr0+lnrange
  |            El't  L: logFT-al.   small-k   large-k   small-r   large-r
  | Need to store  3415 splines of   282 points taking       7584 KiB.
  | Spline reduction from  4096 to   282 points by (cutting and)     1 x coarsening gives error:  0.00E+00
  | Maximum value outside interaction range:  1.29E-13
  Finished with initialize_tb_auxmat/lvl_triples, time:        0.408
  --- Calculating OVLP3FN
  Allocating        5.359 MB for coeff_3fn
  Allocating       16.078 MB for d_coeff_3fn
  --- Done calculating OVLP3FN, time:        3.954
  Atomic logSBT for LVL-triples                :  max(cpu_time)    wall_clock(cpu1)
  | Multiplication with kernel                 :        0.086 s           0.095 s
  | Main matrix multiplication                 :        1.382 s           0.959 s
  | Analytic angular integration               :        0.127 s           0.135 s
  | Kernel construction                        :        0.263 s           0.248 s
  | Overall 2-center overlap time              :        1.672 s           1.669 s
  | 3-center preparation multiplications       :        0.029 s           0.027 s
  | 3-center preparation SBTs                  :        0.764 s           0.764 s
  | 3-center combinations                      :        1.794 s           1.743 s
  | Overal 3-center time                       :        2.538 s           2.539 s
  | LVL initialization                         :        0.234 s           0.234 s
  | Whole LVL-triples                          :        0.234 s           0.234 s

Compare n_pairs with n_super      18     363
  --- Done getting norm of OVLP3FN, time:        0.005
  --- Calculating Coulomb matrices
  Time to calculate Coulomb Matrices   :        0.297
  Number of Coulomb matrix elements:
  | Task     0 total:         452304, > threshold:         338826, stored:         428844
  | Task     1 total:         469056, > threshold:         251954, stored:         434769
  | Task     2 total:         469056, > threshold:         225532, stored:         441265
  | Task     3 total:         469056, > threshold:         303185, stored:         465549
  | Task     4 total:         781760, > threshold:         467020, stored:         747374
  | Task     5 total:         625408, > threshold:         338063, stored:         600647
  | Task     6 total:         621220, > threshold:         362921, stored:         577705
  | Task     7 total:         496976, > threshold:         287024, stored:         486404
  --- Done init_fock_matrix_calculations
  Atomic logSBT for 2-center HSE-pot matrix    :  max(cpu_time)    wall_clock(cpu1)
  | TB initialization                          :        0.173 s           0.174 s
  | TB usage                                   :        0.182 s           0.183 s

  Calculating non-local Hartree-Fock exchange by two-center RI (RI-LVL).
  screening_threshold (crit_val) =  0.000000100000
  Allocating        0.011 MB for dm_cols
  Allocating        0.631 MB for ovlp3fn_rcv
  Allocating        0.011 MB for fock_matrix
  Allocating        0.003 MB for fock_matrix_row
  Exact exchange progress report - outermost basis function loop i_basis_r1: 1 ..      41
  |        1         2         3         4         5         6         7         8         9        10
  |       11        12        13        14        15        16        17        18        19        20
  |       21        22        23        24        25        26        27        28        29        30
  |       31        32        33        34        35        36        37        38        39        40
  |       41  
  Full exact exchange energy:    1296.982927981016 eV.
  Times            DM_x_o3fn   CM_x_o3fn    Products        Sync   Imbalance    Pre/Post       Other  Total calc
  | Times    0:        0.006       0.062       0.028       0.026       0.063       0.003       0.007       0.194
  | Times    1:        0.017       0.047       0.034       0.035       0.049       0.002       0.008       0.194
  | Times    2:        0.017       0.044       0.031       0.035       0.056       0.002       0.008       0.194
  | Times    3:        0.015       0.045       0.028       0.033       0.062       0.003       0.008       0.194
  | Times    4:        0.023       0.073       0.049       0.033       0.005       0.003       0.009       0.194
  | Times    5:        0.023       0.058       0.042       0.033       0.026       0.003       0.008       0.194
  | Times    6:        0.013       0.056       0.031       0.030       0.055       0.003       0.006       0.194
  | Times    7:        0.014       0.047       0.027       0.031       0.066       0.002       0.006       0.194
  | Times  sum:        0.129       0.432       0.271       0.254       0.382       0.020       0.061       1.549

  Decomposition of Other based on code block (only on MPI task 0):
  Times             Block #1    Block #2    Block #3    Block #4    Block #5    Block #6    Block #7    Block #8
  | Times    0:        0.000       0.000       0.001       0.000       0.000       0.000       0.003       0.000

  Times             Block #9   Block #10   Block #11   Block #12   Block #13   Block #14   Block #15   Block #16
  | Times    0:        0.000       0.000       0.000       0.000       0.000       0.000       0.000       0.000

  Times            Block Sum    Expected
  | Times    0:        0.006       0.007
  Initialize hartree_potential_storage
  Max. number of atoms included in rho_multipole:            5

  End scf initialization - timings             :  max(cpu_time)    wall_clock(cpu1)
  | Time for scf. initialization               :        5.552 s           5.616 s
  | Boundary condition initialization          :        0.171 s           0.171 s
  | Relaxation initialization                  :        0.001 s           0.000 s
  | Integration                                :        0.074 s           0.074 s
  | Solution of K.-S. eqns.                    :        0.003 s           0.003 s
  | Grid partitioning                          :        0.022 s           0.022 s
  | Preloading free-atom quantities on grid    :        0.002 s           0.002 s
  | Free-atom superposition energy             :        0.010 s           0.011 s
  | Total energy evaluation                    :        0.000 s           0.000 s
  | Product basis setup: Total time            :        5.201 s           5.264 s

  Partial memory accounting:
  | Current value for overall tracked memory usage:
  |   Minimum:        4.519 MB (on task 0)
  |   Maximum:       14.831 MB (on task 4)
  |   Average:       10.025 MB
  | Peak value for overall tracked memory usage:
  |   Minimum:       22.567 MB (on task 0 after allocating d_coeff_3fn)
  |   Maximum:       30.739 MB (on task 5 after allocating d_coeff_3fn)
  |   Average:       27.414 MB
  | Largest tracked array allocation so far:
  |   Minimum:       16.078 MB (d_coeff_3fn on task 0)
  |   Maximum:       16.078 MB (d_coeff_3fn on task 0)
  |   Average:       16.078 MB
  Note:  These values currently only include a subset of arrays which are explicitly tracked.
  The "true" memory usage will be greater.
------------------------------------------------------------

------------------------------------------------------------
          Begin self-consistency iteration #    1

  Date     :  20190817, Time     :  154614.119
------------------------------------------------------------
  Evaluating new KS density using the density matrix
  Evaluating density matrix
  Time summed over all CPUs for getting density from density matrix: real work        0.406 s, elapsed        0.432 s
  Integration grid: deviation in total charge (<rho> - N_e) =   0.000000E+00
  Pulay mixing of updated and previous charge densities.
  Renormalizing the density to the exact electron count on the 3D integration grid.
  | Formal number of electrons (from input files) :      38.0000000000
  | Integrated number of electrons on 3D grid     :      38.0000000000
  | Charge integration error                      :       0.0000000000
  | Normalization factor for density and gradient :       1.0000000000

  Evaluating partitioned Hartree potential by multipole expansion.
  | Original multipole sum: apparent total charge =   0.114625E-13
  | Sum of charges compensated after spline to logarithmic grids =   0.114190E-03
  | Analytical far-field extrapolation by fixed multipoles:
  | Hartree multipole sum: apparent total charge =   0.112166E-13
  Summing up the Hartree potential.
  Time summed over all CPUs for potential: real work        1.187 s, elapsed        1.257 s
  | RMS charge density error from multipole expansion :   0.777447E-02
  | Average real-space part of the electrostatic potential :      0.03306209 eV

  Integrating Hamiltonian matrix: batch-based integration.
  Time summed over all CPUs for integration: real work        0.397 s, elapsed        0.419 s
  Calculating non-local Hartree-Fock exchange by two-center RI (RI-LVL).
  screening_threshold (crit_val) =  0.000000100000
  Allocating        0.011 MB for dm_cols
  Allocating        0.631 MB for ovlp3fn_rcv
  Allocating        0.011 MB for fock_matrix
  Allocating        0.003 MB for fock_matrix_row
  Exact exchange progress report - outermost basis function loop i_basis_r1: 1 ..      41
  |        1         2         3         4         5         6         7         8         9        10
  |       11        12        13        14        15        16        17        18        19        20
  |       21        22        23        24        25        26        27        28        29        30
  |       31        32        33        34        35        36        37        38        39        40
  |       41  
  Full exact exchange energy:    1296.982927981016 eV.
  Times            DM_x_o3fn   CM_x_o3fn    Products        Sync   Imbalance    Pre/Post       Other  Total calc
  | Times    0:        0.006       0.060       0.027       0.023       0.064       0.001       0.006       0.187
  | Times    1:        0.017       0.047       0.034       0.031       0.048       0.001       0.007       0.187
  | Times    2:        0.016       0.042       0.031       0.032       0.057       0.001       0.007       0.187
  | Times    3:        0.015       0.044       0.028       0.030       0.063       0.001       0.007       0.187
  | Times    4:        0.022       0.073       0.049       0.030       0.005       0.001       0.008       0.187
  | Times    5:        0.023       0.058       0.042       0.030       0.027       0.001       0.007       0.187
  | Times    6:        0.013       0.056       0.031       0.026       0.055       0.001       0.005       0.187
  | Times    7:        0.014       0.046       0.026       0.026       0.068       0.001       0.006       0.187
  | Times  sum:        0.126       0.426       0.268       0.227       0.388       0.010       0.053       1.499

  Decomposition of Other based on code block (only on MPI task 0):
  Times             Block #1    Block #2    Block #3    Block #4    Block #5    Block #6    Block #7    Block #8
  | Times    0:        0.000       0.000       0.001       0.000       0.000       0.000       0.003       0.000

  Times             Block #9   Block #10   Block #11   Block #12   Block #13   Block #14   Block #15   Block #16
  | Times    0:        0.000       0.000       0.000       0.000       0.000       0.000       0.000       0.000

  Times            Block Sum    Expected
  | Times    0:        0.006       0.006

  Updating Kohn-Sham eigenvalues and eigenvectors using ELSI and the (modified) LAPACK eigensolver.
  Starting LAPACK eigensolver
  Finished Cholesky decomposition
  | Time :     0.000 s
  Finished transformation to standard eigenproblem
  | Time :     0.000 s
  Finished solving standard eigenproblem
  | Time :     0.000 s
  Finished back-transformation of eigenvectors
  | Time :     0.000 s

  Obtaining occupation numbers and chemical potential using ELSI.
  | Chemical potential (Fermi level):    -4.48196822 eV
  Writing Kohn-Sham eigenvalues.
  K-point:       1 at    0.000000    0.000000    0.000000 (in units of recip. lattice)

  State    Occupation    Eigenvalue [Ha]    Eigenvalue [eV]
      1       2.00000         -66.407831        -1807.04902
      2       2.00000         -66.277836        -1803.51168
      3       2.00000         -18.976360         -516.37303
      4       2.00000          -5.454787         -148.43231
      5       2.00000          -5.355594         -145.73312
      6       2.00000          -3.791624         -103.17534
      7       2.00000          -3.790606         -103.14765
      8       2.00000          -3.788590         -103.09279
      9       2.00000          -3.689727         -100.40258
     10       2.00000          -3.689597         -100.39904
     11       2.00000          -3.689315         -100.39136
     12       2.00000          -0.896489          -24.39470
     13       2.00000          -0.625297          -17.01520
     14       2.00000          -0.450935          -12.27056
     15       2.00000          -0.420546          -11.44364
     16       2.00000          -0.342067           -9.30812
     17       2.00000          -0.308313           -8.38961
     18       2.00000          -0.308121           -8.38440
     19       2.00000          -0.201611           -5.48613
     20       0.00000          -0.155289           -4.22564
     21       0.00000          -0.106296           -2.89245
     22       0.00000           0.046157            1.25600
     23       0.00000           0.055887            1.52076
     24       0.00000           0.058003            1.57833
     25       0.00000           0.136637            3.71808
     26       0.00000           0.194953            5.30494
     27       0.00000           0.278435            7.57660
     28       0.00000           0.291427            7.93013
     29       0.00000           0.315602            8.58796
     30       0.00000           0.392998           10.69403
     31       0.00000           0.488576           13.29483

  What follows are estimated values for band gap, HOMO, LUMO, etc.
  | They are estimated on a discrete k-point grid and not necessarily exact.
  | For converged numbers, create a DOS and/or band structure plot on a denser k-grid.

  Highest occupied state (VBM) at     -5.48612508 eV (relative to internal zero)
  | Occupation number:      2.00000000
  | K-point:       1 at    0.000000    0.000000    0.000000 (in units of recip. lattice)

  Lowest unoccupied state (CBM) at    -4.37383863 eV (relative to internal zero)
  | Occupation number:      0.00000000
  | K-point:       2 at    0.000000    0.333333    0.000000 (in units of recip. lattice)

  ESTIMATED overall HOMO-LUMO gap:      1.11228645 eV between HOMO at k-point 1 and LUMO at k-point 2
  | This appears to be an indirect band gap.
  | Smallest direct gap :      1.26048716 eV for k_point 1 at    0.000000    0.333333    0.000000 (in units of recip. lattice)
  The gap value is above 0.2 eV. Unless you are using a very sparse k-point grid,
  this system is most likely an insulator or a semiconductor.

  Total energy components:
  | Sum of eigenvalues            :        -377.07915423 Ha      -10260.84585272 eV
  | XC energy correction          :         -27.23815260 Ha        -741.18784352 eV
  | XC potential correction       :          50.20099327 Ha        1366.03853020 eV
  | Free-atom electrostatic energy:        -299.25151628 Ha       -8143.04807169 eV
  | Hartree energy correction     :          -1.89346803 Ha         -51.52388648 eV
  | Entropy correction            :          -0.00000000 Ha          -0.00000000 eV
  | ---------------------------
  | Total energy                  :        -655.26129787 Ha      -17830.56712421 eV
  | Total energy, T -> 0          :        -655.26129787 Ha      -17830.56712421 eV  <-- do not rely on this value for anything but (periodic) metals
  | Electronic free energy        :        -655.26129787 Ha      -17830.56712421 eV

  Derived energy quantities:
  | Kinetic energy                :         725.27041815 Ha       19735.61221483 eV
  | Electrostatic energy          :       -1258.73791382 Ha      -34252.00135770 eV
  | Energy correction for multipole
  | error in Hartree potential    :           0.00931876 Ha           0.25357623 eV
  | Sum of eigenvalues per atom                           :       -2052.16917054 eV
[...]
  atom #    2
   Hellmann-Feynman              :  0.110881E+01  0.391927E-07 -0.906896E+00
   Ionic forces                  :  0.000000E+00  0.000000E+00  0.000000E+00
   Multipole                     :  0.209586E-01  0.915102E-08 -0.159643E+00
   Hartree-Fock exchange         : -0.143629E+01 -0.206700E-08  0.137693E+01
   Pulay + GGA                   :  0.307678E+00  0.173510E-07 -0.301799E+00
   ----------------------------------------------------------------
   Total forces(   2)            :  0.115064E-02  0.636277E-07  0.858793E-02
  atom #    3
   Hellmann-Feynman              :  0.206421E-05  0.777095E-06 -0.977917E+01
   Ionic forces                  :  0.000000E+00  0.000000E+00  0.000000E+00
   Multipole                     : -0.594315E-07 -0.165702E-07 -0.229732E+00
   Hartree-Fock exchange         :  0.221593E-06 -0.234198E-06 -0.177403E+01
   Pulay + GGA                   : -0.223073E-05 -0.168114E-05  0.117700E+02
   ----------------------------------------------------------------
   Total forces(   3)            : -0.435738E-08 -0.115481E-05 -0.129220E-01
  atom #    4
   Hellmann-Feynman              : -0.610378E-06  0.149125E-05 -0.320151E+02
   Ionic forces                  :  0.000000E+00  0.000000E+00  0.000000E+00
   Multipole                     :  0.220809E-07  0.187581E-07  0.356310E+00
   Hartree-Fock exchange         :  0.416719E-06  0.166066E-06 -0.953129E+00
   Pulay + GGA                   :  0.276689E-06 -0.510746E-06  0.326070E+02
   ----------------------------------------------------------------
   Total forces(   4)            :  0.105111E-06  0.116533E-05 -0.500080E-02
  atom #    5
   Hellmann-Feynman              :  0.117260E-05  0.442404E-05  0.375412E+01
   Ionic forces                  :  0.000000E+00  0.000000E+00  0.000000E+00
   Multipole                     :  0.905638E-08  0.313239E-07 -0.386159E+00
   Hartree-Fock exchange         : -0.447582E-06 -0.535165E-07 -0.266948E-01
   Pulay + GGA                   : -0.908288E-06 -0.445822E-05 -0.333343E+01
   ----------------------------------------------------------------
   Total forces(   5)            : -0.174215E-06 -0.563725E-07  0.783534E-02


  Self-consistency convergence accuracy:
  | Change of charge density      :  0.2816E-06
  | Change of sum of eigenvalues  :  0.3769E-04 eV
  | Change of total energy        : -0.6840E-06 eV
  | Change of forces              :  0.1496E+02 eV/A

  Writing Kohn-Sham eigenvalues.
  K-point:       1 at    0.000000    0.000000    0.000000 (in units of recip. lattice)

  State    Occupation    Eigenvalue [Ha]    Eigenvalue [eV]
      1       2.00000         -66.385108        -1806.43070
      2       2.00000         -66.263880        -1803.13193
      3       2.00000         -19.194851         -522.31848
      4       2.00000          -5.442372         -148.09449
      5       2.00000          -5.349069         -145.55557
      6       2.00000          -3.779495         -102.84530
      7       2.00000          -3.776897         -102.77459
      8       2.00000          -3.774068         -102.69763
      9       2.00000          -3.682909         -100.21706
     10       2.00000          -3.681929         -100.19040
     11       2.00000          -3.681655         -100.18292
     12       2.00000          -0.945498          -25.72830
     13       2.00000          -0.615340          -16.74426
     14       2.00000          -0.453833          -12.34942
     15       2.00000          -0.440300          -11.98118
     16       2.00000          -0.355159           -9.66438
     17       2.00000          -0.338830           -9.22004
     18       2.00000          -0.294367           -8.01013
     19       2.00000          -0.215734           -5.87041
     20       0.00000          -0.161402           -4.39196
     21       0.00000          -0.095706           -2.60430
     22       0.00000           0.051247            1.39450
     23       0.00000           0.058137            1.58198
     24       0.00000           0.059162            1.60988
     25       0.00000           0.144015            3.91885
     26       0.00000           0.205033            5.57923
     27       0.00000           0.280047            7.62047
     28       0.00000           0.302090            8.22029
     29       0.00000           0.319859            8.70381
     30       0.00000           0.370351           10.07777
     31       0.00000           0.491423           13.37229

  What follows are estimated values for band gap, HOMO, LUMO, etc.
  | They are estimated on a discrete k-point grid and not necessarily exact.
  | For converged numbers, create a DOS and/or band structure plot on a denser k-grid.

  Highest occupied state (VBM) at     -5.87041157 eV (relative to internal zero)
  | Occupation number:      2.00000000
  | K-point:       1 at    0.000000    0.000000    0.000000 (in units of recip. lattice)

  Lowest unoccupied state (CBM) at    -4.60583758 eV (relative to internal zero)
  | Occupation number:      0.00000000
  | K-point:       2 at    0.000000    0.333333    0.000000 (in units of recip. lattice)

  ESTIMATED overall HOMO-LUMO gap:      1.26457399 eV between HOMO at k-point 1 and LUMO at k-point 2
  | This appears to be an indirect band gap.
  | Smallest direct gap :      1.47844722 eV for k_point 1 at    0.000000    0.333333    0.000000 (in units of recip. lattice)
  The gap value is above 0.2 eV. Unless you are using a very sparse k-point grid,
  this system is most likely an insulator or a semiconductor.

  Self-consistency cycle converged.

  End self-consistency iteration #     9       :  max(cpu_time)    wall_clock(cpu1)
  | Time for this iteration                    :        1.347 s           1.347 s
  | Charge density & force component update    :        0.387 s           0.386 s
  | Density mixing                             :        0.002 s           0.002 s
  | Hartree multipole update                   :        0.001 s           0.001 s
  | Hartree multipole summation                :        0.534 s           0.534 s
  | Integration                                :        0.050 s           0.051 s
  | Fock matrix evaluation                     :        0.370 s           0.370 s
  | Solution of K.-S. eqns.                    :        0.002 s           0.002 s
  | Total energy evaluation                    :        0.000 s           0.001 s

  Partial memory accounting:
  | Current value for overall tracked memory usage:
  |   Minimum:        4.539 MB (on task 0)
  |   Maximum:       14.852 MB (on task 4)
  |   Average:       10.048 MB
  | Peak value for overall tracked memory usage:
  |   Minimum:       22.587 MB (on task 0 after allocating d_coeff_3fn)
  |   Maximum:       30.760 MB (on task 5 after allocating d_coeff_3fn)
  |   Average:       27.437 MB
  | Largest tracked array allocation so far:
  |   Minimum:       16.078 MB (d_coeff_3fn on task 0)
  |   Maximum:       16.078 MB (d_coeff_3fn on task 0)
  |   Average:       16.078 MB
  Note:  These values currently only include a subset of arrays which are explicitly tracked.
  The "true" memory usage will be greater.
------------------------------------------------------------
  Removing unitary transformations (pure translations, rotations) from forces on atoms.
  Atomic forces before filtering:
  | Net force on center of mass :  -0.103372E-08  0.162834E-07  0.708831E-02 eV/A
  Atomic forces after filtering:
  | Net force on center of mass :   0.238985E-18 -0.116972E-21  0.000000E+00 eV/A

  Energy and forces in a compact form:
  | Total energy uncorrected      :         -0.178274121983593E+05 eV
  | Total energy corrected        :         -0.178274121983593E+05 eV  <-- do not rely on this value for anything but (periodic) metals
  | Electronic free energy        :         -0.178274121983593E+05 eV
  Total atomic forces (unitary forces cleaned) [eV/Ang]:
  |    1         -0.115057174902271E-02         -0.474007382156918E-08          0.717016504019123E-02
  |    2          0.115064458997929E-02          0.603710455770640E-07          0.717026271621935E-02
  |    3         -0.415063890048053E-08         -0.115807098813850E-05         -0.143396494366005E-01
  |    4          0.105317844854545E-06          0.116206917439260E-05         -0.641846051714932E-02
  |    5         -0.174008162536062E-06         -0.596291580095950E-07          0.641768219733927E-02

  ------------------------------------ 
  Start decomposition of the XC Energy 
  ------------------------------------ 
  X and C from original XC functional choice 
  Hartree-Fock Energy :        -11.811373354 Ha           -321.403821809 eV
  X Energy            :        -49.414190550 Ha          -1344.628538812 eV
  C Energy            :         -1.395020476 Ha            -37.960438553 eV
  Total XC Energy     :        -50.809211026 Ha          -1382.588977364 eV
  ------------------------------------ 
  LDA X and C from self-consistent density 
  X Energy LDA        :        -45.469449752 Ha          -1237.286680213 eV
  C Energy LDA        :         -2.796861180 Ha            -76.106464965 eV
  ------------------------------------ 
  End decomposition of the XC Energy 
  ------------------------------------ 

------------------------------------------------------------
  Relaxation / MD: End force evaluation.       :  max(cpu_time)    wall_clock(cpu1)
  | Time for this force evaluation             :       10.300 s          10.305 s

------------------------------------------------------------
  Geometry optimization: Attempting to predict improved coordinates.

  Removing unitary transformations (pure translations, rotations) from forces on atoms.
  Atomic forces before filtering:
  | Net force on center of mass :   0.238985E-18 -0.116972E-21  0.000000E+00 eV/A
  Atomic forces after filtering:
  | Net force on center of mass :   0.122098E-18 -0.116972E-21  0.000000E+00 eV/A
  Net remaining forces (excluding translations, rotations) in present geometry:
  || Forces on atoms   || =   0.143396E-01 eV/A.
  Maximum force component is  0.143396E-01 eV/A.
  Present geometry is converged.

------------------------------------------------------------
  Final atomic structure:
                         x [A]             y [A]             z [A]
  lattice_vector         3.82969033        0.00000000        0.00000000
  lattice_vector         0.00000000        3.82969033        0.00000000
  lattice_vector         0.00000000        0.00000000       50.00000000

            atom        -1.14412126       -0.00000002       -0.90209688  H
            atom         1.14412128        0.00000002       -0.90209683  H
            atom        -0.00000000        0.00000003        0.01147979  Si
            atom        -0.00000001        1.91484512        1.29736665  Si
            atom         1.91484515        1.91484517        1.64330728  O

  Fractional coordinates:
                         L1                L2                L3
       atom_frac        -0.29875033       -0.00000000       -0.01804194  H
       atom_frac         0.29875034        0.00000000       -0.01804194  H
       atom_frac        -0.00000000        0.00000001        0.00022960  Si
       atom_frac        -0.00000000        0.49999999        0.02594733  Si
       atom_frac         0.50000000        0.50000000        0.03286615  O
------------------------------------------------------------
  |------------------------------------------------------
  | Final ELSI Output
  |------------------------------------------------------
  |
  | Physical Properties
  |   Number of electrons       :        0.38000000E+02
  |   Number of states          :                    31
  |
  | Matrix Properties
  |   Matrix format             :           BLACS_DENSE
  |   Number of basis functions :                    41
  |
  | Computational Details
  |   Parallel mode             :           SINGLE_PROC
  |   Solver requested          :                LAPACK
  |   Number of ELSI calls      :                    22
  |
  |------------------------------------------------------
  | ELSI Project (c)  elsi-interchange.org
  |------------------------------------------------------

------------------------------------------------------------------------------
  Final output of selected total energy values:

  The following output summarizes some interesting total energy values
  at the end of a run (AFTER all relaxation, molecular dynamics, etc.).

  | Total energy of the DFT / Hartree-Fock s.c.f. calculation      :         -17827.412198359 eV
  | Final zero-broadening corrected energy (caution - metals only) :         -17827.412198359 eV
  | For reference only, the value of 1 Hartree used in FHI-aims is :             27.211384500 eV
  | For reference only, the overall average (free atom contribution
  | + realspace contribution) of the electrostatic potential after
  | s.c.f. convergence is                                          :             -0.899928087 eV

  Before relying on these values, please be sure to understand exactly which
  total energy value is referred to by a given number. Different objects may
  all carry the same name 'total energy'. Definitions:

  Total energy of the DFT / Hartree-Fock s.c.f. calculation:
  | Note that this energy does not include ANY quantities calculated after the
  | s.c.f. cycle, in particular not ANY RPA, MP2, etc. many-body perturbation terms.

  Final zero-broadening corrected energy:
  | For metallic systems only, a broadening of the occupation numbers at the Fermi
  | level can be extrapolated back to zero broadening by an electron-gas inspired
  | formula. For all systems that are not real metals, this value can be
  | meaningless and should be avoided.

------------------------------------------------------------------------------
  Methods described in the following list of references were used in this FHI-aims run.
  If you publish the results, please make sure to cite these reference if they apply.
  FHI-aims is an academic code, and for our developers (often, Ph.D. students
  and postdocs), scientific credit in the community is essential.
  Thank you for helping us!

  For any use of FHI-aims, please cite:

    Volker Blum, Ralf Gehrke, Felix Hanke, Paula Havu, Ville Havu,
    Xinguo Ren, Karsten Reuter, and Matthias Scheffler
    'Ab initio molecular simulations with numeric atom-centered orbitals'
    Computer Physics Communications 180, 2175-2196 (2009)
    http://dx.doi.org/10.1016/j.cpc.2009.06.022


  For Hartree-Fock, hybrid functionals, or many-body perturbation theory used in your run, please cite:

    Xinguo Ren, Patrick Rinke, Volker Blum, Juergen Wieferink, Alex Tkatchenko,
    Andrea Sanfilippo, Karsten Reuter, and Matthias Scheffler,
    'Resolution-of-identity approach to Hartree-Fock, hybrid density functionals,
    RPA, MP2, and GW with numeric atom-centered orbital basis functions'
    New Journal of Physics 14, 053020 (2012).
    http://dx.doi.org/10.1088/1367-2630/14/5/053020


  The provided symmetry information was generated with SPGlib:

    Atsushi Togo, Yusuke Seto, Dimitar Pashov
    SPGlib 1.7.3 obtained from http://spglib.sourceforge.net
    Copyright (C) 2008 Atsushi Togo


  The ELSI infrastructure was used in your run to solve the Kohn-Sham electronic structure.
  Please check out http://elsi-interchange.org to learn more.
  If scalability is important for your project, please acknowledge ELSI by citing:

    V. W-z. Yu, F. Corsetti, A. Garcia, W. P. Huhn, M. Jacquelin, W. Jia,
    B. Lange, L. Lin, J. Lu, W. Mi, A. Seifitokaldani, A. Vazquez-Mayagoitia,
    C. Yang, H. Yang, and V. Blum
    'ELSI: A unified software interface for Kohn-Sham electronic structure solvers'
    Computer Physics Communications 222, 267-285 (2018).
    http://dx.doi.org/10.1016/j.cpc.2017.09.007


  For the real-space grid partitioning and parallelization used in this calculation, please cite:

    Ville Havu, Volker Blum, Paula Havu, and Matthias Scheffler,
    'Efficient O(N) integration for all-electron electronic structure calculation'
    'using numerically tabulated basis functions'
    Journal of Computational Physics 228, 8367-8379 (2009).
    http://dx.doi.org/10.1016/j.jcp.2009.08.008


  The high-level electronic structure method used in your calculation
  employed our efficient localized resolution of identity for the Coulomb operator.
  Some calculations, especially large-scale hybrid density functional theory,
  are only possible thanks to this development. For this feature, please cite:

    Arvid Ihrig, Juergen Wieferink, Igor Ying Zhang, Matti Ropo, Xinguo Ren,
    Patrick Rinke, Matthias Scheffler, and Volker Blum,
    'Accurate localized resolution of identity approach for linear-scaling
    hybrid density functionals and for many-body perturbation theory'
    New Journal of Physics 117, 093020 (2015).
    http://dx.doi.org/10.1088/1367-2630/17/9/093020

  Of course, there are many other important community references, e.g., those cited in the
  above references. Our list is limited to references that describe implementations in the
  FHI-aims code. The reason is purely practical (length of this list) - please credit others as well.

------------------------------------------------------------
          Leaving FHI-aims.
          Date     :  20190817, Time     :  154630.940

          Computational steps:
          | Number of self-consistency cycles          :           21
          | Number of SCF (re)initializations          :            2
          | Number of relaxation steps                 :            1

          Detailed time accounting                     :  max(cpu_time)    wall_clock(cpu1)
          | Total time                                 :       22.645 s          22.734 s
          | Preparation time                           :        0.228 s           0.236 s
          | Boundary condition initalization           :        0.341 s           0.341 s
          | Grid partitioning                          :        0.043 s           0.043 s
          | Preloading free-atom quantities on grid    :        0.068 s           0.068 s
          | Free-atom superposition energy             :        0.026 s           0.026 s
          | Total time for integrations                :        1.190 s           1.189 s
          | Product basis setup: Total time            :       10.269 s          10.334 s
          | Total time evaluating exchange matrix      :        4.356 s           4.359 s
          | Total time for solution of K.-S. equations :        0.039 s           0.040 s
          | Total time for EV reorthonormalization     :        0.000 s           0.000 s
          | Total time for density & force components  :        1.799 s           1.799 s
          | Total time for mixing                      :        0.024 s           0.023 s
          | Total time for Hartree multipole update    :        0.027 s           0.029 s
          | Total time for Hartree multipole sum       :        4.066 s           4.066 s
          | Total time for total energy evaluation     :        0.004 s           0.008 s

          Partial memory accounting:
          | Residual value for overall tracked memory usage across tasks:     0.000000 MB (should be 0.000000 MB)
          | Peak values for overall tracked memory usage:
          |   Minimum:       22.587 MB (on task 0 after allocating d_coeff_3fn)
          |   Maximum:       30.760 MB (on task 5 after allocating d_coeff_3fn)
          |   Average:       27.437 MB
          | Largest tracked array allocation:
          |   Minimum:       16.078 MB (d_coeff_3fn on task 0)
          |   Maximum:       16.078 MB (d_coeff_3fn on task 0)
          |   Average:       16.078 MB
          Note:  These values currently only include a subset of arrays which are explicitly tracked.
          The "true" memory usage will be greater.

          Have a nice day.
------------------------------------------------------------
