  MPI-parallelism will be employed.
------------------------------------------------------------
          Invoking FHI-aims ...
          Version 180101-
          Git rev. (modified): fa29f3a Merge branch master of fhiaims.rzberlin.mp[...]
          Compiled on 2018/01/19 at 14:47:46 on host theobook132.

          When using FHI-aims, please cite the following reference:

          Volker Blum, Ralf Gehrke, Felix Hanke, Paula Havu,
          Ville Havu, Xinguo Ren, Karsten Reuter, and Matthias Scheffler,
          'Ab Initio Molecular Simulations with Numeric Atom-Centered Orbitals',
          Computer Physics Communications 180, 2175-2196 (2009)

          For any questions about FHI-aims, please visit the aimsclub website
          with its forums and wiki. Contributions to both the forums and the
          wiki are warmly encouraged - they are for you, and everyone is welcome there.

------------------------------------------------------------



  Date     :  20180214, Time     :  142349.867
  Time zero on CPU 1             :   0.360000000000000E-01  s.
  Internal wall clock time zero  :           287850229.867  s.

  FHI-aims created a unique identifier for this run for later identification
  aims_uuid : C8D26D7A-A8F9-4040-A22D-23E96F07ACC0

  Using        8 parallel tasks.
  Task        0 on host theobook132 reporting.
  Task        1 on host theobook132 reporting.
  Task        2 on host theobook132 reporting.
  Task        3 on host theobook132 reporting.
  Task        4 on host theobook132 reporting.
  Task        5 on host theobook132 reporting.
  Task        6 on host theobook132 reporting.
  Task        7 on host theobook132 reporting.

  Performing system and environment tests:
  *** Environment variable OMP_NUM_THREADS is not set
  *** For performance reasons you might want to set it to 1
  | Stacksize not measured: no C compiler
  | Checking for scalapack...
  | No scalapack compiled in.

  Obtaining array dimensions for all initial allocations:
  
  -----------------------------------------------------------------------
  Parsing control.in (first pass over file, find array dimensions only).
  The contents of control.in will be repeated verbatim below
  unless switched off by setting 'verbatim_writeout .false.' .
  in the first line of control.in .
  -----------------------------------------------------------------------
  
  ################################################################################
  #
  #		Control.in generated by mkcontrol
  #
  ################################################################################
  xc			pbe
  vdw_correction_hirshfeld
  charge			0.0
  relativistic		atomic_zora scalar
  
  sc_accuracy_rho		1E-5
  sc_accuracy_eev		1E-3
  sc_accuracy_etot	1E-6
  sc_iter_limit		1000	
  
  compute_forces .true.
  final_forces_cleaned .true.
  
  
  ################################################################################
  #
  #  FHI-aims code project
  # Volker Blum, Fritz Haber Institute Berlin, 2009
  #
  #  Suggested "tight" defaults for H atom (to be pasted into control.in file)
  #
  ################################################################################
    species        H
  #     global species definitions
      nucleus             1
      mass                1.00794
  #
      l_hartree           6
  #
      cut_pot             4.0  2.0  1.0
      basis_dep_cutoff    1e-4
  #
      radial_base         24 7.0
      radial_multiplier   2
      angular_grids       specified
        division   0.1930   50
        division   0.3175  110
        division   0.4293  194
        division   0.5066  302
        division   0.5626  434
  #      division   0.5922  590
  #      division   0.6227  974
  #      division   0.6868 1202
  #      outer_grid  770
        outer_grid  434
  ################################################################################
  #
  #  Definition of "minimal" basis
  #
  ################################################################################
  #     valence basis states
      valence      1  s   1.
  #     ion occupancy
      ion_occ      1  s   0.5
  ################################################################################
  #
  #  Suggested additional basis functions. For production calculations,
  #  uncomment them one after another (the most important basis functions are
  #  listed first).
  #
  #  Basis constructed for dimers: 0.5 A, 0.7 A, 1.0 A, 1.5 A, 2.5 A
  #
  ################################################################################
  #  "First tier" - improvements: -1014.90 meV to -62.69 meV
       hydro 2 s 2.1
       hydro 2 p 3.5
  #  "Second tier" - improvements: -12.89 meV to -1.83 meV
       hydro 1 s 0.85
       hydro 2 p 3.7
       hydro 2 s 1.2
       hydro 3 d 7
  #  "Third tier" - improvements: -0.25 meV to -0.12 meV
  #     hydro 4 f 11.2
  #     hydro 3 p 4.8
  #     hydro 4 d 9
  #     hydro 3 s 3.2
  
  
  
  ################################################################################
  #
  #  FHI-aims code project
  # Volker Blum, Fritz Haber Institute Berlin, 2009
  #
  #  Suggested "tight" defaults for N atom (to be pasted into control.in file)
  #
  ################################################################################
    species        N
  #     global species definitions
      nucleus             7
      mass                14.0067
  #
      l_hartree           6
  #
      cut_pot             4.0  2.0  1.0
      basis_dep_cutoff    1e-4
  #
      radial_base         35 7.0
      radial_multiplier   2
      angular_grids       specified
        division   0.1841   50
        division   0.3514  110
        division   0.5126  194
        division   0.6292  302
        division   0.6939  434
  #      division   0.7396  590
  #      division   0.7632  770
  #      division   0.8122  974
  #      division   1.1604 1202
  #      outer_grid  974
        outer_grid  434
  ################################################################################
  #
  #  Definition of "minimal" basis
  #
  ################################################################################
  #     valence basis states
      valence      2  s   2.
      valence      2  p   3.
  #     ion occupancy
      ion_occ      2  s   1.
      ion_occ      2  p   2.
  ################################################################################
  #
  #  Suggested additional basis functions. For production calculations,
  #  uncomment them one after another (the most important basis functions are
  #  listed first).
  #
  #  Constructed for dimers: 1.0 A, 1.1 A, 1.5 A, 2.0 A, 3.0 A
  #
  ################################################################################
  #  "First tier" - improvements: -1193.42 meV to -220.60 meV
       hydro 2 p 1.8
       hydro 3 d 6.8
       hydro 3 s 5.8
  #  "Second tier" - improvements: -80.21 meV to -6.86 meV
       hydro 4 f 10.8
       hydro 3 p 5.8
       hydro 1 s 0.8
       hydro 5 g 16
       hydro 3 d 4.9
  #  "Third tier" - improvements: -4.29 meV to -0.53 meV
  #     hydro 3 s 16
  #     ionic 2 p auto
  #     hydro 3 d 6.6
  #     hydro 4 f 11.6
  #  "Fourth tier" - improvements: -0.75 meV to -0.25 meV
  #     hydro 2 p 4.5
  #     hydro 2 s 2.4
  #     hydro 5 g 14.4
  #     hydro 4 d 14.4
  #     hydro 4 f 16.8
  # Further basis functions - -0.21 meV and below
  #     hydro 3 p 14.8
  #     hydro 3 s 4.4
  #     hydro 3 d 19.6
  #     hydro 5 g 12.8
  
  -----------------------------------------------------------------------
  Completed first pass over input file control.in .
  -----------------------------------------------------------------------
  
  
  -----------------------------------------------------------------------
  Parsing geometry.in (first pass over file, find array dimensions only).
  The contents of geometry.in will be repeated verbatim below
  unless switched off by setting 'verbatim_writeout .false.' .
  in the first line of geometry.in .
  -----------------------------------------------------------------------
  
  #=======================================#
  # iterations/iteration0000/aims-chain-node-0.00000/geometry.in
  #=======================================#
  atom 0.0000000000000000 0.0000000000000000 0.0000000000000000 N
  atom 0.8170175400000000 -0.4716929000000000 0.3905516100000000 H
  atom -0.8170175400000000 -0.4716929000000000 0.3905516100000000 H
  atom 0.0000000000000000 0.9434083000000000 0.3905516100000000 H
  
  -----------------------------------------------------------------------
  Completed first pass over input file geometry.in .
  -----------------------------------------------------------------------
  

  Basic array size parameters:
  | Number of species                 :        2
  | Number of atoms                   :        4
  | Max. basis fn. angular momentum   :        4
  | Max. atomic/ionic basis occupied n:        2
  | Max. number of basis fn. types    :        2
  | Max. radial fns per species/type  :        8
  | Max. logarithmic grid size        :     1290
  | Max. radial integration grid size :       71
  | Max. angular integration grid size:      434
  | Max. angular grid division number :        8
  | Radial grid for Hartree potential :     1290
  | Number of spin channels           :        1

------------------------------------------------------------
          Reading file control.in.
------------------------------------------------------------
  XC: Using PBE gradient-corrected functionals.
  Charge =   0.000000E+00: Neutral system requested explicitly.
  Scalar relativistic treatment of kinetic energy: on-site free-atom approximation to ZORA.
  Convergence accuracy of self-consistent charge density:  0.1000E-04
  Convergence accuracy of sum of eigenvalues:  0.1000E-02
  Convergence accuracy of total energy:  0.1000E-05
  Maximum number of s.-c. iterations  :  1000
  Forces will be computed.
  Cleaning forces before final output.
 
  Reading configuration options for species H                   .
  | Found nuclear charge :   1.0000
  | Found atomic mass :    1.00794000000000      amu
  | Found l_max for Hartree potential  :   6
  | Found cutoff potl. onset [A], width [A], scale factor :    4.00000    2.00000    1.00000
  | Threshold for basis-dependent cutoff potential is   0.100000E-03
  | Found data for basic radial integration grid :    24 points, outermost radius =    7.000 A
  | Found multiplier for basic radial grid :   2
  | Found angular grid specification: user-specified.
  | Specified grid contains     6 separate shells.
  | Check grid settings after all constraints further below.
  | Found free-atom valence shell :  1 s   1.000
  | No ionic wave fns used. Skipping ion_occ.
  | Found hydrogenic basis function :  2 s   2.100
  | Found hydrogenic basis function :  2 p   3.500
  | Found hydrogenic basis function :  1 s   0.850
  | Found hydrogenic basis function :  2 p   3.700
  | Found hydrogenic basis function :  2 s   1.200
  | Found hydrogenic basis function :  3 d   7.000
  Species H                   : Missing cutoff potential type.
  Defaulting to exp(1/x)/(1-x)^2 type cutoff potential.
  Species H : No 'logarithmic' tag. Using default grid for free atom:
  | Default logarithmic grid data [bohr] : 0.1000E-03 0.1000E+03 0.1012E+01
  Species H : On-site basis accuracy parameter (for Gram-Schmidt orthonormalisation) not specified.
  Using default value basis_acc =  0.1000000E-03.
  Species H                   : Using default innermost maximum threshold i_radial=  2 for radial functions.
  Species H                   : Default cutoff onset for free atom density etc. : 0.40000000E+01 AA.
  Species H                   : Basic radial grid will be enhanced according to radial_multiplier =   2, to contain    49 grid points.
 
  Reading configuration options for species N                   .
  | Found nuclear charge :   7.0000
  | Found atomic mass :    14.0067000000000      amu
  | Found l_max for Hartree potential  :   6
  | Found cutoff potl. onset [A], width [A], scale factor :    4.00000    2.00000    1.00000
  | Threshold for basis-dependent cutoff potential is   0.100000E-03
  | Found data for basic radial integration grid :    35 points, outermost radius =    7.000 A
  | Found multiplier for basic radial grid :   2
  | Found angular grid specification: user-specified.
  | Specified grid contains     6 separate shells.
  | Check grid settings after all constraints further below.
  | Found free-atom valence shell :  2 s   2.000
  | Found free-atom valence shell :  2 p   3.000
  | No ionic wave fns used. Skipping ion_occ.
  | No ionic wave fns used. Skipping ion_occ.
  | Found hydrogenic basis function :  2 p   1.800
  | Found hydrogenic basis function :  3 d   6.800
  | Found hydrogenic basis function :  3 s   5.800
  | Found hydrogenic basis function :  4 f  10.800
  | Found hydrogenic basis function :  3 p   5.800
  | Found hydrogenic basis function :  1 s   0.800
  | Found hydrogenic basis function :  5 g  16.000
  | Found hydrogenic basis function :  3 d   4.900
  Species N                   : Missing cutoff potential type.
  Defaulting to exp(1/x)/(1-x)^2 type cutoff potential.
  Species N : No 'logarithmic' tag. Using default grid for free atom:
  | Default logarithmic grid data [bohr] : 0.1000E-03 0.1000E+03 0.1012E+01
  Species N : On-site basis accuracy parameter (for Gram-Schmidt orthonormalisation) not specified.
  Using default value basis_acc =  0.1000000E-03.
  Species N                   : Using default innermost maximum threshold i_radial=  2 for radial functions.
  Species N                   : Default cutoff onset for free atom density etc. : 0.40000000E+01 AA.
  Species N                   : Basic radial grid will be enhanced according to radial_multiplier =   2, to contain    71 grid points.
 
  Finished reading input file 'control.in'. Consistency checks are next.
 
  MPI_IN_PLACE appears to work with this MPI implementation.
  | Keeping use_mpi_in_place .true. (see manual).
  Target number of points in a grid batch is not set. Defaulting to  100
  Method for grid partitioning is not set. Defaulting to parallel hash+maxmin partitioning.
  Batch size limit is not set. Defaulting to    200
  By default, will store active basis functions for each batch.
  If in need of memory, prune_basis_once .false. can be used to disable this option.
  communication_type for Hartree potential was not specified.
  Defaulting to calc_hartree .
  Defaulting to Pulay charge density mixer.
  Pulay mixer: Number of relevant iterations not set.
  Defaulting to    8 iterations.
  Pulay mixer: Number of initial linear mixing iterations not set.
  Defaulting to    0 iterations.
  Work space size for distributed Hartree potential not set.
  Defaulting to   0.200000E+03 MB.
  Mixing parameter for charge density mixing has not been set.
  Using default: charge_mix_param =     0.0500.
  The mixing parameter will be adjusted in iteration number     2 of the first full s.c.f. cycle only.
  Algorithm-dependent basis array size parameters:
  | n_max_pulay                         :        8
  Presetting        40 iterations before the initial mixing cycle
  is restarted anyway using the sc_init_iter criterion / keyword.
  Presetting a factor      1.000 between actual scf density residual
  and density convergence criterion sc_accuracy_rho below which sc_init_iter
  takes no effect.
  Geometry relaxation not requested: no relaxation will be performed.
  Force calculation: scf convergence accuracy of forces not set.
  Defaulting to 'sc_accuracy_forces not_checked'.
  Handling of forces: Unphysical translation and rotation will be removed from forces.
  No accuracy limit for integral partition fn. given. Defaulting to  0.1000E-14.
  No threshold value for u(r) in integrations given. Defaulting to  0.1000E-05.
  No occupation type (smearing scheme) given. Defaulting to Gaussian broadening, width =  0.1000E-01 eV.
  The width will be adjusted in iteration number     2 of the first full s.c.f. cycle only.
  S.C.F. convergence parameters will be adjusted in iteration number     2 of the first full s.c.f. cycle only.
  No accuracy for occupation numbers given. Defaulting to  0.1000E-12.
  No threshold value for occupation numbers given. Defaulting to  0.0000E+00.
  No accuracy for fermi level given. Defaulting to  0.1000E-19.
  Maximum # of iterations to find E_F not set. Defaulting to  200.
  Preferred method for the eigenvalue solver ('KS_method') not specified in 'control.in'.
  Calling BLACS routine to test compilation state
  The best choice would be 'elsi', but your version of FHI-aims is compiled without ScaLAPACK support.
  Defaulting to 'lapack_fast' instead (serial solution, time will not improve with more CPUs).
  Will not use alltoall communication since running on < 1024 CPUs.
  Threshold for basis singularities not set.
  Default threshold for basis singularities:  0.1000E-04
  partition_type (choice of integration weights) for integrals was not specified.
  | Using a version of the partition function of Stratmann and coworkers ('stratmann_smoother').
  | At each grid point, the set of atoms used to build the partition table is smoothly restricted to
  | only those atoms whose free-atom density would be non-zero at that grid point.
  Partitioning for Hartree potential was not defined. Using partition_type for integrals.
  | Adjusted default value of keyword multip_moments_threshold to:       0.10000000E-11
  | This value may affect high angular momentum components of the Hartree potential in periodic systems.
  Spin handling was not defined in control.in. Defaulting to unpolarized case.
  No q(lm)/r^(l+1) cutoff set for long-range Hartree potential.
  | Using default value of  0.100000E-09 .
  | Verify using the multipole_threshold keyword.
  Defaulting to new monopole extrapolation.
  Density update method: automatic selection selected.
------------------------------------------------------------


------------------------------------------------------------
          Reading geometry description geometry.in.
------------------------------------------------------------
  Input structure read successfully.
  The structure contains        4 atoms,  and a total of         10.000 electrons.

  Input geometry:
  | No unit cell requested.
  | Atomic structure:
  |       Atom                x [A]            y [A]            z [A]
  |    1: Species N             0.00000000        0.00000000        0.00000000
  |    2: Species H             0.81701754       -0.47169290        0.39055161
  |    3: Species H            -0.81701754       -0.47169290        0.39055161
  |    4: Species H             0.00000000        0.94340830        0.39055161
  |

  | The smallest distance between any two atoms is         1.02104966 AA.
  |
  | The first atom of this pair is atom number                      1 .
  | The second atom of this pair is atom number                     2 .

  Number of empty states per atom not set in control.in - providing a guess from actual geometry.
  | Total number of empty states used during s.c.f. cycle:        8
  If you use a very high smearing, use empty_states (per atom!) in control.in to increase this value.

  Structure-dependent array size parameters: 
  | Maximum number of distinct radial functions  :       18
  | Maximum number of basis functions            :       84
  | Number of Kohn-Sham states (occupied + empty):       13
------------------------------------------------------------

------------------------------------------------------------
          Preparing all fixed parts of the calculation.
------------------------------------------------------------
  Determining machine precision:
    2.225073858507201E-308
  Setting up grids for atomic and cluster calculations.

  Creating wave function, potential, and density for free atoms.

  Species: H

  List of occupied orbitals and eigenvalues:
    n    l              occ      energy [Ha]    energy [eV]
    1    0           1.0000        -0.238386        -6.4868


  Species: N

  List of occupied orbitals and eigenvalues:
    n    l              occ      energy [Ha]    energy [eV]
    1    0           2.0000       -14.144983      -384.9046
    2    0           2.0000        -0.682735       -18.5782
    2    1           3.0000        -0.260361        -7.0848

  Creating fixed part of basis set: Ionic, confined, hydrogenic.
 
  H                    hydrogenic:
 
  List of hydrogenic basis orbitals: 
    n    l      effective z      eigenvalue [eV]  inner max. [A]     outer max. [A]     outer radius [A]   
    2    0         2.100000       -14.9965           0.193243           1.317208           5.373006
    2    1         3.500000       -41.6672           0.602369           0.602369           4.056063
    1    0         0.850000        -9.8292           0.624871           0.624871           5.373006
    2    1         3.700000       -46.5653           0.573622           0.573622           3.910002
    2    0         1.200000        -4.5995           0.334980           2.228188           5.505995
    3    2         7.000000       -74.0753           0.680699           0.680699           3.769201
 
 
  N                    hydrogenic:
 
  List of hydrogenic basis orbitals: 
    n    l      effective z      eigenvalue [eV]  inner max. [A]     outer max. [A]     outer radius [A]   
    2    1         1.800000       -11.0118           1.177451           1.177451           5.427479
    3    2         6.800000       -69.9029           0.704619           0.704619           3.854246
    3    0         5.800000       -50.8549           0.067388           1.191934           4.629968
    4    3        10.800000       -99.1854           0.786571           0.786571           3.761152
    3    1         5.800000       -50.8549           0.274880           1.094176           4.518138
    1    0         0.800000        -8.7059           0.662839           0.662839           5.361532
    5    4        16.000000      -139.3222           0.825990           0.825990           3.625711
    3    2         4.900000       -36.2967           0.968267           0.968267           4.862000
 

  Adding cutoff potential to free-atom effective potential.
  Creating atomic-like basis functions for current effective potential.

  Species H                   :

  List of atomic basis orbitals and eigenvalues:
    n    l      energy [Ha]    energy [eV]    outer radius [A]
    1    0        -0.238386        -6.4868       5.373006


  Species N                   :

  List of atomic basis orbitals and eigenvalues:
    n    l      energy [Ha]    energy [eV]    outer radius [A]
    1    0       -14.144983      -384.9046       1.637919
    2    0        -0.682735       -18.5782       5.168461
    2    1        -0.260361        -7.0848       5.361532

  Assembling full basis from fixed parts.
  | Species H :   atomic orbital   1 s accepted.
  | Species H :    hydro orbital   2 s accepted.
  | Species H :    hydro orbital   1 s accepted.
  | Species H :    hydro orbital   2 s accepted.
  | Species H :    hydro orbital   2 p accepted.
  | Species H :    hydro orbital   2 p accepted.
  | Species H :    hydro orbital   3 d accepted.
  | Species N :   atomic orbital   1 s accepted.
  | Species N :    hydro orbital   3 s accepted.
  | Species N :   atomic orbital   2 s accepted.
  | Species N :    hydro orbital   1 s accepted.
  | Species N :    hydro orbital   3 p accepted.
  | Species N :   atomic orbital   2 p accepted.
  | Species N :    hydro orbital   2 p accepted.
  | Species N :    hydro orbital   3 d accepted.
  | Species N :    hydro orbital   3 d accepted.
  | Species N :    hydro orbital   4 f accepted.
  | Species N :    hydro orbital   5 g accepted.
 
  Basis size parameters after reduction:
  | Total number of radial functions:       18
  | Total number of basis functions :       84
 
  Per-task memory consumption for arrays in subroutine allocate_ext:
  |           5.947464MB.
  Testing on-site integration grid accuracy.
  |  Species  Function  <phi|h_atom|phi> (log., in eV)  <phi|h_atom|phi> (rad., in eV)
           1        1                 -6.4870767962                 -6.4871688290
           1        2                 13.5032046589                 13.5028982997
           1        3                 32.8195184817                 32.8119941656
           1        4                 33.8513856511                 33.7670005767 ***
           1        5                 28.8544614965                 28.8544615203
           1        6                 59.6326952547                 59.6327656460
           1        7                 60.2719308513                 60.2719305949
           2        8               -384.9045837915               -384.9045810047
           2        9                 12.5603464973                 12.5603454944
           2       10                -15.7898975011                -15.7898975786
           2       11                 26.9245114620                 26.9252865209
           2       12                 18.5932197354                 18.5932205971
           2       13                  1.2241635029                  1.2241662160
           2       14                 13.4399987723                 13.4405112378
           2       15                 35.9434723763                 35.9434722968
           2       16                 39.9236994472                 39.9237117157
           2       17                 72.9994981058                 72.9994982098
           2       18                116.4255814536                116.4255814825
 * Note: Onsite integrals marked "***" above are less accurate than
 * onsite_accuracy_threshold =    0.03000 eV. Usually, this is harmless.
 * When in doubt, tighten the "radial" and/or "radial_multiplier" flags to check.

  Preparing densities etc. for the partition functions (integrals / Hartree potential).

  Preparations completed.
  max(cpu_time)          :      0.216 s.
  Wall clock time (cpu1) :      0.218 s.
------------------------------------------------------------

------------------------------------------------------------
          Begin self-consistency loop: Initialization.

          Date     :  20180214, Time     :  142350.093
------------------------------------------------------------

  Initializing index lists of integration centers etc. from given atomic structure:
  | Number of centers in hartree potential         :         4
  | Number of centers in hartree multipole         :         4
  | Number of centers in electron density summation:         4
  | Number of centers in basis integrals           :         4
  | Number of centers in integrals                 :         4
  | Number of centers in hamiltonian               :         4
  Partitioning the integration grid into batches with parallel hashing+maxmin method.
  | Number of batches:      808
  | Maximal batch size:     200
  | Minimal batch size:      49
  | Average batch size:      77.975
  | Standard deviation of batch sizes:      22.633

  Integration load balanced across     8 MPI tasks.
  Work distribution over tasks is as follows:
  Task     0 has       7862 integration points.
  Task     1 has       7841 integration points.
  Task     2 has       7835 integration points.
  Task     3 has       7859 integration points.
  Task     4 has       7941 integration points.
  Task     5 has       7976 integration points.
  Task     6 has       7845 integration points.
  Task     7 has       7845 integration points.
  Initializing partition tables, free-atom densities, potentials, etc. across the integration grid (initialize_grid_storage).
  | initialize_grid_storage: Actual outermost partition radius vs. multipole_radius_free
  | (-- VB: in principle, multipole_radius_free should be larger, hence this output)
  | Species        1: Confinement radius =              6.000000000000000 AA, multipole_radius_free =              6.071692442739658 AA.
  | Species        1: outer_partition_radius set to              6.071692442739658 AA .
  | Species        2: Confinement radius =              6.000000000000000 AA, multipole_radius_free =              6.058726835495003 AA.
  | Species        2: outer_partition_radius set to              6.058726835495003 AA .
  | Original list of interatomic distances with           4 x          4 entries is created.
  | Net number of integration points:    63004
  | of which are non-zero points    :    54777
  Renormalizing the initial density to the exact electron count on the 3D integration grid.
  | Initial density: Formal number of electrons (from input files) :      10.0000000000
  | Integrated number of electrons on 3D grid     :       9.9999994884
  | Charge integration error                      :      -0.0000005116
  | Normalization factor for density and gradient :       1.0000000512
  Obtaining max. number of non-zero basis functions in each batch (get_n_compute_maxes).
  | Maximal number of non-zero basis functions:       84 in task     0
  | Maximal number of non-zero basis functions:       84 in task     1
  | Maximal number of non-zero basis functions:       84 in task     2
  | Maximal number of non-zero basis functions:       84 in task     3
  | Maximal number of non-zero basis functions:       84 in task     4
  | Maximal number of non-zero basis functions:       84 in task     5
  | Maximal number of non-zero basis functions:       84 in task     6
  | Maximal number of non-zero basis functions:       84 in task     7
  Selecting the method for density update.
  Loop over occupied states selected for charge density update.
  Allocating        0.009 MB for KS_eigenvector
  Integrating Hamiltonian matrix: batch-based integration.
  Time summed over all CPUs for integration: real work        0.981 s, elapsed        1.016 s
  Integrating overlap matrix.
  Time summed over all CPUs for integration: real work        0.348 s, elapsed        0.384 s

  Updating Kohn-Sham eigenvalues, eigenvectors, occupation numbers, and Fermi level.
  Solving generalized eigenproblem
  Updating Kohn-Sham eigenvalues and eigenfunctions.
  Transforming overlap matrix and checking for singularities.
  Overlap matrix is nonsingular:
  | Lowest eigenvalue:  0.149431E-03
  Solving real generalised eigenvalue problem by standard LAPACK (fast)

  Obtaining occupation numbers and chemical potential using ELSI.
  | Chemical potential (Fermi level):    -6.62190332eV
  Writing Kohn-Sham eigenvalues.

  State    Occupation    Eigenvalue [Ha]    Eigenvalue [eV]
      1       2.00000         -14.278578         -388.53989
      2       2.00000          -0.974228          -26.51009
      3       2.00000          -0.590658          -16.07262
      4       2.00000          -0.590654          -16.07251
      5       2.00000          -0.421594          -11.47216
      6       0.00000          -0.065538           -1.78339
      7       0.00000          -0.001462           -0.03979
      8       0.00000          -0.001462           -0.03977
      9       0.00000           0.078621            2.13939
     10       0.00000           0.078624            2.13946
     11       0.00000           0.103273            2.81019
     12       0.00000           0.129835            3.53300
     13       0.00000           0.209399            5.69803

  Highest occupied state (VBM) at    -11.47216319 eV
  | Occupation number:      2.00000000

  Lowest unoccupied state (CBM) at    -1.78339290 eV
  | Occupation number:      0.00000000

  Overall HOMO-LUMO gap:      9.68877029 eV.
  Calculating total energy contributions from superposition of free atom densities.

  Total energy components:
  | Sum of eigenvalues            :         -33.71142441 Ha        -917.33453162 eV
  | XC energy correction          :          -7.66582870 Ha        -208.59781234 eV
  | XC potential correction       :           9.85096578 Ha         268.05841763 eV
  | Free-atom electrostatic energy:         -25.15072741 Ha        -684.38611409 eV
  | Hartree energy correction     :           0.00000000 Ha           0.00000000 eV
  | vdW energy correction         :           0.00000000 Ha           0.00000000 eV
  | Entropy correction            :           0.00000000 Ha           0.00000000 eV
  | ---------------------------
  | Total energy                  :         -56.67701474 Ha       -1542.26004042 eV
  | Total energy, T -> 0          :         -56.67701474 Ha       -1542.26004042 eV  <-- do not rely on this value for anything but (periodic) metals
  | Electronic free energy        :         -56.67701474 Ha       -1542.26004042 eV

  Derived energy quantities:
  | Kinetic energy                :          55.54378025 Ha        1511.42316093 eV
  | Electrostatic energy          :        -104.55496629 Ha       -2845.08538902 eV
  | Energy correction for multipole
  | error in Hartree potential    :           0.00000000 Ha           0.00000000 eV
  | Sum of eigenvalues per atom                           :        -229.33363290 eV
  | Total energy (T->0) per atom                          :        -385.56501010 eV  <-- do not rely on this value for anything but (periodic) metals
  | Electronic free energy per atom                       :        -385.56501010 eV
  Initialize hartree_potential_storage
  Max. number of atoms included in rho_multipole:            4

  End scf initialization - timings             :  max(cpu_time)    wall_clock(cpu1)
  | Time for scf. initialization               :        0.324 s           0.325 s
  | Boundary condition initialization          :        0.000 s           0.000 s
  | Integration                                :        0.196 s           0.194 s
  | Solution of K.-S. eqns.                    :        0.008 s           0.008 s
  | Grid partitioning                          :        0.060 s           0.060 s
  | Preloading free-atom quantities on grid    :        0.016 s           0.020 s
  | Free-atom superposition energy             :        0.012 s           0.012 s
  | Total energy evaluation                    :        0.000 s           0.000 s

  Partial memory accounting:
  | Current value for overall tracked memory usage on task 0  :           0.123 MB
  | Peak value for overall tracked memory usage on task 0     :           0.528 MB after allocating wave
  | Largest tracked array allocation on task 0 so far         :           0.134 MB  when allocating H_times_psi
  Note:  These values currently only include a subset of arrays which are explicitly tracked.
  The "true" memory usage will be greater.
------------------------------------------------------------

------------------------------------------------------------
          Begin self-consistency iteration #    1

  Date     :  20180214, Time     :  142350.418
------------------------------------------------------------
  Evaluating new KS density.
  Integration grid: deviation in total charge (<rho> - N_e) =   3.552714E-15
  Pulay mixing of updated and previous charge densities.

  Evaluating partitioned Hartree potential by multipole expansion.
  | Analytical far-field extrapolation by fixed multipoles:
  | Hartree multipole sum: apparent total charge =  -0.680418E-06
  Summing up the Hartree potential.
  Time summed over all CPUs for potential: real work        0.654 s, elapsed        0.672 s
  | RMS charge density error from multipole expansion :   0.197015E-03

  Integrating Hamiltonian matrix: batch-based integration.
  Time summed over all CPUs for integration: real work        0.972 s, elapsed        1.009 s

  Updating Kohn-Sham eigenvalues, eigenvectors, occupation numbers, and Fermi level.
  Solving generalized eigenproblem
  Updating Kohn-Sham eigenvalues and eigenfunctions.
  Solving real generalised eigenvalue problem by standard LAPACK (fast)

  Obtaining occupation numbers and chemical potential using ELSI.
  | Chemical potential (Fermi level):    -6.45175688eV
  Writing Kohn-Sham eigenvalues.

  State    Occupation    Eigenvalue [Ha]    Eigenvalue [eV]
      1       2.00000         -14.234243         -387.33345
      2       2.00000          -0.952814          -25.92739
      3       2.00000          -0.571407          -15.54878
      4       2.00000          -0.571403          -15.54867
      5       2.00000          -0.399068          -10.85920
      6       0.00000          -0.060887           -1.65681
      7       0.00000           0.003510            0.09552
      8       0.00000           0.003511            0.09554
      9       0.00000           0.083587            2.27452
     10       0.00000           0.083590            2.27460
     11       0.00000           0.109273            2.97347
     12       0.00000           0.134327            3.65522
     13       0.00000           0.214423            5.83475

  Highest occupied state (VBM) at    -10.85919565 eV
  | Occupation number:      2.00000000

  Lowest unoccupied state (CBM) at    -1.65681025 eV
  | Occupation number:      0.00000000

  Overall HOMO-LUMO gap:      9.20238540 eV.

  Total energy components:
  | Sum of eigenvalues            :         -33.45787049 Ha        -910.43497836 eV
  | XC energy correction          :          -7.69437290 Ha        -209.37453950 eV
  | XC potential correction       :           9.88819989 Ha         269.07160929 eV
  | Free-atom electrostatic energy:         -25.15072741 Ha        -684.38611409 eV
  | Hartree energy correction     :          -0.23715574 Ha          -6.45333589 eV
  | vdW energy correction         :           0.00000000 Ha           0.00000000 eV
  | Entropy correction            :           0.00000000 Ha           0.00000000 eV
  | ---------------------------
  | Total energy                  :         -56.65192664 Ha       -1541.57735855 eV
  | Total energy, T -> 0          :         -56.65192664 Ha       -1541.57735855 eV  <-- do not rely on this value for anything but (periodic) metals
  | Electronic free energy        :         -56.65192664 Ha       -1541.57735855 eV

  Derived energy quantities:
  | Kinetic energy                :          55.71480371 Ha        1516.07694600 eV
  | Electrostatic energy          :        -104.67235745 Ha       -2848.27976506 eV
  | Energy correction for multipole
  | error in Hartree potential    :          -0.00026412 Ha          -0.00718700 eV
  | Sum of eigenvalues per atom                           :        -227.60874459 eV
  | Total energy (T->0) per atom                          :        -385.39433964 eV  <-- do not rely on this value for anything but (periodic) metals
  | Electronic free energy per atom                       :        -385.39433964 eV

  Self-consistency convergence accuracy:
  | Change of charge density      :  0.3434E+00
  | Change of sum of eigenvalues  :  0.6900E+01 eV
  | Change of total energy        :  0.6827E+00 eV

  End self-consistency iteration #     1       :  max(cpu_time)    wall_clock(cpu1)
  | Time for this iteration                    :        0.388 s           0.386 s
  | Charge density update                      :        0.136 s           0.135 s
  | Density mixing                             :        0.004 s           0.001 s
  | Hartree multipole update                   :        0.016 s           0.013 s
  | Hartree multipole summation                :        0.096 s           0.094 s
  | Integration                                :        0.140 s           0.140 s
  | Solution of K.-S. eqns.                    :        0.004 s           0.002 s
  | Total energy evaluation                    :        0.000 s           0.000 s

  Partial memory accounting:
  | Current value for overall tracked memory usage on task 0  :           0.123 MB
  | Peak value for overall tracked memory usage on task 0     :           0.661 MB after allocating gradient_basis_wave
  | Largest tracked array allocation on task 0 so far         :           0.403 MB  when allocating gradient_basis_wave
  Note:  These values currently only include a subset of arrays which are explicitly tracked.
  The "true" memory usage will be greater.
------------------------------------------------------------

------------------------------------------------------------
          Begin self-consistency iteration #    2

  Date     :  20180214, Time     :  142350.805
------------------------------------------------------------
  Evaluating new KS density.
  Integration grid: deviation in total charge (<rho> - N_e) =  -1.776357E-15
  Pulay mixing of updated and previous charge densities.

  Evaluating partitioned Hartree potential by multipole expansion.
  | Analytical far-field extrapolation by fixed multipoles:
  | Hartree multipole sum: apparent total charge =  -0.125318E-05
  Summing up the Hartree potential.
  Time summed over all CPUs for potential: real work        0.688 s, elapsed        0.713 s
  | RMS charge density error from multipole expansion :   0.142469E-02

  Integrating Hamiltonian matrix: batch-based integration.
  Time summed over all CPUs for integration: real work        0.979 s, elapsed        1.015 s

  Updating Kohn-Sham eigenvalues, eigenvectors, occupation numbers, and Fermi level.
  Solving generalized eigenproblem
  Updating Kohn-Sham eigenvalues and eigenfunctions.
  Solving real generalised eigenvalue problem by standard LAPACK (fast)

  Obtaining occupation numbers and chemical potential using ELSI.
  | Chemical potential (Fermi level):    -5.36868757eV
  Highest occupied state (VBM) at     -7.35027727 eV
  | Occupation number:      2.00000000

  Lowest unoccupied state (CBM) at    -0.94524268 eV
  | Occupation number:      0.00000000

  Overall HOMO-LUMO gap:      6.40503459 eV.

  Checking to see if s.c.f. parameters should be adjusted.
  The system likely has a gap. Increased the default Pulay mixing parameter (charge_mix_param). Value:   0.200000 .
  Kept the default occupation width. Value:   0.010000 eV.

  Total energy components:
  | Sum of eigenvalues            :         -31.98948146 Ha        -870.47807993 eV
  | XC energy correction          :          -7.87187597 Ha        -214.20464363 eV
  | XC potential correction       :          10.11967786 Ha         275.37044519 eV
  | Free-atom electrostatic energy:         -25.15072741 Ha        -684.38611409 eV
  | Hartree energy correction     :          -1.68039825 Ha         -45.72596277 eV
  | vdW energy correction         :           0.00000000 Ha           0.00000000 eV
  | Entropy correction            :           0.00000000 Ha           0.00000000 eV
  | ---------------------------
  | Total energy                  :         -56.57280522 Ha       -1539.42435522 eV
  | Total energy, T -> 0          :         -56.57280522 Ha       -1539.42435522 eV  <-- do not rely on this value for anything but (periodic) metals
  | Electronic free energy        :         -56.57280522 Ha       -1539.42435522 eV

  Derived energy quantities:
  | Kinetic energy                :          56.60520906 Ha        1540.30610832 eV
  | Electrostatic energy          :        -105.30613832 Ha       -2865.52581992 eV
  | Energy correction for multipole
  | error in Hartree potential    :          -0.00182598 Ha          -0.04968736 eV
  | Sum of eigenvalues per atom                           :        -217.61951998 eV
  | Total energy (T->0) per atom                          :        -384.85608881 eV  <-- do not rely on this value for anything but (periodic) metals
  | Electronic free energy per atom                       :        -384.85608881 eV

  Self-consistency convergence accuracy:
  | Change of charge density      :  0.3034E+00
  | Change of sum of eigenvalues  :  0.3996E+02 eV
  | Change of total energy        :  0.2153E+01 eV

  End self-consistency iteration #     2       :  max(cpu_time)    wall_clock(cpu1)
  | Time for this iteration                    :        0.384 s           0.386 s
  | Charge density update                      :        0.128 s           0.126 s
  | Density mixing                             :        0.004 s           0.003 s
  | Hartree multipole update                   :        0.016 s           0.014 s
  | Hartree multipole summation                :        0.096 s           0.100 s
  | Integration                                :        0.144 s           0.140 s
  | Solution of K.-S. eqns.                    :        0.004 s           0.002 s
  | Total energy evaluation                    :        0.000 s           0.001 s

  Partial memory accounting:
  | Current value for overall tracked memory usage on task 0  :           0.124 MB
  | Peak value for overall tracked memory usage on task 0     :           0.661 MB after allocating gradient_basis_wave
  | Largest tracked array allocation on task 0 so far         :           0.403 MB  when allocating gradient_basis_wave
  Note:  These values currently only include a subset of arrays which are explicitly tracked.
  The "true" memory usage will be greater.
------------------------------------------------------------

------------------------------------------------------------
          Begin self-consistency iteration #    3

  Date     :  20180214, Time     :  142351.192
------------------------------------------------------------
  Evaluating new KS density.
  Integration grid: deviation in total charge (<rho> - N_e) =  -3.552714E-15
  Pulay mixing of updated and previous charge densities.

  Evaluating partitioned Hartree potential by multipole expansion.
  | Analytical far-field extrapolation by fixed multipoles:
  | Hartree multipole sum: apparent total charge =  -0.569178E-06
  Summing up the Hartree potential.
  Time summed over all CPUs for potential: real work        0.664 s, elapsed        0.689 s
  | RMS charge density error from multipole expansion :   0.213289E-02

  Integrating Hamiltonian matrix: batch-based integration.
  Time summed over all CPUs for integration: real work        0.974 s, elapsed        1.031 s

  Updating Kohn-Sham eigenvalues, eigenvectors, occupation numbers, and Fermi level.
  Solving generalized eigenproblem
  Updating Kohn-Sham eigenvalues and eigenfunctions.
  Solving real generalised eigenvalue problem by standard LAPACK (fast)

  Obtaining occupation numbers and chemical potential using ELSI.
  | Chemical potential (Fermi level):    -5.41022872eV
  Highest occupied state (VBM) at     -7.58236624 eV
  | Occupation number:      2.00000000

  Lowest unoccupied state (CBM) at    -0.89945107 eV
  | Occupation number:      0.00000000

  Overall HOMO-LUMO gap:      6.68291517 eV.

  Total energy components:
  | Sum of eigenvalues            :         -32.13100529 Ha        -874.32913932 eV
  | XC energy correction          :          -7.86230615 Ha        -213.94423561 eV
  | XC potential correction       :          10.10616645 Ha         275.00278102 eV
  | Free-atom electrostatic energy:         -25.15072741 Ha        -684.38611409 eV
  | Hartree energy correction     :          -1.53508921 Ha         -41.77190266 eV
  | vdW energy correction         :           0.00000000 Ha           0.00000000 eV
  | Entropy correction            :           0.00000000 Ha           0.00000000 eV
  | ---------------------------
  | Total energy                  :         -56.57296161 Ha       -1539.42861065 eV
  | Total energy, T -> 0          :         -56.57296161 Ha       -1539.42861065 eV  <-- do not rely on this value for anything but (periodic) metals
  | Electronic free energy        :         -56.57296161 Ha       -1539.42861065 eV

  Derived energy quantities:
  | Kinetic energy                :          56.34564113 Ha        1533.24290565 eV
  | Electrostatic energy          :        -105.05629659 Ha       -2858.72728069 eV
  | Energy correction for multipole
  | error in Hartree potential    :          -0.00156939 Ha          -0.04270539 eV
  | Sum of eigenvalues per atom                           :        -218.58228483 eV
  | Total energy (T->0) per atom                          :        -384.85715266 eV  <-- do not rely on this value for anything but (periodic) metals
  | Electronic free energy per atom                       :        -384.85715266 eV

  Self-consistency convergence accuracy:
  | Change of charge density      :  0.1385E+00
  | Change of sum of eigenvalues  : -0.3851E+01 eV
  | Change of total energy        : -0.4255E-02 eV

  End self-consistency iteration #     3       :  max(cpu_time)    wall_clock(cpu1)
  | Time for this iteration                    :        0.376 s           0.375 s
  | Charge density update                      :        0.116 s           0.116 s
  | Density mixing                             :        0.004 s           0.004 s
  | Hartree multipole update                   :        0.016 s           0.013 s
  | Hartree multipole summation                :        0.096 s           0.096 s
  | Integration                                :        0.144 s           0.143 s
  | Solution of K.-S. eqns.                    :        0.004 s           0.002 s
  | Total energy evaluation                    :        0.000 s           0.001 s

  Partial memory accounting:
  | Current value for overall tracked memory usage on task 0  :           0.124 MB
  | Peak value for overall tracked memory usage on task 0     :           0.661 MB after allocating gradient_basis_wave
  | Largest tracked array allocation on task 0 so far         :           0.403 MB  when allocating gradient_basis_wave
  Note:  These values currently only include a subset of arrays which are explicitly tracked.
  The "true" memory usage will be greater.
------------------------------------------------------------

------------------------------------------------------------
          Begin self-consistency iteration #    4

  Date     :  20180214, Time     :  142351.568
------------------------------------------------------------
  Evaluating new KS density.
  Integration grid: deviation in total charge (<rho> - N_e) =  -1.243450E-14
  Pulay mixing of updated and previous charge densities.

  Evaluating partitioned Hartree potential by multipole expansion.
  | Analytical far-field extrapolation by fixed multipoles:
  | Hartree multipole sum: apparent total charge =  -0.210353E-06
  Summing up the Hartree potential.
  Time summed over all CPUs for potential: real work        0.666 s, elapsed        0.689 s
  | RMS charge density error from multipole expansion :   0.341493E-02

  Integrating Hamiltonian matrix: batch-based integration.
  Time summed over all CPUs for integration: real work        0.980 s, elapsed        1.031 s

  Updating Kohn-Sham eigenvalues, eigenvectors, occupation numbers, and Fermi level.
  Solving generalized eigenproblem
  Updating Kohn-Sham eigenvalues and eigenfunctions.
  Solving real generalised eigenvalue problem by standard LAPACK (fast)

  Obtaining occupation numbers and chemical potential using ELSI.
  | Chemical potential (Fermi level):    -5.00879829eV
  Highest occupied state (VBM) at     -6.55568531 eV
  | Occupation number:      2.00000000

  Lowest unoccupied state (CBM) at    -0.58841585 eV
  | Occupation number:      0.00000000

  Overall HOMO-LUMO gap:      5.96726946 eV.

  Total energy components:
  | Sum of eigenvalues            :         -31.74221072 Ha        -863.74950090 eV
  | XC energy correction          :          -7.92477688 Ha        -215.64415078 eV
  | XC potential correction       :          10.18678737 Ha         277.19658795 eV
  | Free-atom electrostatic energy:         -25.15072741 Ha        -684.38611409 eV
  | Hartree energy correction     :          -1.93501038 Ha         -52.65431156 eV
  | vdW energy correction         :           0.00000000 Ha           0.00000000 eV
  | Entropy correction            :           0.00000000 Ha           0.00000000 eV
  | ---------------------------
  | Total energy                  :         -56.56593803 Ha       -1539.23748938 eV
  | Total energy, T -> 0          :         -56.56593803 Ha       -1539.23748938 eV  <-- do not rely on this value for anything but (periodic) metals
  | Electronic free energy        :         -56.56593803 Ha       -1539.23748938 eV

  Derived energy quantities:
  | Kinetic energy                :          56.37280996 Ha        1533.98220728 eV
  | Electrostatic energy          :        -105.01397112 Ha       -2857.57554589 eV
  | Energy correction for multipole
  | error in Hartree potential    :          -0.00187828 Ha          -0.05111067 eV
  | Sum of eigenvalues per atom                           :        -215.93737523 eV
  | Total energy (T->0) per atom                          :        -384.80937235 eV  <-- do not rely on this value for anything but (periodic) metals
  | Electronic free energy per atom                       :        -384.80937235 eV

  Self-consistency convergence accuracy:
  | Change of charge density      :  0.9403E-01
  | Change of sum of eigenvalues  :  0.1058E+02 eV
  | Change of total energy        :  0.1911E+00 eV

  End self-consistency iteration #     4       :  max(cpu_time)    wall_clock(cpu1)
  | Time for this iteration                    :        0.376 s           0.375 s
  | Charge density update                      :        0.116 s           0.115 s
  | Density mixing                             :        0.008 s           0.006 s
  | Hartree multipole update                   :        0.016 s           0.013 s
  | Hartree multipole summation                :        0.096 s           0.096 s
  | Integration                                :        0.144 s           0.143 s
  | Solution of K.-S. eqns.                    :        0.004 s           0.001 s
  | Total energy evaluation                    :        0.000 s           0.001 s

  Partial memory accounting:
  | Current value for overall tracked memory usage on task 0  :           0.124 MB
  | Peak value for overall tracked memory usage on task 0     :           0.661 MB after allocating gradient_basis_wave
  | Largest tracked array allocation on task 0 so far         :           0.403 MB  when allocating gradient_basis_wave
  Note:  These values currently only include a subset of arrays which are explicitly tracked.
  The "true" memory usage will be greater.
------------------------------------------------------------

------------------------------------------------------------
          Begin self-consistency iteration #    5

  Date     :  20180214, Time     :  142351.944
------------------------------------------------------------
  Evaluating new KS density.
  Integration grid: deviation in total charge (<rho> - N_e) =  -1.776357E-15
  Pulay mixing of updated and previous charge densities.

  Evaluating partitioned Hartree potential by multipole expansion.
  | Analytical far-field extrapolation by fixed multipoles:
  | Hartree multipole sum: apparent total charge =  -0.260703E-06
  Summing up the Hartree potential.
  Time summed over all CPUs for potential: real work        0.669 s, elapsed        0.692 s
  | RMS charge density error from multipole expansion :   0.342396E-02

  Integrating Hamiltonian matrix: batch-based integration.
  Time summed over all CPUs for integration: real work        0.977 s, elapsed        1.008 s

  Updating Kohn-Sham eigenvalues, eigenvectors, occupation numbers, and Fermi level.
  Solving generalized eigenproblem
  Updating Kohn-Sham eigenvalues and eigenfunctions.
  Solving real generalised eigenvalue problem by standard LAPACK (fast)

  Obtaining occupation numbers and chemical potential using ELSI.
  | Chemical potential (Fermi level):    -4.97184587eV
  Highest occupied state (VBM) at     -6.44525702 eV
  | Occupation number:      2.00000000

  Lowest unoccupied state (CBM) at    -0.56148747 eV
  | Occupation number:      0.00000000

  Overall HOMO-LUMO gap:      5.88376954 eV.

  Total energy components:
  | Sum of eigenvalues            :         -31.70986366 Ha        -862.86929259 eV
  | XC energy correction          :          -7.92926788 Ha        -215.76635719 eV
  | XC potential correction       :          10.19270968 Ha         277.35774225 eV
  | Free-atom electrostatic energy:         -25.15072741 Ha        -684.38611409 eV
  | Hartree energy correction     :          -1.96852217 Ha         -53.56621371 eV
  | vdW energy correction         :           0.00000000 Ha           0.00000000 eV
  | Entropy correction            :           0.00000000 Ha           0.00000000 eV
  | ---------------------------
  | Total energy                  :         -56.56567145 Ha       -1539.23023534 eV
  | Total energy, T -> 0          :         -56.56567145 Ha       -1539.23023534 eV  <-- do not rely on this value for anything but (periodic) metals
  | Electronic free energy        :         -56.56567145 Ha       -1539.23023534 eV

  Derived energy quantities:
  | Kinetic energy                :          56.36836310 Ha        1533.86120205 eV
  | Electrostatic energy          :        -105.00476667 Ha       -2857.32508020 eV
  | Energy correction for multipole
  | error in Hartree potential    :          -0.00189670 Ha          -0.05161174 eV
  | Sum of eigenvalues per atom                           :        -215.71732315 eV
  | Total energy (T->0) per atom                          :        -384.80755883 eV  <-- do not rely on this value for anything but (periodic) metals
  | Electronic free energy per atom                       :        -384.80755883 eV

  Self-consistency convergence accuracy:
  | Change of charge density      :  0.2152E-01
  | Change of sum of eigenvalues  :  0.8802E+00 eV
  | Change of total energy        :  0.7254E-02 eV

  End self-consistency iteration #     5       :  max(cpu_time)    wall_clock(cpu1)
  | Time for this iteration                    :        0.376 s           0.374 s
  | Charge density update                      :        0.116 s           0.115 s
  | Density mixing                             :        0.008 s           0.007 s
  | Hartree multipole update                   :        0.012 s           0.013 s
  | Hartree multipole summation                :        0.096 s           0.096 s
  | Integration                                :        0.140 s           0.140 s
  | Solution of K.-S. eqns.                    :        0.004 s           0.001 s
  | Total energy evaluation                    :        0.000 s           0.001 s

  Partial memory accounting:
  | Current value for overall tracked memory usage on task 0  :           0.124 MB
  | Peak value for overall tracked memory usage on task 0     :           0.661 MB after allocating gradient_basis_wave
  | Largest tracked array allocation on task 0 so far         :           0.403 MB  when allocating gradient_basis_wave
  Note:  These values currently only include a subset of arrays which are explicitly tracked.
  The "true" memory usage will be greater.
------------------------------------------------------------

------------------------------------------------------------
          Begin self-consistency iteration #    6

  Date     :  20180214, Time     :  142352.319
------------------------------------------------------------
  Evaluating new KS density.
  Integration grid: deviation in total charge (<rho> - N_e) =   3.552714E-15
  Pulay mixing of updated and previous charge densities.

  Evaluating partitioned Hartree potential by multipole expansion.
  | Analytical far-field extrapolation by fixed multipoles:
  | Hartree multipole sum: apparent total charge =  -0.286777E-06
  Summing up the Hartree potential.
  Time summed over all CPUs for potential: real work        0.680 s, elapsed        0.760 s
  | RMS charge density error from multipole expansion :   0.350718E-02

  Integrating Hamiltonian matrix: batch-based integration.
  Time summed over all CPUs for integration: real work        0.977 s, elapsed        1.015 s

  Updating Kohn-Sham eigenvalues, eigenvectors, occupation numbers, and Fermi level.
  Solving generalized eigenproblem
  Updating Kohn-Sham eigenvalues and eigenfunctions.
  Solving real generalised eigenvalue problem by standard LAPACK (fast)

  Obtaining occupation numbers and chemical potential using ELSI.
  | Chemical potential (Fermi level):    -4.90954359eV
  Highest occupied state (VBM) at     -6.27958850 eV
  | Occupation number:      2.00000000

  Lowest unoccupied state (CBM) at    -0.51233285 eV
  | Occupation number:      0.00000000

  Overall HOMO-LUMO gap:      5.76725564 eV.

  Total energy components:
  | Sum of eigenvalues            :         -31.65734974 Ha        -861.44031605 eV
  | XC energy correction          :          -7.93738889 Ha        -215.98734100 eV
  | XC potential correction       :          10.20333174 Ha         277.64678325 eV
  | Free-atom electrostatic energy:         -25.15072741 Ha        -684.38611409 eV
  | Hartree energy correction     :          -2.02331052 Ha         -55.05708044 eV
  | vdW energy correction         :           0.00000000 Ha           0.00000000 eV
  | Entropy correction            :           0.00000000 Ha           0.00000000 eV
  | ---------------------------
  | Total energy                  :         -56.56544482 Ha       -1539.22406834 eV
  | Total energy, T -> 0          :         -56.56544482 Ha       -1539.22406834 eV  <-- do not rely on this value for anything but (periodic) metals
  | Electronic free energy        :         -56.56544482 Ha       -1539.22406834 eV

  Derived energy quantities:
  | Kinetic energy                :          56.36226437 Ha        1533.69524696 eV
  | Electrostatic energy          :        -104.99032029 Ha       -2856.93197430 eV
  | Energy correction for multipole
  | error in Hartree potential    :          -0.00192617 Ha          -0.05241379 eV
  | Sum of eigenvalues per atom                           :        -215.36007901 eV
  | Total energy (T->0) per atom                          :        -384.80601709 eV  <-- do not rely on this value for anything but (periodic) metals
  | Electronic free energy per atom                       :        -384.80601709 eV

  Self-consistency convergence accuracy:
  | Change of charge density      :  0.1545E-01
  | Change of sum of eigenvalues  :  0.1429E+01 eV
  | Change of total energy        :  0.6167E-02 eV

  End self-consistency iteration #     6       :  max(cpu_time)    wall_clock(cpu1)
  | Time for this iteration                    :        0.388 s           0.386 s
  | Charge density update                      :        0.116 s           0.115 s
  | Density mixing                             :        0.012 s           0.009 s
  | Hartree multipole update                   :        0.016 s           0.012 s
  | Hartree multipole summation                :        0.108 s           0.106 s
  | Integration                                :        0.144 s           0.141 s
  | Solution of K.-S. eqns.                    :        0.004 s           0.002 s
  | Total energy evaluation                    :        0.000 s           0.001 s

  Partial memory accounting:
  | Current value for overall tracked memory usage on task 0  :           0.124 MB
  | Peak value for overall tracked memory usage on task 0     :           0.661 MB after allocating gradient_basis_wave
  | Largest tracked array allocation on task 0 so far         :           0.403 MB  when allocating gradient_basis_wave
  Note:  These values currently only include a subset of arrays which are explicitly tracked.
  The "true" memory usage will be greater.
------------------------------------------------------------

------------------------------------------------------------
          Begin self-consistency iteration #    7

  Date     :  20180214, Time     :  142352.706
------------------------------------------------------------
  Evaluating new KS density.
  Integration grid: deviation in total charge (<rho> - N_e) =  -5.329071E-15
  Pulay mixing of updated and previous charge densities.

  Evaluating partitioned Hartree potential by multipole expansion.
  | Analytical far-field extrapolation by fixed multipoles:
  | Hartree multipole sum: apparent total charge =  -0.307029E-06
  Summing up the Hartree potential.
  Time summed over all CPUs for potential: real work        0.675 s, elapsed        0.713 s
  | RMS charge density error from multipole expansion :   0.354916E-02

  Integrating Hamiltonian matrix: batch-based integration.
  Time summed over all CPUs for integration: real work        0.977 s, elapsed        1.009 s

  Updating Kohn-Sham eigenvalues, eigenvectors, occupation numbers, and Fermi level.
  Solving generalized eigenproblem
  Updating Kohn-Sham eigenvalues and eigenfunctions.
  Solving real generalised eigenvalue problem by standard LAPACK (fast)

  Obtaining occupation numbers and chemical potential using ELSI.
  | Chemical potential (Fermi level):    -4.86593108eV
  Highest occupied state (VBM) at     -6.16779505 eV
  | Occupation number:      2.00000000

  Lowest unoccupied state (CBM) at    -0.47521795 eV
  | Occupation number:      0.00000000

  Overall HOMO-LUMO gap:      5.69257710 eV.

  Total energy components:
  | Sum of eigenvalues            :         -31.61896776 Ha        -860.39588923 eV
  | XC energy correction          :          -7.94340532 Ha        -216.15105651 eV
  | XC potential correction       :          10.21120818 Ha         277.86111194 eV
  | Free-atom electrostatic energy:         -25.15072741 Ha        -684.38611409 eV
  | Hartree energy correction     :          -2.06351266 Ha         -56.15103648 eV
  | vdW energy correction         :           0.00000000 Ha           0.00000000 eV
  | Entropy correction            :           0.00000000 Ha           0.00000000 eV
  | ---------------------------
  | Total energy                  :         -56.56540498 Ha       -1539.22298437 eV
  | Total energy, T -> 0          :         -56.56540498 Ha       -1539.22298437 eV  <-- do not rely on this value for anything but (periodic) metals
  | Electronic free energy        :         -56.56540498 Ha       -1539.22298437 eV

  Derived energy quantities:
  | Kinetic energy                :          56.36440307 Ha        1533.75344414 eV
  | Electrostatic energy          :        -104.98640273 Ha       -2856.82537201 eV
  | Energy correction for multipole
  | error in Hartree potential    :          -0.00194318 Ha          -0.05287675 eV
  | Sum of eigenvalues per atom                           :        -215.09897231 eV
  | Total energy (T->0) per atom                          :        -384.80574609 eV  <-- do not rely on this value for anything but (periodic) metals
  | Electronic free energy per atom                       :        -384.80574609 eV

  Self-consistency convergence accuracy:
  | Change of charge density      :  0.6191E-02
  | Change of sum of eigenvalues  :  0.1044E+01 eV
  | Change of total energy        :  0.1084E-02 eV

  End self-consistency iteration #     7       :  max(cpu_time)    wall_clock(cpu1)
  | Time for this iteration                    :        0.392 s           0.389 s
  | Charge density update                      :        0.120 s           0.116 s
  | Density mixing                             :        0.012 s           0.011 s
  | Hartree multipole update                   :        0.020 s           0.020 s
  | Hartree multipole summation                :        0.100 s           0.100 s
  | Integration                                :        0.140 s           0.139 s
  | Solution of K.-S. eqns.                    :        0.004 s           0.002 s
  | Total energy evaluation                    :        0.000 s           0.001 s

  Partial memory accounting:
  | Current value for overall tracked memory usage on task 0  :           0.124 MB
  | Peak value for overall tracked memory usage on task 0     :           0.661 MB after allocating gradient_basis_wave
  | Largest tracked array allocation on task 0 so far         :           0.403 MB  when allocating gradient_basis_wave
  Note:  These values currently only include a subset of arrays which are explicitly tracked.
  The "true" memory usage will be greater.
------------------------------------------------------------

------------------------------------------------------------
          Begin self-consistency iteration #    8

  Date     :  20180214, Time     :  142353.096
------------------------------------------------------------
  Evaluating new KS density.
  Integration grid: deviation in total charge (<rho> - N_e) =   0.000000E+00
  Pulay mixing of updated and previous charge densities.

  Evaluating partitioned Hartree potential by multipole expansion.
  | Analytical far-field extrapolation by fixed multipoles:
  | Hartree multipole sum: apparent total charge =  -0.302266E-06
  Summing up the Hartree potential.
  Time summed over all CPUs for potential: real work        0.689 s, elapsed        0.719 s
  | RMS charge density error from multipole expansion :   0.354826E-02

  Integrating Hamiltonian matrix: batch-based integration.
  Time summed over all CPUs for integration: real work        0.996 s, elapsed        1.105 s

  Updating Kohn-Sham eigenvalues, eigenvectors, occupation numbers, and Fermi level.
  Solving generalized eigenproblem
  Updating Kohn-Sham eigenvalues and eigenfunctions.
  Solving real generalised eigenvalue problem by standard LAPACK (fast)

  Obtaining occupation numbers and chemical potential using ELSI.
  | Chemical potential (Fermi level):    -4.86868230eV
  Highest occupied state (VBM) at     -6.17484548 eV
  | Occupation number:      2.00000000

  Lowest unoccupied state (CBM) at    -0.47756640 eV
  | Occupation number:      0.00000000

  Overall HOMO-LUMO gap:      5.69727908 eV.

  Total energy components:
  | Sum of eigenvalues            :         -31.62090218 Ha        -860.44852758 eV
  | XC energy correction          :          -7.94317172 Ha        -216.14469972 eV
  | XC potential correction       :          10.21089525 Ha         277.85259666 eV
  | Free-atom electrostatic energy:         -25.15072741 Ha        -684.38611409 eV
  | Hartree energy correction     :          -2.06149857 Ha         -56.09623026 eV
  | vdW energy correction         :           0.00000000 Ha           0.00000000 eV
  | Entropy correction            :           0.00000000 Ha           0.00000000 eV
  | ---------------------------
  | Total energy                  :         -56.56540464 Ha       -1539.22297499 eV
  | Total energy, T -> 0          :         -56.56540464 Ha       -1539.22297499 eV  <-- do not rely on this value for anything but (periodic) metals
  | Electronic free energy        :         -56.56540464 Ha       -1539.22297499 eV

  Derived energy quantities:
  | Kinetic energy                :          56.36587022 Ha        1533.79336721 eV
  | Electrostatic energy          :        -104.98810314 Ha       -2856.87164248 eV
  | Energy correction for multipole
  | error in Hartree potential    :          -0.00194392 Ha          -0.05289677 eV
  | Sum of eigenvalues per atom                           :        -215.11213189 eV
  | Total energy (T->0) per atom                          :        -384.80574375 eV  <-- do not rely on this value for anything but (periodic) metals
  | Electronic free energy per atom                       :        -384.80574375 eV

  Self-consistency convergence accuracy:
  | Change of charge density      :  0.4914E-03
  | Change of sum of eigenvalues  : -0.5264E-01 eV
  | Change of total energy        :  0.9385E-05 eV

  End self-consistency iteration #     8       :  max(cpu_time)    wall_clock(cpu1)
  | Time for this iteration                    :        0.408 s           0.406 s
  | Charge density update                      :        0.124 s           0.123 s
  | Density mixing                             :        0.012 s           0.013 s
  | Hartree multipole update                   :        0.012 s           0.013 s
  | Hartree multipole summation                :        0.100 s           0.101 s
  | Integration                                :        0.152 s           0.153 s
  | Solution of K.-S. eqns.                    :        0.004 s           0.001 s
  | Total energy evaluation                    :        0.000 s           0.001 s

  Partial memory accounting:
  | Current value for overall tracked memory usage on task 0  :           0.124 MB
  | Peak value for overall tracked memory usage on task 0     :           0.661 MB after allocating gradient_basis_wave
  | Largest tracked array allocation on task 0 so far         :           0.403 MB  when allocating gradient_basis_wave
  Note:  These values currently only include a subset of arrays which are explicitly tracked.
  The "true" memory usage will be greater.
------------------------------------------------------------

------------------------------------------------------------
          Begin self-consistency iteration #    9

  Date     :  20180214, Time     :  142353.503
------------------------------------------------------------
  Evaluating new KS density.
  Integration grid: deviation in total charge (<rho> - N_e) =  -8.881784E-15
  Pulay mixing of updated and previous charge densities.

  Evaluating partitioned Hartree potential by multipole expansion.
  | Analytical far-field extrapolation by fixed multipoles:
  | Hartree multipole sum: apparent total charge =  -0.300892E-06
  Summing up the Hartree potential.
  Time summed over all CPUs for potential: real work        0.665 s, elapsed        0.690 s
  | RMS charge density error from multipole expansion :   0.354912E-02

  Integrating Hamiltonian matrix: batch-based integration.
  Time summed over all CPUs for integration: real work        0.979 s, elapsed        1.035 s

  Updating Kohn-Sham eigenvalues, eigenvectors, occupation numbers, and Fermi level.
  Solving generalized eigenproblem
  Updating Kohn-Sham eigenvalues and eigenfunctions.
  Solving real generalised eigenvalue problem by standard LAPACK (fast)

  Obtaining occupation numbers and chemical potential using ELSI.
  | Chemical potential (Fermi level):    -4.86892856eV
  Highest occupied state (VBM) at     -6.17557854 eV
  | Occupation number:      2.00000000

  Lowest unoccupied state (CBM) at    -0.47766912 eV
  | Occupation number:      0.00000000

  Overall HOMO-LUMO gap:      5.69790942 eV.

  Total energy components:
  | Sum of eigenvalues            :         -31.62110112 Ha        -860.45394096 eV
  | XC energy correction          :          -7.94317730 Ha        -216.14485168 eV
  | XC potential correction       :          10.21090002 Ha         277.85272656 eV
  | Free-atom electrostatic energy:         -25.15072741 Ha        -684.38611409 eV
  | Hartree energy correction     :          -2.06129880 Ha         -56.09079432 eV
  | vdW energy correction         :           0.00000000 Ha           0.00000000 eV
  | Entropy correction            :           0.00000000 Ha           0.00000000 eV
  | ---------------------------
  | Total energy                  :         -56.56540462 Ha       -1539.22297449 eV
  | Total energy, T -> 0          :         -56.56540462 Ha       -1539.22297449 eV  <-- do not rely on this value for anything but (periodic) metals
  | Electronic free energy        :         -56.56540462 Ha       -1539.22297449 eV

  Derived energy quantities:
  | Kinetic energy                :          56.36607074 Ha        1533.79882368 eV
  | Electrostatic energy          :        -104.98829806 Ha       -2856.87694650 eV
  | Energy correction for multipole
  | error in Hartree potential    :          -0.00194407 Ha          -0.05290084 eV
  | Sum of eigenvalues per atom                           :        -215.11348524 eV
  | Total energy (T->0) per atom                          :        -384.80574362 eV  <-- do not rely on this value for anything but (periodic) metals
  | Electronic free energy per atom                       :        -384.80574362 eV

  Self-consistency convergence accuracy:
  | Change of charge density      :  0.8709E-04
  | Change of sum of eigenvalues  : -0.5413E-02 eV
  | Change of total energy        :  0.4929E-06 eV

  End self-consistency iteration #     9       :  max(cpu_time)    wall_clock(cpu1)
  | Time for this iteration                    :        0.388 s           0.387 s
  | Charge density update                      :        0.120 s           0.119 s
  | Density mixing                             :        0.016 s           0.013 s
  | Hartree multipole update                   :        0.016 s           0.012 s
  | Hartree multipole summation                :        0.100 s           0.097 s
  | Integration                                :        0.144 s           0.143 s
  | Solution of K.-S. eqns.                    :        0.004 s           0.002 s
  | Total energy evaluation                    :        0.000 s           0.001 s

  Partial memory accounting:
  | Current value for overall tracked memory usage on task 0  :           0.124 MB
  | Peak value for overall tracked memory usage on task 0     :           0.661 MB after allocating gradient_basis_wave
  | Largest tracked array allocation on task 0 so far         :           0.403 MB  when allocating gradient_basis_wave
  Note:  These values currently only include a subset of arrays which are explicitly tracked.
  The "true" memory usage will be greater.
------------------------------------------------------------

------------------------------------------------------------
          Begin self-consistency iteration #   10

  Date     :  20180214, Time     :  142353.891
------------------------------------------------------------
  Evaluating new KS density.
  Integration grid: deviation in total charge (<rho> - N_e) =  -7.105427E-15
  Pulay mixing of updated and previous charge densities.

  Evaluating partitioned Hartree potential by multipole expansion.
  | Analytical far-field extrapolation by fixed multipoles:
  | Hartree multipole sum: apparent total charge =  -0.301124E-06
  Summing up the Hartree potential.
  Time summed over all CPUs for potential: real work        0.667 s, elapsed        0.692 s
  | RMS charge density error from multipole expansion :   0.354910E-02

  Integrating Hamiltonian matrix: batch-based integration.
  Time summed over all CPUs for integration: real work        0.974 s, elapsed        1.006 s

  Updating Kohn-Sham eigenvalues, eigenvectors, occupation numbers, and Fermi level.
  Solving generalized eigenproblem
  Updating Kohn-Sham eigenvalues and eigenfunctions.
  Solving real generalised eigenvalue problem by standard LAPACK (fast)

  Obtaining occupation numbers and chemical potential using ELSI.
  | Chemical potential (Fermi level):    -4.86886461eV
  Highest occupied state (VBM) at     -6.17525280 eV
  | Occupation number:      2.00000000

  Lowest unoccupied state (CBM) at    -0.47766269 eV
  | Occupation number:      0.00000000

  Overall HOMO-LUMO gap:      5.69759011 eV.

  Total energy components:
  | Sum of eigenvalues            :         -31.62099645 Ha        -860.45109265 eV
  | XC energy correction          :          -7.94318776 Ha        -216.14513642 eV
  | XC potential correction       :          10.21091396 Ha         277.85310589 eV
  | Free-atom electrostatic energy:         -25.15072741 Ha        -684.38611409 eV
  | Hartree energy correction     :          -2.06140696 Ha         -56.09373727 eV
  | vdW energy correction         :           0.00000000 Ha           0.00000000 eV
  | Entropy correction            :           0.00000000 Ha           0.00000000 eV
  | ---------------------------
  | Total energy                  :         -56.56540462 Ha       -1539.22297454 eV
  | Total energy, T -> 0          :         -56.56540462 Ha       -1539.22297454 eV  <-- do not rely on this value for anything but (periodic) metals
  | Electronic free energy        :         -56.56540462 Ha       -1539.22297454 eV

  Derived energy quantities:
  | Kinetic energy                :          56.36606030 Ha        1533.79853951 eV
[...]
  | Electronic free energy        :         -56.56540462 Ha       -1539.22297454 eV

  Derived energy quantities:
  | Kinetic energy                :          56.36605020 Ha        1533.79826475 eV
  | Electrostatic energy          :        -104.98826608 Ha       -2856.87607629 eV
  | Energy correction for multipole
  | error in Hartree potential    :          -0.00194424 Ha          -0.05290554 eV
  | Sum of eigenvalues per atom                           :        -215.11277531 eV
  | Total energy (T->0) per atom                          :        -384.80574363 eV  <-- do not rely on this value for anything but (periodic) metals
  | Electronic free energy per atom                       :        -384.80574363 eV

  atomic forces [eV/Ang]:
  -----------------------
  atom #    1
   Hellmann-Feynman              : -0.318419E-11 -0.595321E-04 -0.115006E+02
   Ionic forces                  :  0.000000E+00  0.000000E+00  0.000000E+00
   Multipole                     :  0.143912E-12  0.941470E-04  0.258260E-02
   Pulay + GGA                   : -0.124456E-11 -0.261631E-03  0.114992E+02
   Van der Waals                 :  0.000000E+00  0.000000E+00  0.000000E+00
   ----------------------------------------------------------------
   Total forces(   1)            : -0.428484E-11 -0.227016E-03  0.120536E-02
  atom #    2
   Hellmann-Feynman              : -0.503516E-01  0.289827E-01 -0.438306E-01
   Ionic forces                  :  0.000000E+00  0.000000E+00  0.000000E+00
   Multipole                     : -0.453211E-02  0.261464E-02 -0.317968E-03
   Pulay + GGA                   :  0.550435E-01 -0.317827E-01  0.452027E-01
   Van der Waals                 :  0.000000E+00  0.000000E+00  0.000000E+00
   ----------------------------------------------------------------
   Total forces(   2)            :  0.159803E-03 -0.185383E-03  0.105415E-02
  atom #    3
   Hellmann-Feynman              :  0.503516E-01  0.289827E-01 -0.438306E-01
   Ionic forces                  :  0.000000E+00  0.000000E+00  0.000000E+00
   Multipole                     :  0.453211E-02  0.261464E-02 -0.317968E-03
   Pulay + GGA                   : -0.550435E-01 -0.317827E-01  0.452027E-01
   Van der Waals                 :  0.000000E+00  0.000000E+00  0.000000E+00
   ----------------------------------------------------------------
   Total forces(   3)            : -0.159803E-03 -0.185383E-03  0.105415E-02
  atom #    4
   Hellmann-Feynman              : -0.865270E-14 -0.581814E-01 -0.439150E-01
   Ionic forces                  :  0.000000E+00  0.000000E+00  0.000000E+00
   Multipole                     : -0.349843E-15 -0.523325E-02 -0.323418E-03
   Pulay + GGA                   :  0.918792E-14  0.635584E-01  0.451979E-01
   Van der Waals                 :  0.000000E+00  0.000000E+00  0.000000E+00
   ----------------------------------------------------------------
   Total forces(   4)            :  0.185375E-15  0.143812E-03  0.959441E-03


  Self-consistency convergence accuracy:
  | Change of charge density      :  0.1357E-05
  | Change of sum of eigenvalues  :  0.1122E-03 eV
  | Change of total energy        : -0.2961E-08 eV
  | Change of forces              :  0.5749E+01 eV/A

  Writing Kohn-Sham eigenvalues.

  State    Occupation    Eigenvalue [Ha]    Eigenvalue [eV]
      1       2.00000         -13.982540         -380.48427
      2       2.00000          -0.776391          -21.12666
      3       2.00000          -0.412318          -11.21974
      4       2.00000          -0.412314          -11.21963
      5       2.00000          -0.226936           -6.17525
      6       0.00000          -0.017553           -0.47765
      7       0.00000           0.043487            1.18335
      8       0.00000           0.043488            1.18336
      9       0.00000           0.140600            3.82591
     10       0.00000           0.140602            3.82599
     11       0.00000           0.164820            4.48499
     12       0.00000           0.187203            5.09407
     13       0.00000           0.266350            7.24776

  Highest occupied state (VBM) at     -6.17524981 eV
  | Occupation number:      2.00000000

  Lowest unoccupied state (CBM) at    -0.47765402 eV
  | Occupation number:      0.00000000

  Overall HOMO-LUMO gap:      5.69759579 eV.

  Self-consistency cycle converged.

  End self-consistency iteration #    12       :  max(cpu_time)    wall_clock(cpu1)
  | Time for this iteration                    :        1.064 s           1.069 s
  | Charge density & force component update    :        0.560 s           0.565 s
  | Density mixing                             :        0.016 s           0.013 s
  | Hartree multipole update                   :        0.012 s           0.012 s
  | Hartree multipole summation                :        0.332 s           0.334 s
  | Integration                                :        0.140 s           0.140 s
  | Solution of K.-S. eqns.                    :        0.004 s           0.001 s
  | Total energy evaluation                    :        0.000 s           0.002 s

  Partial memory accounting:
  | Current value for overall tracked memory usage on task 0  :           0.124 MB
  | Peak value for overall tracked memory usage on task 0     :           1.602 MB after allocating hessian_basis_wave
  | Largest tracked array allocation on task 0 so far         :           0.806 MB  when allocating hessian_basis_wave
  Note:  These values currently only include a subset of arrays which are explicitly tracked.
  The "true" memory usage will be greater.
------------------------------------------------------------
  Obtaining max. number of non-zero basis functions in each batch .
  Evaluating KS electron density on previously omitted grid points.
  Evaluating non-empirical van der Waals correction (Tkatchenko/Scheffler 2009).
  Performing Hirshfeld analysis of fragment charges and moments.
  ----------------------------------------------------------------------
  | Atom     1: N
  |   Hirshfeld charge        :     -0.29230427
  |   Free atom volume        :     29.90025371
  |   Hirshfeld volume        :     25.66636393
  |   Hirshfeld dipole vector :     -0.00000000      -0.00000037       0.08705291
  |   Hirshfeld dipole moment :      0.08705291
  |   Hirshfeld second moments:      0.11325594       0.00000000       0.00000000
  |                                  0.00000000       0.11325769      -0.00000022
  |                                  0.00000000      -0.00000022      -0.04721166
  ----------------------------------------------------------------------
  | Atom     2: H
  |   Hirshfeld charge        :      0.09743782
  |   Free atom volume        :     10.31539447
  |   Hirshfeld volume        :      6.24542570
  |   Hirshfeld dipole vector :      0.08962396      -0.05174250       0.03833037
  |   Hirshfeld dipole moment :      0.11035832
  |   Hirshfeld second moments:      0.11691706       0.01004654      -0.00554128
  |                                  0.01004654       0.12851685       0.00319863
  |                                 -0.00554128       0.00319863       0.08198585
  ----------------------------------------------------------------------
  | Atom     3: H
  |   Hirshfeld charge        :      0.09743782
  |   Free atom volume        :     10.31539447
  |   Hirshfeld volume        :      6.24542570
  |   Hirshfeld dipole vector :     -0.08962396      -0.05174250       0.03833037
  |   Hirshfeld dipole moment :      0.11035832
  |   Hirshfeld second moments:      0.11691706      -0.01004654       0.00554128
  |                                 -0.01004654       0.12851685       0.00319863
  |                                  0.00554128       0.00319863       0.08198585
  ----------------------------------------------------------------------
  | Atom     4: H
  |   Hirshfeld charge        :      0.09743254
  |   Free atom volume        :     10.31539447
  |   Hirshfeld volume        :      6.24549221
  |   Hirshfeld dipole vector :      0.00000000       0.10349225       0.03833234
  |   Hirshfeld dipole moment :      0.11036310
  |   Hirshfeld second moments:      0.13431709       0.00000000       0.00000000
  |                                  0.00000000       0.11111032      -0.00639974
  |                                  0.00000000      -0.00639974       0.08198466
  ----------------------------------------------------------------------


  Total energy components:
  | Sum of eigenvalues            :         -31.62099677 Ha        -860.45110125 eV
  | XC energy correction          :          -7.94318874 Ha        -216.14516300 eV
  | XC potential correction       :          10.21091518 Ha         277.85313900 eV
  | Free-atom electrostatic energy:         -25.15072741 Ha        -684.38611409 eV
  | Hartree energy correction     :          -2.06140688 Ha         -56.09373520 eV
  | vdW energy correction         :          -0.00000560 Ha          -0.00015227 eV
  | Entropy correction            :           0.00000000 Ha           0.00000000 eV
  | ---------------------------
  | Total energy                  :         -56.56541022 Ha       -1539.22312681 eV
  | Total energy, T -> 0          :         -56.56541022 Ha       -1539.22312681 eV  <-- do not rely on this value for anything but (periodic) metals
  | Electronic free energy        :         -56.56541022 Ha       -1539.22312681 eV

  Derived energy quantities:
  | Kinetic energy                :          56.36605020 Ha        1533.79826475 eV
  | Electrostatic energy          :        -104.98826608 Ha       -2856.87607629 eV
  | Energy correction for multipole
  | error in Hartree potential    :          -0.00194424 Ha          -0.05290554 eV
  | Sum of eigenvalues per atom                           :        -215.11277531 eV
  | Total energy (T->0) per atom                          :        -384.80578170 eV  <-- do not rely on this value for anything but (periodic) metals
  | Electronic free energy per atom                       :        -384.80578170 eV

  atomic forces [eV/Ang]:
  -----------------------
  atom #    1
   Hellmann-Feynman              : -0.318419E-11 -0.595321E-04 -0.115006E+02
   Ionic forces                  :  0.000000E+00  0.000000E+00  0.000000E+00
   Multipole                     :  0.143912E-12  0.941470E-04  0.258260E-02
   Pulay + GGA                   : -0.124456E-11 -0.261631E-03  0.114992E+02
   Van der Waals                 :  0.000000E+00 -0.264977E-09 -0.101262E-04
   ----------------------------------------------------------------
   Total forces(   1)            : -0.428484E-11 -0.227017E-03  0.119524E-02
  atom #    2
   Hellmann-Feynman              : -0.503516E-01  0.289827E-01 -0.438306E-01
   Ionic forces                  :  0.000000E+00  0.000000E+00  0.000000E+00
   Multipole                     : -0.453211E-02  0.261464E-02 -0.317968E-03
   Pulay + GGA                   :  0.550435E-01 -0.317827E-01  0.452027E-01
   Van der Waals                 :  0.260971E-03 -0.150664E-03  0.337539E-05
   ----------------------------------------------------------------
   Total forces(   2)            :  0.420774E-03 -0.336047E-03  0.105752E-02
  atom #    3
   Hellmann-Feynman              :  0.503516E-01  0.289827E-01 -0.438306E-01
   Ionic forces                  :  0.000000E+00  0.000000E+00  0.000000E+00
   Multipole                     :  0.453211E-02  0.261464E-02 -0.317968E-03
   Pulay + GGA                   : -0.550435E-01 -0.317827E-01  0.452027E-01
   Van der Waals                 : -0.260971E-03 -0.150664E-03  0.337539E-05
   ----------------------------------------------------------------
   Total forces(   3)            : -0.420774E-03 -0.336047E-03  0.105752E-02
  atom #    4
   Hellmann-Feynman              : -0.865270E-14 -0.581814E-01 -0.439150E-01
   Ionic forces                  :  0.000000E+00  0.000000E+00  0.000000E+00
   Multipole                     : -0.349843E-15 -0.523325E-02 -0.323418E-03
   Pulay + GGA                   :  0.918792E-14  0.635584E-01  0.451979E-01
   Van der Waals                 :  0.000000E+00  0.301328E-03  0.337542E-05
   ----------------------------------------------------------------
   Total forces(   4)            :  0.185375E-15  0.445140E-03  0.962816E-03

  Timings for VdW correction (Tkatchenko-Scheffler 2009 or later):
  | CPU time:        0.024 s, Wall clock time:        0.023 s.
  Removing unitary transformations (pure translations, rotations) from forces on atoms.
  Atomic forces before filtering:
  | Net force on center of mass :  -0.425743E-11 -0.453970E-03  0.427310E-02 eV/A
  | Net torque on center of mass:  -0.133684E-03  0.127069E-11  0.100213E-13 eV
  Atomic forces after filtering:
  | Net force on center of mass :   0.490763E-19  0.871124E-19  0.174225E-18 eV/A
  | Net torque on center of mass:  -0.345734E-19  0.427267E-19  0.107989E-18 eV

  Energy and forces in a compact form:
  | Total energy uncorrected      :         -0.153922312680671E+04 eV
  | Total energy corrected        :         -0.153922312680671E+04 eV  <-- do not rely on this value for anything but (periodic) metals
  | Electronic free energy        :         -0.153922312680671E+04 eV
  Total atomic forces (unitary forces cleaned) [eV/Ang]:
  |   1         -0.296369230483877E-11         -0.865073704307338E-04          0.126960842338265E-03
  |   2          0.420774035600901E-03         -0.231559979140099E-03         -0.542581347647488E-04
  |   3         -0.420774033619695E-03         -0.231559979130754E-03         -0.542581361814561E-04
  |   4          0.982486059133375E-12          0.549627328701586E-03         -0.184445713920597E-04

  ------------------------------------ 
  Start decomposition of the XC Energy 
  ------------------------------------ 
  X and C from original XC functional choice 
  Hartree-Fock Energy :          0.000000000 Ha              0.000000000 eV
  X Energy            :         -7.629603386 Ha           -207.612071332 eV
  C Energy            :         -0.313585355 Ha             -8.533091665 eV
  Total XC Energy     :         -7.943188741 Ha           -216.145162997 eV
  ------------------------------------ 
  LDA X and C from self-consistent density 
  X Energy LDA        :         -6.907652280 Ha           -187.966782174 eV
  C Energy LDA        :         -0.622788728 Ha            -16.946943540 eV
  ------------------------------------ 
  End decomposition of the XC Energy 
  ------------------------------------ 

------------------------------------------------------------

------------------------------------------------------------------------------
  Final output of selected total energy values:

  The following output summarizes some interesting total energy values
  at the end of a run (AFTER all relaxation, molecular dynamics, etc.).

  | Total energy of the DFT / Hartree-Fock s.c.f. calculation      :          -1539.223126807 eV
  | Final zero-broadening corrected energy (caution - metals only) :          -1539.223126807 eV
  | For reference only, the value of 1 Hartree used in FHI-aims is :             27.211384500 eV

  Before relying on these values, please be sure to understand exactly which
  total energy value is referred to by a given number. Different objects may
  all carry the same name 'total energy'. Definitions:

  Total energy of the DFT / Hartree-Fock s.c.f. calculation:
  | Note that this energy does not include ANY quantities calculated after the
  | s.c.f. cycle, in particular not ANY RPA, MP2, etc. many-body perturbation terms.

  Final zero-broadening corrected energy:
  | For metallic systems only, a broadening of the occupation numbers at the Fermi
  | level can be extrapolated back to zero broadening by an electron-gas inspired
  | formula. For all systems that are not real metals, this value can be
  | meaningless and should be avoided.

------------------------------------------------------------------------------
  Methods described in the following list of references were used in this FHI-aims run.
  If you publish the results, please make sure to cite these reference if they apply.
  FHI-aims is an academic code, and for our developers (often, Ph.D. students
  and postdocs), scientific credit in the community is essential.
  Thank you for helping us!

  For any use of FHI-aims, please cite:

    Volker Blum, Ralf Gehrke, Felix Hanke, Paula Havu, Ville Havu,
    Xinguo Ren, Karsten Reuter, and Matthias Scheffler
    'Ab initio molecular simulations with numeric atom-centered orbitals'
    Computer Physics Communications 180, 2175-2196 (2009)
    http://dx.doi.org/10.1016/j.cpc.2009.06.022


  For the real-space grid partitioning and parallelization used in this calculation, please cite:

    Ville Havu, Volker Blum, Paula Havu, and Matthias Scheffler,
    'Efficient O(N) integration for all-electron electronic structure calculation'
    'using numerically tabulated basis functions'
    Journal of Computational Physics 228, 8367-8379 (2009).
    http://dx.doi.org/10.1016/j.jcp.2009.08.008

  Of course, there are many other important community references, e.g., those cited in the
  above references. Our list is limited to references that describe implementations in the
  FHI-aims code. The reason is purely practical (length of this list) - please credit others as well.

------------------------------------------------------------
          Leaving FHI-aims.
          Date     :  20180214, Time     :  142355.766

          Computational steps:
          | Number of self-consistency cycles          :           12
          | Number of SCF (re)initializations          :            1

          Detailed time accounting                     :  max(cpu_time)    wall_clock(cpu1)
          | Total time                                 :        5.884 s           5.899 s
          | Preparation time                           :        0.216 s           0.218 s
          | Boundary condition initalization           :        0.000 s           0.000 s
          | Grid partitioning                          :        0.060 s           0.060 s
          | Preloading free-atom quantities on grid    :        0.016 s           0.020 s
          | Free-atom superposition energy             :        0.012 s           0.012 s
          | Total time for integrations                :        1.908 s           1.897 s
          | Total time for solution of K.-S. equations :        0.052 s           0.027 s
          | Total time for density & force components  :        1.888 s           1.877 s
          | Total time for mixing                      :        0.128 s           0.105 s
          | Total time for Hartree multipole update    :        0.184 s           0.160 s
          | Total time for Hartree multipole sum       :        1.420 s           1.421 s
          | Total time for total energy evaluation     :        0.004 s           0.011 s
          | Total time for scaled ZORA corrections     :        0.000 s           0.000 s
          | Total time for vdW correction              :        0.024 s           0.023 s

          Partial memory accounting:
          | Residual value for overall tracked memory usage across tasks :           0.000 MB (should be 0.000 MB)
          | Peak values for overall tracked memory usage (after allocating hessian_basis_wave):
          |   Minimum:        1.602 MB (on task 1)
          |   Maximum:        1.602 MB (on task 1)
          |   Average:        1.602 MB
          | Largest tracked array allocation (hessian_basis_wave):
          |   Minimum:        0.806 MB (on task 1)
          |   Maximum:        0.806 MB (on task 1)
          |   Average:        0.806 MB
          Note:  These values currently only include a subset of arrays which are explicitly tracked.
          The "true" memory usage will be greater.

          Have a nice day.
------------------------------------------------------------
