  MPI-parallelism will be employed.
------------------------------------------------------------
          Invoking FHI-aims ...

          When using FHI-aims, please cite the following reference:

          Volker Blum, Ralf Gehrke, Felix Hanke, Paula Havu,
          Ville Havu, Xinguo Ren, Karsten Reuter, and Matthias Scheffler,
          'Ab Initio Molecular Simulations with Numeric Atom-Centered Orbitals',
          Computer Physics Communications 180, 2175-2196 (2009)

          For any questions about FHI-aims, please visit the aimsclub website
          with its forums and wiki. Contributions to both the forums and the
          wiki are warmly encouraged - they are for you, and everyone is welcome there.

------------------------------------------------------------



  Date     :  20190902, Time     :  135121.759
  Time zero on CPU 1             :   0.309940000000000E-01  s.
  Internal wall clock time zero  :           336664281.759  s.

  FHI-aims created a unique identifier for this run for later identification
  aims_uuid : 81FB3CEA-1753-4920-A812-631D0C4DBDAC

  Build configuration of the current instance of FHI-aims
  -------------------------------------------------------
  FHI-aims version      : 190824
  Commit number         : 2e5b160f6
  CMake host system     : Linux-2.6.32-754.14.2.el6.x86_64
  CMake version         : 3.13.5
  Fortran compiler      : /opt/intel/impi/2018.2.199/bin64/mpiifort (Intel) version 18.0.2.20180210
  Fortran compiler flags: -O3 -ip -fp-model precise -check bounds -check uninit -check pointers -traceback -g -fpe0 -warn all -warn nounused -warn nointerfaces
  C compiler            : /opt/intel/impi/2018.2.199/bin64/mpiicc (Intel) version 18.0.2.20180210
  C compiler flags      : -O3 -ip -std=c99
  Architecture          :
  Using MPI
  Using Scalapack
  Using C files
  Using LibXC
  Using SPGlib
  Linking against: /opt/intel/mkl/lib/intel64/libmkl_scalapack_lp64.so
                   /opt/intel/mkl/lib/intel64/libmkl_blacs_intelmpi_lp64.so
                   /opt/intel/mkl/lib/intel64/libmkl_intel_lp64.so
                   /opt/intel/mkl/lib/intel64/libmkl_sequential.so
                   /opt/intel/mkl/lib/intel64/libmkl_core.so

  Using       20 parallel tasks.
  Task        0 on host node15.timewarp reporting.
  Task        1 on host node15.timewarp reporting.
  Task        2 on host node15.timewarp reporting.
  Task        3 on host node15.timewarp reporting.
  Task        4 on host node15.timewarp reporting.
  Task        5 on host node15.timewarp reporting.
  Task        6 on host node15.timewarp reporting.
  Task        7 on host node15.timewarp reporting.
  Task        8 on host node15.timewarp reporting.
  Task        9 on host node15.timewarp reporting.
  Task       10 on host node15.timewarp reporting.
  Task       11 on host node15.timewarp reporting.
  Task       12 on host node15.timewarp reporting.
  Task       13 on host node15.timewarp reporting.
  Task       14 on host node15.timewarp reporting.
  Task       15 on host node15.timewarp reporting.
  Task       16 on host node15.timewarp reporting.
  Task       17 on host node15.timewarp reporting.
  Task       18 on host node15.timewarp reporting.
  Task       19 on host node15.timewarp reporting.

  Performing system and environment tests:
  | Environment variable OMP_NUM_THREADS correctly set to 1.
  | Maximum stacksize for task 0: unlimited
  | Maximum stacksize for task 1: unlimited
  | Maximum stacksize for task 2: unlimited
  | Maximum stacksize for task 3: unlimited
  | Maximum stacksize for task 4: unlimited
  | Maximum stacksize for task 5: unlimited
  | Maximum stacksize for task 6: unlimited
  | Maximum stacksize for task 7: unlimited
  | Maximum stacksize for task 8: unlimited
  | Maximum stacksize for task 9: unlimited
  | Maximum stacksize for task 10: unlimited
  | Maximum stacksize for task 11: unlimited
  | Maximum stacksize for task 12: unlimited
  | Maximum stacksize for task 13: unlimited
  | Maximum stacksize for task 14: unlimited
  | Maximum stacksize for task 15: unlimited
  | Maximum stacksize for task 16: unlimited
  | Maximum stacksize for task 17: unlimited
  | Maximum stacksize for task 18: unlimited
  | Maximum stacksize for task 19: unlimited
  | Current stacksize for task 0: unlimited
  | Current stacksize for task 1: unlimited
  | Current stacksize for task 2: unlimited
  | Current stacksize for task 3: unlimited
  | Current stacksize for task 4: unlimited
  | Current stacksize for task 5: unlimited
  | Current stacksize for task 6: unlimited
  | Current stacksize for task 7: unlimited
  | Current stacksize for task 8: unlimited
  | Current stacksize for task 9: unlimited
  | Current stacksize for task 10: unlimited
  | Current stacksize for task 11: unlimited
  | Current stacksize for task 12: unlimited
  | Current stacksize for task 13: unlimited
  | Current stacksize for task 14: unlimited
  | Current stacksize for task 15: unlimited
  | Current stacksize for task 16: unlimited
  | Current stacksize for task 17: unlimited
  | Current stacksize for task 18: unlimited
  | Current stacksize for task 19: unlimited
  | Checking for scalapack...
  | Testing pdtran()...
  | All pdtran() tests passed.

  Obtaining array dimensions for all initial allocations:
  
  -----------------------------------------------------------------------
  Parsing control.in (first pass over file, find array dimensions only).
  The contents of control.in will be repeated verbatim below
  unless switched off by setting 'verbatim_writeout .false.' .
  in the first line of control.in .
  -----------------------------------------------------------------------
  
  #
   xc pbe
   relativistic atomic_zora scalar
  #
   frozen_core_scf .true.
   frozen_core_scf_cutoff -5.d2
  #
   k_grid 3 1 1
  #
  ################################################################################
  #
  #  FHI-aims code project
  #  VB, Fritz-Haber Institut, 2009
  #
  #  Suggested "light" defaults for Au atom (to be pasted into control.in file)
  #  Be sure to double-check any results obtained with these settings for post-processing,
  #  e.g., with the "tight" defaults and larger basis sets.
  #
  ################################################################################
    species        Au
  #     global species definitions
      nucleus             79
      mass                196.966569
  #
      l_hartree           4
  #
      cut_pot             3.5  1.5  1.0
      basis_dep_cutoff    1e-4
  #
      radial_base         73 5.0
      radial_multiplier   1
      angular_grids specified
        division   0.5066   50
        division   0.9861  110
        division   1.2821  194
        division   1.5344  302
  #      division   2.0427  434
  #      division   2.1690  590
  #      division   2.2710  770
  #      division   2.3066  974
  #      division   2.7597 1202
  #      outer_grid 974
        outer_grid 302
  ################################################################################
  #
  #  Definition of "minimal" basis
  #
  ################################################################################
  #     valence basis states
      valence      6  s   1.
      valence      5  p   6.
      valence      5  d  10.
      valence      4  f  14.
  #     ion occupancy
      ion_occ     6  s   0.
      ion_occ     5  p   6.
      ion_occ     5  d   9.
      ion_occ     4  f   14.
  ################################################################################
  #
  #  Suggested additional basis functions. For production calculations,
  #  uncomment them one after another (the most important basis functions are
  #  listed first).
  #
  #  Constructed for dimers: 2.10, 2.45, 3.00, 4.00 AA
  #
  ################################################################################
  #  "First tier" - max. impr. -161.60  meV, min. impr. -4.53 meV
       ionic 6 p auto
       hydro 4 f 7.4
       ionic 6 s auto
  #     hydro 5 g 10
  #     hydro 6 h 12.8
       hydro 3 d 2.5
  #  "Second tier" - max. impr. -2.46  meV, min. impr. -0.28 meV
  #     hydro 5 f 14.8
  #     hydro 4 d 3.9
  #     hydro 3 p 3.3
  #     hydro 1 s 0.45
  #     hydro 5 g 16.4
  #     hydro 6 h 13.6
  #  "Third tier" - max. impr. -0.49  meV, min. impr. -0.09 meV
  #     hydro 4 f 5.2
  #     hydro 4 d 5
  #     hydro 5 g 8
  #     hydro 5 p 8.2
  #     hydro 6 d 12.4
  #     hydro 6 s 14.8
  #  Further basis functions: -0.08 meV and below
  #     hydro 5 f 18.8
  #     hydro 5 g 20
  #    hydro 5 g 15.2
  
  -----------------------------------------------------------------------
  Completed first pass over input file control.in .
  -----------------------------------------------------------------------
  
  
  -----------------------------------------------------------------------
  Parsing geometry.in (first pass over file, find array dimensions only).
  The contents of geometry.in will be repeated verbatim below
  unless switched off by setting 'verbatim_writeout .false.' .
  in the first line of geometry.in .
  -----------------------------------------------------------------------
  
  # Geometry for fcc Au
  #
  lattice_vector  15.0   0.0   0.0
  lattice_vector   0.0  12.0   0.0
  lattice_vector   0.0   0.0  12.0
  #
  atom  0.0  0.0  0.0  Au
  atom  3.0  0.0  0.0  Au
  
  -----------------------------------------------------------------------
  Completed first pass over input file geometry.in .
  -----------------------------------------------------------------------
  

  Basic array size parameters:
  | Number of species                 :        1
  | Number of atoms                   :        2
  | Number of lattice vectors         :        3
  | Max. basis fn. angular momentum   :        3
  | Max. atomic/ionic basis occupied n:        6
  | Max. number of basis fn. types    :        3
  | Max. radial fns per species/type  :       14
  | Max. logarithmic grid size        :     1488
  | Max. radial integration grid size :       73
  | Max. angular integration grid size:      302
  | Max. angular grid division number :        8
  | Radial grid for Hartree potential :     1488
  | Number of spin channels           :        1

------------------------------------------------------------
          Reading file control.in.
------------------------------------------------------------
  XC: Using PBE gradient-corrected functionals.
  Scalar relativistic treatment of kinetic energy: on-site free-atom approximation to ZORA.
  Found k-point grid:         3         1         1
 
  Reading configuration options for species Au                  .
  | Found nuclear charge :  79.0000
  | Found atomic mass :    196.966569000000      amu
  | Found l_max for Hartree potential  :   4
  | Found cutoff potl. onset [A], width [A], scale factor :    3.50000    1.50000    1.00000
  | Threshold for basis-dependent cutoff potential is   0.100000E-03
  | Found data for basic radial integration grid :    73 points, outermost radius =    5.000 A
  | Found multiplier for basic radial grid :   1
  | Found angular grid specification: user-specified.
  | Specified grid contains     5 separate shells.
  | Check grid settings after all constraints further below.
  | Found free-atom valence shell :  6 s   1.000
  | Found free-atom valence shell :  5 p   6.000
  | Found free-atom valence shell :  5 d  10.000
  | Found free-atom valence shell :  4 f  14.000
  | Found free-ion valence shell :  6 s   0.000
  | Found free-ion valence shell :  5 p   6.000
  | Found free-ion valence shell :  5 d   9.000
  | Found free-ion valence shell :  4 f  14.000
  | Found ionic basis function :  6 p , default cutoff radius.
  | Found hydrogenic basis function :  4 f   7.400
  | Found ionic basis function :  6 s , default cutoff radius.
  | Found hydrogenic basis function :  3 d   2.500
  Species Au                  : Missing cutoff potential type.
  Defaulting to exp(1/x)/(1-x)^2 type cutoff potential.
  Species Au: No 'logarithmic' tag. Using default grid for free atom:
  | Default logarithmic grid data [bohr] : 0.1000E-03 0.1000E+03 0.1012E+01
  | Will include ionic basis functions of  2.0-fold positive Au                   ion.
  Species Au: On-site basis accuracy parameter (for Gram-Schmidt orthonormalisation) not specified.
  Using default value basis_acc =  0.1000000E-03.
  Species Au                  : Using default innermost maximum threshold i_radial=  2 for radial functions.
  Species Au                  : Default cutoff onset for free atom density etc. : 0.35000000E+01 AA.
  Species Au                  : Basic radial grid will be enhanced according to radial_multiplier =   1, to contain    73 grid points.
 
  Finished reading input file 'control.in'. Consistency checks are next.
 
  MPI_IN_PLACE appears to work with this MPI implementation.
  | Keeping use_mpi_in_place .true. (see manual).
  Target number of points in a grid batch is not set. Defaulting to  100
  Method for grid partitioning is not set. Defaulting to parallel hash+maxmin partitioning.
  Batch size limit is not set. Defaulting to    200
  By default, will store active basis functions for each batch.
  If in need of memory, prune_basis_once .false. can be used to disable this option.
  communication_type for Hartree potential was not specified.
  Defaulting to calc_hartree .
  Defaulting to Pulay charge density mixer.
  Pulay mixer: Number of relevant iterations not set.
  Defaulting to    8 iterations.
  Pulay mixer: Number of initial linear mixing iterations not set.
  Defaulting to    0 iterations.
  Work space size for distributed Hartree potential not set.
  Defaulting to   0.200000E+03 MB.
  Mixing parameter for charge density mixing has not been set.
  Using default: charge_mix_param =     0.0500.
  The mixing parameter will be adjusted in iteration number     2 of the first full s.c.f. cycle only.
  Algorithm-dependent basis array size parameters:
  | n_max_pulay                         :        8
 * Notice: The s.c.f. convergence criterion sc_accuracy_rho was not provided.
 * We used to stop in this case, and ask the user to provide reasonable
 * scf convergence criteria. However, this led some users to employ criteria
 * that led to extremely long run times, e.g., for simple relaxation.
 * We now preset a default value for sc_accuracy_rho if it is not set.
 * You may still wish to check if this setting is too tight or too loose for your needs.
 * Based on n_atoms, FHI-aims chose sc_accuracy_rho =  0.100000E-05 .
  Maximum number of self-consistency iterations not provided.
  Presetting  1000 iterations.
  Presetting      1001 iterations before the initial mixing cycle
  is restarted anyway using the sc_init_iter criterion / keyword.
  Presetting a factor      1.000 between actual scf density residual
  and density convergence criterion sc_accuracy_rho below which sc_init_iter
  takes no effect.
 * No s.c.f. convergence criteria (sc_accuracy_*) were provided in control.in.
 * The run will proceed with a reasonable default guess, but please check whether.
 * the s.c.f. cycles seem to take too much or too little time.
  Calculation of forces was not defined in control.in. No forces will be calculated.
  Geometry relaxation not requested: no relaxation will be performed.
  No accuracy limit for integral partition fn. given. Defaulting to  0.1000E-14.
  No threshold value for u(r) in integrations given. Defaulting to  0.1000E-05.
  No occupation type (smearing scheme) given. Defaulting to Gaussian broadening, width =  0.1000E-01 eV.
  The width will be adjusted in iteration number     2 of the first full s.c.f. cycle only.
  S.C.F. convergence parameters will be adjusted in iteration number     2 of the first full s.c.f. cycle only.
  No accuracy for occupation numbers given. Defaulting to  0.1000E-12.
  No threshold value for occupation numbers given. Defaulting to  0.0000E+00.
  No accuracy for fermi level given. Defaulting to  0.1000E-19.
  Maximum # of iterations to find E_F not set. Defaulting to  200.
  Preferred method for the eigenvalue solver ('KS_method') not specified in 'control.in'.
  Calling BLACS routine to test compilation state
  Since ScaLAPACK support is enabled, defaulting to ELPA (via ELSI).
  Will not use alltoall communication since running on < 1024 CPUs.
  Threshold for basis singularities not set.
  Default threshold for basis singularities:  0.1000E-04
  partition_type (choice of integration weights) for integrals was not specified.
  | Using a version of the partition function of Stratmann and coworkers ('stratmann_sparse').
  | At each grid point, the set of atoms used to build the partition table is smoothly restricted to
  | only those atoms whose free-atom density would be non-zero at that grid point.
  Partitioning for Hartree potential was not defined. Using partition_type for integrals.
  | Adjusted default value of keyword multip_moments_threshold to:       0.10000000E-11
  | This value may affect high angular momentum components of the Hartree potential in periodic systems.
  Spin handling was not defined in control.in. Defaulting to unpolarized case.
  Angular momentum expansion for Kerker preconditioner not set explicitly.
  | Using default value of   0
  No explicit requirement for turning off preconditioner.
  | By default, it will be turned off when the charge convergence reaches
  | sc_accuracy_rho  =   0.100000E-05
  No special mixing parameter while Kerker preconditioner is on.
  Using default: charge_mix_param =     0.0500.
  No q(lm)/r^(l+1) cutoff set for long-range Hartree potential.
  | Using default value of  0.100000E-09 .
  | Verify using the multipole_threshold keyword.
  Defaulting to new monopole extrapolation.
  Density update method: automatic selection selected.
  Using density matrix based charge density update.
  Using density matrix based charge density update.
  Using packed matrix style: index .
  Defaulting to use time-reversal symmetry for k-point grid.
  Charge integration errors on the 3D integration grid will be compensated
  by explicit normalization and distribution of residual charges.
  Use the "compensate_multipole_errors" flag to change this behaviour.
------------------------------------------------------------


------------------------------------------------------------
          Reading geometry description geometry.in.
------------------------------------------------------------
  Input structure read successfully.
  The structure contains        2 atoms,  and a total of        158.000 electrons.

  Input geometry:
  | Unit cell:
  |       15.00000000        0.00000000        0.00000000
  |        0.00000000       12.00000000        0.00000000
  |        0.00000000        0.00000000       12.00000000
  | Atomic structure:
  |       Atom                x [A]            y [A]            z [A]
  |    1: Species Au            0.00000000        0.00000000        0.00000000
  |    2: Species Au            3.00000000        0.00000000        0.00000000

  Lattice parameters for 3D lattice (in Angstroms) :    15.000000   12.000000   12.000000
  Angle(s) between unit vectors (in degrees)       :    90.000000   90.000000   90.000000

  | The smallest distance between any two atoms is         3.00000000 AA.
  | The first atom of this pair is atom number                      1 .
  | The second atom of this pair is atom number                     2 .
  | Wigner-Seitz cell of the first atom image           0     0     0 .
  | (The Wigner-Seitz cell of the second atom is 0 0 0  by definition.)

  Symmetry information by spglib:
  | Precision set to  0.1E-04
  | Number of Operations  : 16
  | Space group           : 123
  | International         : P4/mmm
  | Schoenflies           : D4h^1

  Quantities derived from the lattice vectors:
  | Reciprocal lattice vector 1:  0.418879  0.000000  0.000000
  | Reciprocal lattice vector 2:  0.000000  0.523599  0.000000
  | Reciprocal lattice vector 3:  0.000000  0.000000  0.523599
  | Unit cell volume                               :   0.216000E+04  A^3

  Range separation radius for Ewald summation (hartree_convergence_parameter):      5.00000000 bohr.

  Fractional coordinates:
                         L1                L2                L3
       atom_frac         0.00000000        0.00000000        0.00000000  Au
       atom_frac         0.20000000        0.00000000        0.00000000  Au

  Number of empty states per atom not set in control.in - providing a guess from actual geometry.
  | Total number of empty states used during s.c.f. cycle:       18
  If you use a very high smearing, use empty_states (per atom!) in control.in to increase this value.

  Structure-dependent array size parameters: 
  | Maximum number of distinct radial functions  :       18
  | Maximum number of basis functions            :      112
  | Number of Kohn-Sham states (occupied + empty):       97
------------------------------------------------------------

------------------------------------------------------------
          Preparing all fixed parts of the calculation.
------------------------------------------------------------
  Determining machine precision:
    2.225073858507201E-308
  Setting up grids for atomic and cluster calculations.

  Creating wave function, potential, and density for free atoms.

  Species: Au

  List of occupied orbitals and eigenvalues:
    n    l              occ      energy [Ha]    energy [eV]
    1    0           2.0000     -3256.431199    -88612.0015
    2    0           2.0000      -533.654865    -14521.4877
    3    0           2.0000      -124.232088     -3380.5271
    4    0           2.0000       -26.843821      -730.4575
    5    0           2.0000        -3.974251      -108.1449
    6    0           1.0000        -0.207180        -5.6377
    2    1           6.0000      -460.384091    -12527.6885
    3    1           6.0000      -103.448928     -2814.9886
    4    1           6.0000       -20.075789      -546.2900
    5    1           6.0000        -2.189737       -59.5858
    3    2          10.0000       -81.364825     -2214.0495
    4    2          10.0000       -11.975168      -325.8609
    5    2          10.0000        -0.249072        -6.7776
    4    3          14.0000        -2.985533       -81.2405

  Creating fixed part of basis set: Ionic, confined, hydrogenic.
 
  Au                   ion:

  List of free ionic orbitals and eigenvalues:
    n    l      energy [Ha]    energy [eV]
    1    0     -3257.305345    -88635.7882
    2    0      -534.468969    -14543.6406
    3    0      -125.037161     -3402.4343
    4    0       -27.646714      -752.3054
    5    0        -4.773414      -129.8912
    2    1      -461.196653    -12549.7994
    3    1      -104.253556     -2836.8836
    4    1       -20.878488      -568.1326
    5    1        -2.984283       -81.2065
    3    2       -82.168946     -2235.9308
    4    2       -12.777596      -347.6961
    5    2        -1.004504       -27.3340
    4    3        -3.787521      -103.0637


  List of ionic basis orbitals and eigenvalues:
    n    l      energy [Ha]    energy [eV]    outer radius [A]
    6    1        -0.535414       -14.5694       4.560053
    6    0        -0.835538       -22.7361       4.504645

 
  Au                   hydrogenic:
 
  List of hydrogenic basis orbitals: 
    n    l      effective z      eigenvalue [eV]  inner max. [A]     outer max. [A]     outer radius [A]   
    4    3         7.400000       -46.5648           1.145580           1.145580           4.504645
    3    2         2.500000        -9.0892           1.822958           1.822958           4.616141
 

  Adding cutoff potential to free-atom effective potential.
  Creating atomic-like basis functions for current effective potential.

  Species Au                  :

  List of atomic basis orbitals and eigenvalues:
    n    l      energy [Ha]    energy [eV]    outer radius [A]
    1    0     -3256.431199    -88612.0015       0.120816
    2    0      -533.654865    -14521.4877       0.313506
    3    0      -124.232088     -3380.5271       0.652830
    4    0       -26.843821      -730.4575       1.359424
    5    0        -3.974251      -108.1449       3.318406
    6    0        -0.207180        -5.6377       4.560053
    2    1      -460.384091    -12527.6885       0.329217
    3    1      -103.448928     -2814.9886       0.702515
    4    1       -20.075789      -546.2900       1.536198
    5    1        -2.189737       -59.5858       4.035315
    3    2       -81.364825     -2214.0495       0.755981
    4    2       -11.975168      -325.8609       1.868078
    5    2        -0.249072        -6.7776       4.504645
    4    3        -2.985533       -81.2405       3.198908

  Assembling full basis from fixed parts.
  | Species Au :   atomic orbital   1 s accepted.
  | Species Au :   atomic orbital   2 s accepted.
  | Species Au :   atomic orbital   3 s accepted.
  | Species Au :   atomic orbital   4 s accepted.
  | Species Au :   atomic orbital   5 s accepted.
  | Species Au :    ionic orbital   6 s accepted.
  | Species Au :   atomic orbital   6 s accepted.
  | Species Au :   atomic orbital   2 p accepted.
  | Species Au :   atomic orbital   3 p accepted.
  | Species Au :   atomic orbital   4 p accepted.
  | Species Au :   atomic orbital   5 p accepted.
  | Species Au :    ionic orbital   6 p accepted.
  | Species Au :   atomic orbital   3 d accepted.
  | Species Au :   atomic orbital   4 d accepted.
  | Species Au :   atomic orbital   5 d accepted.
  | Species Au :    hydro orbital   3 d accepted.
  | Species Au :   atomic orbital   4 f accepted.
  | Species Au :    hydro orbital   4 f accepted.
 
  Basis size parameters after reduction:
  | Total number of radial functions:       18
  | Total number of basis functions :      112
 
  Per-task memory consumption for arrays in subroutine allocate_ext:
  |           6.860096MB.
  Testing on-site integration grid accuracy.
  |  Species  Function  <phi|h_atom|phi> (log., in eV)  <phi|h_atom|phi> (rad., in eV)
           1        1             -88612.0014632774             -88611.6712034180 ***
           1        2             -14521.4877182964             -14521.4813999840
           1        3              -3380.5271184873              -3380.5267747403
           1        4               -730.4575387750               -730.4575126103
           1        5               -108.1448599487               -108.1448564257
           1        6                 -5.0942970264                 -5.0944290505
           1        7                  6.1115134725                  6.0788143786 ***
           1        8             -12527.6885190594             -12527.6885173588
           1        9              -2814.9885638658              -2814.9885482953
           1       10               -546.2900141357               -546.2900083742
           1       11                -59.5857773529                -59.5857755927
           1       12                  0.8801786309                  0.8779179090
           1       13              -2214.0495316492              -2214.0495265682
           1       14               -325.8609015357               -325.8608990336
           1       15                 -6.7779523923                 -6.7780549541
           1       16                  6.8774732691                  6.8534371069
           1       17                -81.2404736787                -81.2404731538
           1       18                 21.6950885255                 21.6950713539
 * Note: Onsite integrals marked "***" above are less accurate than
 * onsite_accuracy_threshold =    0.03000 eV. Usually, this is harmless.
 * However, one integral did have a negative value. This integral could be important.
 * When in doubt, tighten the "radial" and/or "radial_multiplier" flags to check.

  Preparing densities etc. for the partition functions (integrals / Hartree potential).

  Preparations completed.
  max(cpu_time)          :      0.675 s.
  Wall clock time (cpu1) :      0.675 s.
------------------------------------------------------------

------------------------------------------------------------
          Begin self-consistency loop: Initialization.

          Date     :  20190902, Time     :  135122.499
------------------------------------------------------------

  Initializing index lists of integration centers etc. from given atomic structure:
  Mapping all atomic coordinates to central unit cell.

  Initializing the k-points
  Using symmetry for reducing the k-points
  | k-points reduced from:        3 to        2
  | Number of k-points                             :         2
  The eigenvectors in the calculations are COMPLEX.
  | Number of basis functions in the Hamiltonian integrals :       134
  | Number of basis functions in a single unit cell        :       112
  | Number of centers in hartree potential         :        30
  | Number of centers in hartree multipole         :         2
  | Number of centers in electron density summation:         2
  | Number of centers in basis integrals           :         3
  | Number of centers in integrals                 :         3
  | Number of centers in hamiltonian               :         2
  | Consuming          0 KiB for k_phase.
  | Number of super-cells (origin) [n_cells]                     :         125
  | Number of super-cells (after PM_index) [n_cells]             :           3
  | Number of super-cells in hamiltonian [n_cells_in_hamiltonian]:           2
  | Size of matrix packed + index [n_hamiltonian_matrix_size] :        5961
  | Estimated reciprocal-space cutoff momentum G_max:         1.84432723 bohr^-1 .
  | Reciprocal lattice points for long-range Hartree potential:    1552
  Using simple linear distribution as default method for k-point parallelism.
  * Using 20 tasks for Scalapack Eigenvalue solver.
  Detailed listing of tasks and assigned k-points:
   Task     0 k-point     1 on node15.timewarp
   Task     1 k-point     1 on node15.timewarp
   Task     2 k-point     1 on node15.timewarp
   Task     3 k-point     1 on node15.timewarp
   Task     4 k-point     1 on node15.timewarp
   Task     5 k-point     1 on node15.timewarp
   Task     6 k-point     1 on node15.timewarp
   Task     7 k-point     1 on node15.timewarp
   Task     8 k-point     1 on node15.timewarp
   Task     9 k-point     1 on node15.timewarp
   Task    10 k-point     2 on node15.timewarp
   Task    11 k-point     2 on node15.timewarp
   Task    12 k-point     2 on node15.timewarp
   Task    13 k-point     2 on node15.timewarp
   Task    14 k-point     2 on node15.timewarp
   Task    15 k-point     2 on node15.timewarp
   Task    16 k-point     2 on node15.timewarp
   Task    17 k-point     2 on node15.timewarp
   Task    18 k-point     2 on node15.timewarp
   Task    19 k-point     2 on node15.timewarp
  K-point:     1 Tasks:    10 split into      5 X      2 BLACS grid
  Calculating block size based on n_basis =          112  max_nprow =            5  max_npcol =            2
  ScaLAPACK block size set to:           16
  Allocating        0.031 MB for ovlp_complex
  Allocating        0.031 MB for ham_complex
  Allocating        0.031 MB for eigenvec_complex
  Required Scalapack workspace - INTEGER:            1  REAL:             1  COMPLEX:            1
  | Frozen core approximation cutoff:   -500.000 eV
  | Found         36 core states
  Partitioning the integration grid into batches with parallel hashing+maxmin method.
  | Number of batches:      234
  | Maximal batch size:     147
  | Minimal batch size:      28
  | Average batch size:      77.966
  | Standard deviation of batch sizes:      20.107

  Integration load balanced across    20 MPI tasks.
  Work distribution over tasks is as follows:
  Task     0 has        883 integration points.
  Task     1 has        868 integration points.
  Task     2 has        930 integration points.
  Task     3 has        872 integration points.
  Task     4 has        893 integration points.
  Task     5 has        911 integration points.
  Task     6 has        871 integration points.
  Task     7 has        940 integration points.
  Task     8 has        919 integration points.
  Task     9 has        932 integration points.
  Task    10 has        932 integration points.
  Task    11 has        890 integration points.
  Task    12 has        925 integration points.
  Task    13 has        929 integration points.
  Task    14 has        871 integration points.
  Task    15 has        920 integration points.
  Task    16 has        947 integration points.
  Task    17 has        936 integration points.
  Task    18 has        923 integration points.
  Task    19 has        952 integration points.
  Initializing partition tables, free-atom densities, potentials, etc. across the integration grid (initialize_grid_storage).
  | initialize_grid_storage: Actual outermost partition radius vs. multipole_radius_free
  | (-- VB: in principle, multipole_radius_free should be larger, hence this output)
  | Species        1: Confinement radius =              4.999999999999999 AA, multipole_radius_free =              5.028561921230412 AA.
  | Species        1: outer_partition_radius set to              5.028561921230412 AA .
  | The sparse table of interatomic distances needs          0.04 kbyte instead of         0.07 kbyte of memory.
  | Net number of integration points:    18244
  | of which are non-zero points    :    18040
  | Numerical average free-atom electrostatic potential    :     -0.46547337 eV
  Renormalizing the initial density to the exact electron count on the 3D integration grid.
  | Initial density: Formal number of electrons (from input files) :     158.0000000000
  | Integrated number of electrons on 3D grid     :     157.9999335231
  | Charge integration error                      :      -0.0000664769
  | Normalization factor for density and gradient :       1.0000004207
  Renormalizing the free-atom superposition density to the exact electron count on the 3D integration grid.
  | Formal number of electrons (from input files) :     158.0000000000
  | Integrated number of electrons on 3D grid     :     157.9999335231
  | Charge integration error                      :      -0.0000664769
  | Normalization factor for density and gradient :       1.0000004207
  Obtaining max. number of non-zero basis functions in each batch (get_n_compute_maxes).
  | Maximal number of non-zero basis functions:       88 in task     0
  | Maximal number of non-zero basis functions:       93 in task     1
  | Maximal number of non-zero basis functions:       89 in task     2
  | Maximal number of non-zero basis functions:       89 in task     3
  | Maximal number of non-zero basis functions:       89 in task     4
  | Maximal number of non-zero basis functions:       92 in task     5
  | Maximal number of non-zero basis functions:       89 in task     6
  | Maximal number of non-zero basis functions:       89 in task     7
  | Maximal number of non-zero basis functions:       89 in task     8
  | Maximal number of non-zero basis functions:       89 in task     9
  | Maximal number of non-zero basis functions:       89 in task    10
  | Maximal number of non-zero basis functions:       89 in task    11
  | Maximal number of non-zero basis functions:       92 in task    12
  | Maximal number of non-zero basis functions:       89 in task    13
  | Maximal number of non-zero basis functions:       89 in task    14
  | Maximal number of non-zero basis functions:       89 in task    15
  | Maximal number of non-zero basis functions:       89 in task    16
  | Maximal number of non-zero basis functions:       89 in task    17
  | Maximal number of non-zero basis functions:       89 in task    18
  | Maximal number of non-zero basis functions:       92 in task    19
  Allocating        0.166 MB for KS_eigenvector_complex
  Integrating Hamiltonian matrix: batch-based integration.
  Time summed over all CPUs for integration: real work        0.266 s, elapsed        0.284 s
  Integrating overlap matrix.
  Time summed over all CPUs for integration: real work        0.104 s, elapsed        0.114 s
  Decreasing sparse matrix size:
  | Tolerance:  0.1000E-12
  Hamiltonian matrix
  | Array has     1803 nonzero elements out of     5961 elements
  | Sparsity factor is 0.698
  Overlap matrix
  | Array has     1631 nonzero elements out of     5961 elements
  | Sparsity factor is 0.726
  New size of hamiltonian matrix:        3990
  Deallocating overlap matrix.

  Updating Kohn-Sham eigenvalues and eigenvectors using ELSI and the ELPA eigensolver.
  Singularity check in k-point 1 (analysis for other k-points may follow below):
  Overlap matrix is not singular
  | Lowest and highest eigenvalues :  0.6363E-01,  0.1932E+01
  Finished singularity check of overlap matrix
  | Time :     0.003 s
  Starting ELPA eigensolver
  Finished Cholesky decomposition
  | Time :     0.001 s
  Finished transformation to standard eigenproblem
  | Time :     0.000 s
  Finished solving standard eigenproblem
  | Time :     0.003 s
  Finished back-transformation of eigenvectors
  | Time :     0.000 s

  Obtaining occupation numbers and chemical potential using ELSI.
  | Chemical potential (Fermi level):    -6.08283469 eV
  Writing Kohn-Sham eigenvalues.
  K-point:       1 at    0.000000    0.000000    0.000000 (in units of recip. lattice)

  State    Occupation    Eigenvalue [Ha]    Eigenvalue [eV]
      1       2.00000       -3256.411250       -88611.45862
      2       2.00000       -3256.411250       -88611.45862
      3       2.00000        -533.652523       -14521.42399
      4       2.00000        -533.652523       -14521.42399
      5       2.00000        -460.384313       -12527.69457
      6       2.00000        -460.384313       -12527.69457
      7       2.00000        -460.384312       -12527.69453
      8       2.00000        -460.384312       -12527.69453
      9       2.00000        -460.384312       -12527.69453
     10       2.00000        -460.384312       -12527.69453
     11       2.00000        -124.231768        -3380.51842
     12       2.00000        -124.231768        -3380.51842
     13       2.00000        -103.449191        -2814.99570
     14       2.00000        -103.449191        -2814.99570
     15       2.00000        -103.449179        -2814.99539
     16       2.00000        -103.449179        -2814.99539
     17       2.00000        -103.449179        -2814.99539
     18       2.00000        -103.449179        -2814.99539
     19       2.00000         -81.365073        -2214.05628
     20       2.00000         -81.365073        -2214.05628
     21       2.00000         -81.365073        -2214.05628
     22       2.00000         -81.365073        -2214.05628
     23       2.00000         -81.365073        -2214.05628
     24       2.00000         -81.365073        -2214.05628
     25       2.00000         -81.365068        -2214.05616
     26       2.00000         -81.365068        -2214.05616
     27       2.00000         -81.365066        -2214.05610
     28       2.00000         -81.365066        -2214.05610
     29       2.00000         -26.843957         -730.46125
     30       2.00000         -26.843957         -730.46125
     31       2.00000         -20.076121         -546.29904
     32       2.00000         -20.076121         -546.29904
     33       2.00000         -20.076055         -546.29726
     34       2.00000         -20.076055         -546.29726
     35       2.00000         -20.076055         -546.29726
     36       2.00000         -20.076055         -546.29726
     37       2.00000         -11.975500         -325.86994
     38       2.00000         -11.975500         -325.86994
     39       2.00000         -11.975479         -325.86935
     40       2.00000         -11.975479         -325.86935
     41       2.00000         -11.975479         -325.86935
     42       2.00000         -11.975479         -325.86935
     43       2.00000         -11.975427         -325.86794
     44       2.00000         -11.975427         -325.86794
     45       2.00000         -11.975427         -325.86794
     46       2.00000         -11.975427         -325.86794
     47       2.00000          -3.974729         -108.15789
     48       2.00000          -3.974689         -108.15678
     49       2.00000          -2.985895          -81.25035
     50       2.00000          -2.985888          -81.25015
     51       2.00000          -2.985879          -81.24990
     52       2.00000          -2.985879          -81.24990
     53       2.00000          -2.985876          -81.24983
     54       2.00000          -2.985876          -81.24983
     55       2.00000          -2.985841          -81.24888
     56       2.00000          -2.985841          -81.24888
     57       2.00000          -2.985841          -81.24887
     58       2.00000          -2.985841          -81.24886
     59       2.00000          -2.985791          -81.24750
     60       2.00000          -2.985791          -81.24750
     61       2.00000          -2.985791          -81.24750
     62       2.00000          -2.985791          -81.24750
     63       2.00000          -2.191432          -59.63190
     64       2.00000          -2.190206          -59.59853
     65       2.00000          -2.190206          -59.59853
     66       2.00000          -2.190095          -59.59551
     67       2.00000          -2.190095          -59.59551
     68       2.00000          -2.190059          -59.59454
     69       2.00000          -0.285756           -7.77581
     70       2.00000          -0.263246           -7.16328
     71       2.00000          -0.263246           -7.16328
     72       2.00000          -0.251799           -6.85181
     73       2.00000          -0.251799           -6.85179
     74       2.00000          -0.247537           -6.73584
     75       2.00000          -0.247537           -6.73583
     76       2.00000          -0.239377           -6.51377
     77       2.00000          -0.239377           -6.51377
     78       2.00000          -0.237517           -6.46316
     79       2.00000          -0.233144           -6.34418
     80       0.00000          -0.168656           -4.58937
     81       0.00000          -0.005803           -0.15790
     82       0.00000           0.000752            0.02047
     83       0.00000           0.000752            0.02047
     84       0.00000           0.061595            1.67607
     85       0.00000           0.061595            1.67607
     86       0.00000           0.147106            4.00297
     87       0.00000           0.213220            5.80201
     88       0.00000           0.221644            6.03125
     89       0.00000           0.221758            6.03435
     90       0.00000           0.253581            6.90029
     91       0.00000           0.253581            6.90029
     92       0.00000           0.283955            7.72682
     93       0.00000           0.289863            7.88757
     94       0.00000           0.289918            7.88908
     95       0.00000           0.361206            9.82892
     96       0.00000           0.372795           10.14427
     97       0.00000           0.372795           10.14427

  What follows are estimated values for band gap, HOMO, LUMO, etc.
  | They are estimated on a discrete k-point grid and not necessarily exact.
  | For converged numbers, create a DOS and/or band structure plot on a denser k-grid.

  Highest occupied state (VBM) at     -6.34418132 eV (relative to internal zero)
  | Occupation number:      2.00000000
  | K-point:       1 at    0.000000    0.000000    0.000000 (in units of recip. lattice)

  Lowest unoccupied state (CBM) at    -4.58936816 eV (relative to internal zero)
  | Occupation number:      0.00000000
  | K-point:       1 at    0.000000    0.000000    0.000000 (in units of recip. lattice)

  ESTIMATED overall HOMO-LUMO gap:      1.75481315 eV between HOMO at k-point 1 and LUMO at k-point 1
  | This appears to be a direct band gap.
  The gap value is above 0.2 eV. Unless you are using a very sparse k-point grid,
  this system is most likely an insulator or a semiconductor.
  Calculating total energy contributions from superposition of free atom densities.

  Total energy components:
  | Sum of eigenvalues            :      -24769.59085352 Ha     -674014.86062284 eV
  | XC energy correction          :        -735.80334023 Ha      -20022.22760745 eV
  | XC potential correction       :         962.43567407 Ha       26189.20718367 eV
  | Free-atom electrostatic energy:      -14826.62824479 Ha     -403453.08200753 eV
  | Hartree energy correction     :           0.00000000 Ha           0.00000000 eV
  | Entropy correction            :          -0.00000000 Ha          -0.00000000 eV
  | ---------------------------
  | Total energy                  :      -39369.58676447 Ha    -1071300.96305415 eV
  | Total energy, T -> 0          :      -39369.58676447 Ha    -1071300.96305415 eV  <-- do not rely on this value for anything but (periodic) metals
  | Electronic free energy        :      -39369.58676447 Ha    -1071300.96305415 eV

  Derived energy quantities:
  | Kinetic energy                :       44179.97647588 Ha     1202198.32708626 eV
  | Electrostatic energy          :      -82813.75990012 Ha    -2253477.06253295 eV
  | Energy correction for multipole
  | error in Hartree potential    :           0.00000000 Ha           0.00000000 eV
  | Sum of eigenvalues per atom                           :     -337007.43031142 eV
  | Total energy (T->0) per atom                          :     -535650.48152707 eV  <-- do not rely on this value for anything but (periodic) metals
  | Electronic free energy per atom                       :     -535650.48152707 eV
  Initialize hartree_potential_storage
  Max. number of atoms included in rho_multipole:            2

  End scf initialization - timings             :  max(cpu_time)    wall_clock(cpu1)
  | Time for scf. initialization               :        0.177 s           0.177 s
  | Boundary condition initialization          :        0.104 s           0.104 s
  | Integration                                :        0.021 s           0.021 s
  | Solution of K.-S. eqns.                    :        0.013 s           0.012 s
  | Grid partitioning                          :        0.029 s           0.028 s
  | Preloading free-atom quantities on grid    :        0.004 s           0.004 s
  | Free-atom superposition energy             :        0.002 s           0.001 s
  | Total energy evaluation                    :        0.000 s           0.000 s

  Partial memory accounting:
  | Current value for overall tracked memory usage:
  |   Minimum:        0.265 MB (on task  9)
  |   Maximum:        0.338 MB (on task  0)
  |   Average:        0.296 MB
  | Peak value for overall tracked memory usage:
  |   Minimum:        0.695 MB (on task  9 after allocating wave)
  |   Maximum:        0.783 MB (on task 12 after allocating wave)
  |   Average:        0.729 MB
  | Largest tracked array allocation so far:
  |   Minimum:        0.166 MB (KS_eigenvector_complex on task  0)
  |   Maximum:        0.166 MB (KS_eigenvector_complex on task  0)
  |   Average:        0.166 MB
  Note:  These values currently only include a subset of arrays which are explicitly tracked.
  The "true" memory usage will be greater.
------------------------------------------------------------

------------------------------------------------------------
          Begin self-consistency iteration #    1

  Date     :  20190902, Time     :  135122.676
------------------------------------------------------------
  Evaluating new KS density using the density matrix
  Evaluating density matrix
  Time summed over all CPUs for getting density from density matrix: real work        0.300 s, elapsed        0.323 s
  Integration grid: deviation in total charge (<rho> - N_e) =   2.842171E-13
  Pulay mixing of updated and previous charge densities.
  Renormalizing the density to the exact electron count on the 3D integration grid.
  | Formal number of electrons (from input files) :     158.0000000000
  | Integrated number of electrons on 3D grid     :     158.0002213424
  | Charge integration error                      :       0.0002213424
  | Normalization factor for density and gradient :       0.9999985991

  Evaluating partitioned Hartree potential by multipole expansion.
  | Original multipole sum: apparent total charge =  -0.301246E-13
  | Sum of charges compensated after spline to logarithmic grids =  -0.243592E-06
  | Analytical far-field extrapolation by fixed multipoles:
  | Hartree multipole sum: apparent total charge =   0.000000E+00
  Summing up the Hartree potential.
  Time summed over all CPUs for potential: real work        1.099 s, elapsed        1.147 s
  | RMS charge density error from multipole expansion :   0.114269E-03
  | Average real-space part of the electrostatic potential :      0.00046684 eV

  Integrating Hamiltonian matrix: batch-based integration.
  Time summed over all CPUs for integration: real work        0.257 s, elapsed        0.277 s

  Updating Kohn-Sham eigenvalues and eigenvectors using ELSI and the ELPA eigensolver.
  Starting ELPA eigensolver
  Finished transformation to standard eigenproblem
  | Time :     0.000 s
  Finished solving standard eigenproblem
  | Time :     0.003 s
  Finished back-transformation of eigenvectors
  | Time :     0.000 s

  Obtaining occupation numbers and chemical potential using ELSI.
  | Chemical potential (Fermi level):    -6.07911310 eV
  Writing Kohn-Sham eigenvalues.
  K-point:       1 at    0.000000    0.000000    0.000000 (in units of recip. lattice)

  State    Occupation    Eigenvalue [Ha]    Eigenvalue [eV]
      1       2.00000       -3256.412907       -88611.50369
      2       2.00000       -3256.412907       -88611.50369
      3       2.00000        -533.653970       -14521.46338
      4       2.00000        -533.653970       -14521.46338
      5       2.00000        -460.385784       -12527.73459
      6       2.00000        -460.385784       -12527.73459
      7       2.00000        -460.385784       -12527.73459
      8       2.00000        -460.385784       -12527.73459
      9       2.00000        -460.385774       -12527.73432
     10       2.00000        -460.385774       -12527.73432
     11       2.00000        -124.232930        -3380.55003
     12       2.00000        -124.232930        -3380.55003
     13       2.00000        -103.450370        -2815.02779
     14       2.00000        -103.450370        -2815.02779
     15       2.00000        -103.450370        -2815.02779
     16       2.00000        -103.450370        -2815.02779
     17       2.00000        -103.450292        -2815.02568
     18       2.00000        -103.450292        -2815.02568
     19       2.00000         -81.366300        -2214.08967
     20       2.00000         -81.366300        -2214.08967
     21       2.00000         -81.366283        -2214.08922
     22       2.00000         -81.366283        -2214.08922
     23       2.00000         -81.366251        -2214.08834
     24       2.00000         -81.366251        -2214.08834
     25       2.00000         -81.366244        -2214.08815
     26       2.00000         -81.366244        -2214.08815
     27       2.00000         -81.366244        -2214.08815
     28       2.00000         -81.366244        -2214.08815
     29       2.00000         -26.844823         -730.48480
     30       2.00000         -26.844823         -730.48480
     31       2.00000         -20.076941         -546.32137
     32       2.00000         -20.076941         -546.32137
     33       2.00000         -20.076908         -546.32047
     34       2.00000         -20.076908         -546.32047
     35       2.00000         -20.076908         -546.32047
     36       2.00000         -20.076908         -546.32047
     37       2.00000         -11.976335         -325.89266
     38       2.00000         -11.976335         -325.89266
     39       2.00000         -11.976288         -325.89137
     40       2.00000         -11.976288         -325.89137
     41       2.00000         -11.976288         -325.89137
     42       2.00000         -11.976288         -325.89137
     43       2.00000         -11.976257         -325.89055
     44       2.00000         -11.976257         -325.89055
     45       2.00000         -11.976257         -325.89055
     46       2.00000         -11.976257         -325.89055
     47       2.00000          -3.975183         -108.17024
     48       2.00000          -3.975143         -108.16914
     49       2.00000          -2.986707          -81.27243
     50       2.00000          -2.986700          -81.27223
     51       2.00000          -2.986677          -81.27163
     52       2.00000          -2.986677          -81.27163
     53       2.00000          -2.986675          -81.27155
     54       2.00000          -2.986675          -81.27155
     55       2.00000          -2.986614          -81.26990
     56       2.00000          -2.986614          -81.26990
     57       2.00000          -2.986614          -81.26989
     58       2.00000          -2.986614          -81.26989
     59       2.00000          -2.986566          -81.26861
     60       2.00000          -2.986566          -81.26861
     61       2.00000          -2.986566          -81.26861
     62       2.00000          -2.986566          -81.26861
     63       2.00000          -2.192142          -59.65122
     64       2.00000          -2.190777          -59.61408
     65       2.00000          -2.190343          -59.60227
     66       2.00000          -2.190343          -59.60227
     67       2.00000          -2.190233          -59.59927
     68       2.00000          -2.190233          -59.59927
     69       2.00000          -0.285573           -7.77083
     70       2.00000          -0.263206           -7.16219
     71       2.00000          -0.263206           -7.16219
     72       2.00000          -0.251464           -6.84268
     73       2.00000          -0.251463           -6.84265
     74       2.00000          -0.247233           -6.72756
     75       2.00000          -0.247233           -6.72756
     76       2.00000          -0.239598           -6.51980
     77       2.00000          -0.239598           -6.51980
     78       2.00000          -0.237693           -6.46795
     79       2.00000          -0.232514           -6.32703
     80       0.00000          -0.169155           -4.60294
     81       0.00000          -0.006146           -0.16724
     82       0.00000           0.001409            0.03835
     83       0.00000           0.001409            0.03835
     84       0.00000           0.061865            1.68342
     85       0.00000           0.061865            1.68342
     86       0.00000           0.147030            4.00089
     87       0.00000           0.213726            5.81577
     88       0.00000           0.222254            6.04785
     89       0.00000           0.222368            6.05094
     90       0.00000           0.253732            6.90441
     91       0.00000           0.253732            6.90441
     92       0.00000           0.284020            7.72857
     93       0.00000           0.290190            7.89646
     94       0.00000           0.290245            7.89797
     95       0.00000           0.360991            9.82306
     96       0.00000           0.372932           10.14800
     97       0.00000           0.372932           10.14800

  What follows are estimated values for band gap, HOMO, LUMO, etc.
  | They are estimated on a discrete k-point grid and not necessarily exact.
  | For converged numbers, create a DOS and/or band structure plot on a denser k-grid.

  Highest occupied state (VBM) at     -6.32702546 eV (relative to internal zero)
  | Occupation number:      2.00000000
  | K-point:       1 at    0.000000    0.000000    0.000000 (in units of recip. lattice)

  Lowest unoccupied state (CBM) at    -4.60294145 eV (relative to internal zero)
  | Occupation number:      0.00000000
  | K-point:       1 at    0.000000    0.000000    0.000000 (in units of recip. lattice)

  ESTIMATED overall HOMO-LUMO gap:      1.72408401 eV between HOMO at k-point 1 and LUMO at k-point 1
  | This appears to be a direct band gap.
  The gap value is above 0.2 eV. Unless you are using a very sparse k-point grid,
  this system is most likely an insulator or a semiconductor.

  Total energy components:
  | Sum of eigenvalues            :      -24769.71806193 Ha     -674018.32213988 eV
  | XC energy correction          :        -735.79705692 Ha      -20022.05662985 eV
  | XC potential correction       :         962.42750407 Ha       26188.98486659 eV
  | Free-atom electrostatic energy:      -14826.62824479 Ha     -403453.08200753 eV
  | Hartree energy correction     :           0.13061935 Ha           3.55433330 eV
  | Entropy correction            :          -0.00000000 Ha          -0.00000000 eV
  | ---------------------------
  | Total energy                  :      -39369.58524023 Ha    -1071300.92157737 eV
  | Total energy, T -> 0          :      -39369.58524023 Ha    -1071300.92157737 eV  <-- do not rely on this value for anything but (periodic) metals
  | Electronic free energy        :      -39369.58524023 Ha    -1071300.92157737 eV

  Derived energy quantities:
  | Kinetic energy                :       44179.81994356 Ha     1202194.06762504 eV
  | Electrostatic energy          :      -82813.60812687 Ha    -2253472.93257256 eV
  | Energy correction for multipole
  | error in Hartree potential    :          -0.00004098 Ha          -0.00111508 eV
  | Sum of eigenvalues per atom                           :     -337009.16106994 eV
  | Total energy (T->0) per atom                          :     -535650.46078868 eV  <-- do not rely on this value for anything but (periodic) metals
  | Electronic free energy per atom                       :     -535650.46078868 eV

  Self-consistency convergence accuracy:
  | Change of charge density      :  0.8313E-01
  | Change of sum of eigenvalues  : -0.3462E+01 eV
  | Change of total energy        :  0.4148E-01 eV

  End self-consistency iteration #     1       :  max(cpu_time)    wall_clock(cpu1)
  | Time for this iteration                    :        0.121 s           0.121 s
  | Charge density update                      :        0.018 s           0.018 s
  | Density mixing & preconditioning           :        0.011 s           0.011 s
  | Hartree multipole update                   :        0.005 s           0.004 s
  | Hartree multipole summation                :        0.067 s           0.067 s
  | Integration                                :        0.014 s           0.014 s
  | Solution of K.-S. eqns.                    :        0.006 s           0.006 s
  | Total energy evaluation                    :        0.000 s           0.000 s

  Partial memory accounting:
  | Current value for overall tracked memory usage:
  |   Minimum:        0.265 MB (on task  9)
  |   Maximum:        0.338 MB (on task  0)
  |   Average:        0.296 MB
  | Peak value for overall tracked memory usage:
  |   Minimum:        0.925 MB (on task  9 after allocating gradient_basis_wave)
  |   Maximum:        1.022 MB (on task 12 after allocating gradient_basis_wave)
  |   Average:        0.961 MB
  | Largest tracked array allocation so far:
  |   Minimum:        0.296 MB (gradient_basis_wave on task  0)
  |   Maximum:        0.313 MB (gradient_basis_wave on task  1)
  |   Average:        0.301 MB
  Note:  These values currently only include a subset of arrays which are explicitly tracked.
  The "true" memory usage will be greater.
------------------------------------------------------------

------------------------------------------------------------
          Begin self-consistency iteration #    2

  Date     :  20190902, Time     :  135122.797
------------------------------------------------------------
  Evaluating new KS density using the density matrix
  Evaluating density matrix
  Time summed over all CPUs for getting density from density matrix: real work        0.291 s, elapsed        0.314 s
  Integration grid: deviation in total charge (<rho> - N_e) =   2.273737E-13
  Pulay mixing of updated and previous charge densities.
  Renormalizing the density to the exact electron count on the 3D integration grid.
  | Formal number of electrons (from input files) :     158.0000000000
  | Integrated number of electrons on 3D grid     :     158.0018162204
  | Charge integration error                      :       0.0018162204
  | Normalization factor for density and gradient :       0.9999885051

  Evaluating partitioned Hartree potential by multipole expansion.
  | Original multipole sum: apparent total charge =  -0.151563E-12
  | Sum of charges compensated after spline to logarithmic grids =  -0.119027E-05
  | Analytical far-field extrapolation by fixed multipoles:
  | Hartree multipole sum: apparent total charge =   0.000000E+00
  Summing up the Hartree potential.
  Time summed over all CPUs for potential: real work        1.100 s, elapsed        1.154 s
  | RMS charge density error from multipole expansion :   0.107629E-02
  | Average real-space part of the electrostatic potential :      0.00434894 eV

  Integrating Hamiltonian matrix: batch-based integration.
  Time summed over all CPUs for integration: real work        0.256 s, elapsed        0.276 s

  Updating Kohn-Sham eigenvalues and eigenvectors using ELSI and the ELPA eigensolver.
  Starting ELPA eigensolver
  Finished transformation to standard eigenproblem
  | Time :     0.000 s
  Finished solving standard eigenproblem
  | Time :     0.003 s
  Finished back-transformation of eigenvectors
  | Time :     0.000 s

  Obtaining occupation numbers and chemical potential using ELSI.
  | Chemical potential (Fermi level):    -6.04524787 eV
  What follows are estimated values for band gap, HOMO, LUMO, etc.
  | They are estimated on a discrete k-point grid and not necessarily exact.
  | For converged numbers, create a DOS and/or band structure plot on a denser k-grid.

  Highest occupied state (VBM) at     -6.19165346 eV (relative to internal zero)
  | Occupation number:      2.00000000
  | K-point:       1 at    0.000000    0.000000    0.000000 (in units of recip. lattice)

  Lowest unoccupied state (CBM) at    -4.70667873 eV (relative to internal zero)
  | Occupation number:      0.00000000
  | K-point:       1 at    0.000000    0.000000    0.000000 (in units of recip. lattice)

  ESTIMATED overall HOMO-LUMO gap:      1.48497473 eV between HOMO at k-point 1 and LUMO at k-point 1
  | This appears to be a direct band gap.
  The gap value is above 0.2 eV. Unless you are using a very sparse k-point grid,
  this system is most likely an insulator or a semiconductor.

  Checking to see if s.c.f. parameters should be adjusted.
  The system likely has a gap. Increased the default Pulay mixing parameter (charge_mix_param). Value:   0.200000 .
  Kept the default occupation width. Value:   0.010000 eV.

  Total energy components:
  | Sum of eigenvalues            :      -24770.74492070 Ha     -674046.26438851 eV
  | XC energy correction          :        -735.74878485 Ha      -20020.74307988 eV
  | XC potential correction       :         962.36473341 Ha       26187.27679003 eV
  | Free-atom electrostatic energy:      -14826.62824479 Ha     -403453.08200753 eV
  | Hartree energy correction     :           1.17693816 Ha          32.02611688 eV
  | Entropy correction            :          -0.00000000 Ha          -0.00000000 eV
  | ---------------------------
  | Total energy                  :      -39369.58027876 Ha    -1071300.78656901 eV
  | Total energy, T -> 0          :      -39369.58027876 Ha    -1071300.78656901 eV  <-- do not rely on this value for anything but (periodic) metals
  | Electronic free energy        :      -39369.58027876 Ha    -1071300.78656901 eV

  Derived energy quantities:
  | Kinetic energy                :       44178.59747171 Ha     1202160.80247347 eV
  | Electrostatic energy          :      -82812.42896563 Ha    -2253440.84596260 eV
  | Energy correction for multipole
  | error in Hartree potential    :          -0.00039718 Ha          -0.01080779 eV
  | Sum of eigenvalues per atom                           :     -337023.13219425 eV
  | Total energy (T->0) per atom                          :     -535650.39328450 eV  <-- do not rely on this value for anything but (periodic) metals
  | Electronic free energy per atom                       :     -535650.39328450 eV

  Self-consistency convergence accuracy:
  | Change of charge density      :  0.7517E-01
  | Change of sum of eigenvalues  : -0.2794E+02 eV
  | Change of total energy        :  0.1350E+00 eV

  End self-consistency iteration #     2       :  max(cpu_time)    wall_clock(cpu1)
  | Time for this iteration                    :        0.120 s           0.119 s
  | Charge density update                      :        0.018 s           0.017 s
  | Density mixing & preconditioning           :        0.011 s           0.011 s
  | Hartree multipole update                   :        0.004 s           0.004 s
  | Hartree multipole summation                :        0.067 s           0.067 s
  | Integration                                :        0.015 s           0.014 s
  | Solution of K.-S. eqns.                    :        0.006 s           0.006 s
  | Total energy evaluation                    :        0.000 s           0.000 s

  Partial memory accounting:
  | Current value for overall tracked memory usage:
  |   Minimum:        0.266 MB (on task  9)
  |   Maximum:        0.339 MB (on task  0)
  |   Average:        0.297 MB
  | Peak value for overall tracked memory usage:
  |   Minimum:        0.925 MB (on task  9 after allocating gradient_basis_wave)
  |   Maximum:        1.022 MB (on task 12 after allocating gradient_basis_wave)
  |   Average:        0.961 MB
  | Largest tracked array allocation so far:
  |   Minimum:        0.296 MB (gradient_basis_wave on task  0)
  |   Maximum:        0.313 MB (gradient_basis_wave on task  1)
  |   Average:        0.301 MB
  Note:  These values currently only include a subset of arrays which are explicitly tracked.
  The "true" memory usage will be greater.
------------------------------------------------------------

------------------------------------------------------------
          Begin self-consistency iteration #    3

  Date     :  20190902, Time     :  135122.917
------------------------------------------------------------
  Evaluating new KS density using the density matrix
  Evaluating density matrix
  Time summed over all CPUs for getting density from density matrix: real work        0.290 s, elapsed        0.314 s
  Integration grid: deviation in total charge (<rho> - N_e) =   2.273737E-13
  Pulay mixing of updated and previous charge densities.
  Renormalizing the density to the exact electron count on the 3D integration grid.
  | Formal number of electrons (from input files) :     158.0000000000
  | Integrated number of electrons on 3D grid     :     158.0007268505
  | Charge integration error                      :       0.0007268505
  | Normalization factor for density and gradient :       0.9999953997

  Evaluating partitioned Hartree potential by multipole expansion.
  | Original multipole sum: apparent total charge =  -0.492720E-14
  | Sum of charges compensated after spline to logarithmic grids =   0.560748E-05
  | Analytical far-field extrapolation by fixed multipoles:
  | Hartree multipole sum: apparent total charge =   0.000000E+00
  Summing up the Hartree potential.
  Time summed over all CPUs for potential: real work        1.102 s, elapsed        1.155 s
  | RMS charge density error from multipole expansion :   0.155013E-02
  | Average real-space part of the electrostatic potential :      0.00506960 eV

  Integrating Hamiltonian matrix: batch-based integration.
  Time summed over all CPUs for integration: real work        0.256 s, elapsed        0.276 s

  Updating Kohn-Sham eigenvalues and eigenvectors using ELSI and the ELPA eigensolver.
  Starting ELPA eigensolver
  Finished transformation to standard eigenproblem
  | Time :     0.001 s
  Finished solving standard eigenproblem
  | Time :     0.002 s
  Finished back-transformation of eigenvectors
  | Time :     0.000 s

  Obtaining occupation numbers and chemical potential using ELSI.
  | Chemical potential (Fermi level):    -6.06306883 eV
  What follows are estimated values for band gap, HOMO, LUMO, etc.
  | They are estimated on a discrete k-point grid and not necessarily exact.
  | For converged numbers, create a DOS and/or band structure plot on a denser k-grid.

  Highest occupied state (VBM) at     -6.22807782 eV (relative to internal zero)
  | Occupation number:      2.00000000
  | K-point:       1 at    0.000000    0.000000    0.000000 (in units of recip. lattice)

  Lowest unoccupied state (CBM) at    -4.71647762 eV (relative to internal zero)
  | Occupation number:      0.00000000
  | K-point:       1 at    0.000000    0.000000    0.000000 (in units of recip. lattice)

  ESTIMATED overall HOMO-LUMO gap:      1.51160020 eV between HOMO at k-point 1 and LUMO at k-point 1
  | This appears to be a direct band gap.
  The gap value is above 0.2 eV. Unless you are using a very sparse k-point grid,
  this system is most likely an insulator or a semiconductor.

  Total energy components:
  | Sum of eigenvalues            :      -24771.17770873 Ha     -674058.04114999 eV
  | XC energy correction          :        -735.74368170 Ha      -20020.60421617 eV
  | XC potential correction       :         962.35793607 Ha       26187.09182500 eV
  | Free-atom electrostatic energy:      -14826.62824479 Ha     -403453.08200753 eV
  | Hartree energy correction     :           1.61172842 Ha          43.85736171 eV
  | Entropy correction            :          -0.00000000 Ha          -0.00000000 eV
  | ---------------------------
  | Total energy                  :      -39369.57997073 Ha    -1071300.77818699 eV
  | Total energy, T -> 0          :      -39369.57997073 Ha    -1071300.77818699 eV  <-- do not rely on this value for anything but (periodic) metals
  | Electronic free energy        :      -39369.57997073 Ha    -1071300.77818699 eV

  Derived energy quantities:
  | Kinetic energy                :       44178.75746419 Ha     1202165.15609026 eV
  | Electrostatic energy          :      -82812.59375322 Ha    -2253445.33006108 eV
  | Energy correction for multipole
  | error in Hartree potential    :          -0.00071219 Ha          -0.01937971 eV
  | Sum of eigenvalues per atom                           :     -337029.02057499 eV
  | Total energy (T->0) per atom                          :     -535650.38909349 eV  <-- do not rely on this value for anything but (periodic) metals
  | Electronic free energy per atom                       :     -535650.38909349 eV

  Self-consistency convergence accuracy:
  | Change of charge density      :  0.2815E-01
  | Change of sum of eigenvalues  : -0.1178E+02 eV
  | Change of total energy        :  0.8382E-02 eV

  End self-consistency iteration #     3       :  max(cpu_time)    wall_clock(cpu1)
  | Time for this iteration                    :        0.121 s           0.119 s
  | Charge density update                      :        0.018 s           0.016 s
  | Density mixing & preconditioning           :        0.012 s           0.012 s
  | Hartree multipole update                   :        0.004 s           0.004 s
  | Hartree multipole summation                :        0.068 s           0.067 s
  | Integration                                :        0.015 s           0.014 s
  | Solution of K.-S. eqns.                    :        0.006 s           0.006 s
  | Total energy evaluation                    :        0.000 s           0.000 s

  Partial memory accounting:
  | Current value for overall tracked memory usage:
  |   Minimum:        0.266 MB (on task  9)
  |   Maximum:        0.339 MB (on task  0)
  |   Average:        0.297 MB
  | Peak value for overall tracked memory usage:
  |   Minimum:        0.925 MB (on task  9 after allocating gradient_basis_wave)
  |   Maximum:        1.023 MB (on task 12 after allocating gradient_basis_wave)
  |   Average:        0.961 MB
  | Largest tracked array allocation so far:
  |   Minimum:        0.296 MB (gradient_basis_wave on task  0)
  |   Maximum:        0.313 MB (gradient_basis_wave on task  1)
  |   Average:        0.301 MB
  Note:  These values currently only include a subset of arrays which are explicitly tracked.
  The "true" memory usage will be greater.
------------------------------------------------------------

------------------------------------------------------------
          Begin self-consistency iteration #    4

  Date     :  20190902, Time     :  135123.037
------------------------------------------------------------
  Evaluating new KS density using the density matrix
  Evaluating density matrix
  Time summed over all CPUs for getting density from density matrix: real work        0.290 s, elapsed        0.313 s
  Integration grid: deviation in total charge (<rho> - N_e) =   2.273737E-13
  Pulay mixing of updated and previous charge densities.
  Renormalizing the density to the exact electron count on the 3D integration grid.
  | Formal number of electrons (from input files) :     158.0000000000
  | Integrated number of electrons on 3D grid     :     158.0002445264
  | Charge integration error                      :       0.0002445264
  | Normalization factor for density and gradient :       0.9999984524

  Evaluating partitioned Hartree potential by multipole expansion.
  | Original multipole sum: apparent total charge =   0.787815E-14
  | Sum of charges compensated after spline to logarithmic grids =   0.122000E-04
  | Analytical far-field extrapolation by fixed multipoles:
  | Hartree multipole sum: apparent total charge =   0.000000E+00
  Summing up the Hartree potential.
  Time summed over all CPUs for potential: real work        1.101 s, elapsed        1.155 s
  | RMS charge density error from multipole expansion :   0.182487E-02
  | Average real-space part of the electrostatic potential :      0.00546289 eV

  Integrating Hamiltonian matrix: batch-based integration.
  Time summed over all CPUs for integration: real work        0.256 s, elapsed        0.276 s

  Updating Kohn-Sham eigenvalues and eigenvectors using ELSI and the ELPA eigensolver.
  Starting ELPA eigensolver
  Finished transformation to standard eigenproblem
  | Time :     0.001 s
  Finished solving standard eigenproblem
  | Time :     0.002 s
  Finished back-transformation of eigenvectors
  | Time :     0.000 s

  Obtaining occupation numbers and chemical potential using ELSI.
  | Chemical potential (Fermi level):    -6.06149392 eV
  What follows are estimated values for band gap, HOMO, LUMO, etc.
  | They are estimated on a discrete k-point grid and not necessarily exact.
  | For converged numbers, create a DOS and/or band structure plot on a denser k-grid.

  Highest occupied state (VBM) at     -6.22949967 eV (relative to internal zero)
  | Occupation number:      2.00000000
  | K-point:       1 at    0.000000    0.000000    0.000000 (in units of recip. lattice)

  Lowest unoccupied state (CBM) at    -4.71422223 eV (relative to internal zero)
  | Occupation number:      0.00000000
  | K-point:       1 at    0.000000    0.000000    0.000000 (in units of recip. lattice)

  ESTIMATED overall HOMO-LUMO gap:      1.51527745 eV between HOMO at k-point 1 and LUMO at k-point 1
  | This appears to be a direct band gap.
  The gap value is above 0.2 eV. Unless you are using a very sparse k-point grid,
  this system is most likely an insulator or a semiconductor.

  Total energy components:
  | Sum of eigenvalues            :      -24771.13485762 Ha     -674056.87511199 eV
  | XC energy correction          :        -735.74690400 Ha      -20020.69189953 eV
  | XC potential correction       :         962.36209114 Ha       26187.20489013 eV
  | Free-atom electrostatic energy:      -14826.62824479 Ha     -403453.08200753 eV
  | Hartree energy correction     :           1.56796403 Ha          42.66647199 eV
  | Entropy correction            :          -0.00000000 Ha          -0.00000000 eV
  | ---------------------------
  | Total energy                  :      -39369.57995125 Ha    -1071300.77765693 eV
  | Total energy, T -> 0          :      -39369.57995125 Ha    -1071300.77765693 eV  <-- do not rely on this value for anything but (periodic) metals
  | Electronic free energy        :      -39369.57995125 Ha    -1071300.77765693 eV

  Derived energy quantities:
  | Kinetic energy                :       44179.05646670 Ha     1202173.29236252 eV
  | Electrostatic energy          :      -82812.88951394 Ha    -2253453.37811993 eV
  | Energy correction for multipole
  | error in Hartree potential    :          -0.00088921 Ha          -0.02419664 eV
  | Sum of eigenvalues per atom                           :     -337028.43755600 eV
  | Total energy (T->0) per atom                          :     -535650.38882847 eV  <-- do not rely on this value for anything but (periodic) metals
  | Electronic free energy per atom                       :     -535650.38882847 eV

  Self-consistency convergence accuracy:
  | Change of charge density      :  0.1483E-01
  | Change of sum of eigenvalues  :  0.1166E+01 eV
  | Change of total energy        :  0.5301E-03 eV

  End self-consistency iteration #     4       :  max(cpu_time)    wall_clock(cpu1)
  | Time for this iteration                    :        0.120 s           0.119 s
  | Charge density update                      :        0.018 s           0.017 s
  | Density mixing & preconditioning           :        0.012 s           0.011 s
  | Hartree multipole update                   :        0.004 s           0.004 s
  | Hartree multipole summation                :        0.068 s           0.067 s
  | Integration                                :        0.014 s           0.014 s
  | Solution of K.-S. eqns.                    :        0.006 s           0.006 s
  | Total energy evaluation                    :        0.000 s           0.000 s

  Partial memory accounting:
  | Current value for overall tracked memory usage:
  |   Minimum:        0.266 MB (on task  9)
  |   Maximum:        0.339 MB (on task  0)
  |   Average:        0.297 MB
  | Peak value for overall tracked memory usage:
  |   Minimum:        0.925 MB (on task  9 after allocating gradient_basis_wave)
  |   Maximum:        1.023 MB (on task 12 after allocating gradient_basis_wave)
  |   Average:        0.961 MB
  | Largest tracked array allocation so far:
  |   Minimum:        0.296 MB (gradient_basis_wave on task  0)
  |   Maximum:        0.313 MB (gradient_basis_wave on task  1)
  |   Average:        0.301 MB
  Note:  These values currently only include a subset of arrays which are explicitly tracked.
  The "true" memory usage will be greater.
------------------------------------------------------------

------------------------------------------------------------
          Begin self-consistency iteration #    5

  Date     :  20190902, Time     :  135123.157
------------------------------------------------------------
  Evaluating new KS density using the density matrix
  Evaluating density matrix
  Time summed over all CPUs for getting density from density matrix: real work        0.290 s, elapsed        0.312 s
  Integration grid: deviation in total charge (<rho> - N_e) =   2.273737E-13
  Pulay mixing of updated and previous charge densities.
  Renormalizing the density to the exact electron count on the 3D integration grid.
  | Formal number of electrons (from input files) :     158.0000000000
[...]
  | Occupation number:      2.00000000
  | K-point:       1 at    0.000000    0.000000    0.000000 (in units of recip. lattice)

  Lowest unoccupied state (CBM) at    -4.69125039 eV (relative to internal zero)
  | Occupation number:      0.00000000
  | K-point:       1 at    0.000000    0.000000    0.000000 (in units of recip. lattice)

  ESTIMATED overall HOMO-LUMO gap:      1.49630024 eV between HOMO at k-point 1 and LUMO at k-point 1
  | This appears to be a direct band gap.
  The gap value is above 0.2 eV. Unless you are using a very sparse k-point grid,
  this system is most likely an insulator or a semiconductor.

  Total energy components:
  | Sum of eigenvalues            :      -24770.40448473 Ha     -674037.00065443 eV
  | XC energy correction          :        -735.76449072 Ha      -20021.17045829 eV
  | XC potential correction       :         962.38507132 Ha       26187.83021263 eV
  | Free-atom electrostatic energy:      -14826.62824479 Ha     -403453.08200753 eV
  | Hartree energy correction     :           0.83234090 Ha          22.64914827 eV
  | Entropy correction            :          -0.00000000 Ha          -0.00000000 eV
  | ---------------------------
  | Total energy                  :      -39369.57980802 Ha    -1071300.77375935 eV
  | Total energy, T -> 0          :      -39369.57980802 Ha    -1071300.77375935 eV  <-- do not rely on this value for anything but (periodic) metals
  | Electronic free energy        :      -39369.57980802 Ha    -1071300.77375935 eV

  Derived energy quantities:
  | Kinetic energy                :       44179.75812349 Ha     1202192.38541538 eV
  | Electrostatic energy          :      -82813.57344079 Ha    -2253471.98871643 eV
  | Energy correction for multipole
  | error in Hartree potential    :          -0.00105256 Ha          -0.02864171 eV
  | Sum of eigenvalues per atom                           :     -337018.50032721 eV
  | Total energy (T->0) per atom                          :     -535650.38687967 eV  <-- do not rely on this value for anything but (periodic) metals
  | Electronic free energy per atom                       :     -535650.38687967 eV

  Self-consistency convergence accuracy:
  | Change of charge density      :  0.3138E-06
  | Change of sum of eigenvalues  :  0.1154E-04 eV
  | Change of total energy        :  0.3762E-08 eV

  Preliminary charge convergence reached. Turning off preconditioner.

  Writing Kohn-Sham eigenvalues.
  K-point:       1 at    0.000000    0.000000    0.000000 (in units of recip. lattice)

  State    Occupation    Eigenvalue [Ha]    Eigenvalue [eV]
      1       2.00000       -3256.418126       -88611.64573
      2       2.00000       -3256.418126       -88611.64573
      3       2.00000        -533.659701       -14521.61932
      4       2.00000        -533.659701       -14521.61932
      5       2.00000        -460.391579       -12527.89228
      6       2.00000        -460.391579       -12527.89228
      7       2.00000        -460.391579       -12527.89228
      8       2.00000        -460.391579       -12527.89228
      9       2.00000        -460.391336       -12527.88567
     10       2.00000        -460.391336       -12527.88567
     11       2.00000        -124.238505        -3380.70172
     12       2.00000        -124.238505        -3380.70172
     13       2.00000        -103.456402        -2815.19193
     14       2.00000        -103.456402        -2815.19193
     15       2.00000        -103.456402        -2815.19193
     16       2.00000        -103.456402        -2815.19193
     17       2.00000        -103.454939        -2815.15213
     18       2.00000        -103.454939        -2815.15213
     19       2.00000         -81.372537        -2214.25940
     20       2.00000         -81.372537        -2214.25940
     21       2.00000         -81.372226        -2214.25092
     22       2.00000         -81.372226        -2214.25092
     23       2.00000         -81.371603        -2214.23397
     24       2.00000         -81.371603        -2214.23397
     25       2.00000         -81.371539        -2214.23222
     26       2.00000         -81.371539        -2214.23222
     27       2.00000         -81.371539        -2214.23222
     28       2.00000         -81.371539        -2214.23222
     29       2.00000         -26.850064         -730.62743
     30       2.00000         -26.850064         -730.62743
     31       2.00000         -20.082446         -546.47115
     32       2.00000         -20.082446         -546.47115
     33       2.00000         -20.082446         -546.47115
     34       2.00000         -20.082446         -546.47115
     35       2.00000         -20.081469         -546.44457
     36       2.00000         -20.081469         -546.44457
     37       2.00000         -11.981816         -326.04180
     38       2.00000         -11.981816         -326.04180
     39       2.00000         -11.981816         -326.04179
     40       2.00000         -11.981816         -326.04179
     41       2.00000         -11.981283         -326.02729
     42       2.00000         -11.981283         -326.02729
     43       2.00000         -11.981176         -326.02438
     44       2.00000         -11.981176         -326.02438
     45       2.00000         -11.981176         -326.02438
     46       2.00000         -11.981176         -326.02438
     47       2.00000          -3.979114         -108.27720
     48       2.00000          -3.979075         -108.27613
     49       2.00000          -2.991847          -81.41230
     50       2.00000          -2.991847          -81.41230
     51       2.00000          -2.991847          -81.41230
     52       2.00000          -2.991847          -81.41230
     53       2.00000          -2.991748          -81.40960
     54       2.00000          -2.991741          -81.40940
     55       2.00000          -2.991665          -81.40735
     56       2.00000          -2.991665          -81.40735
     57       2.00000          -2.991662          -81.40728
     58       2.00000          -2.991662          -81.40728
     59       2.00000          -2.991564          -81.40459
     60       2.00000          -2.991564          -81.40459
     61       2.00000          -2.991563          -81.40458
     62       2.00000          -2.991563          -81.40458
     63       2.00000          -2.199450          -59.85008
     64       2.00000          -2.198128          -59.81412
     65       2.00000          -2.191373          -59.63030
     66       2.00000          -2.191373          -59.63030
     67       2.00000          -2.191266          -59.62739
     68       2.00000          -2.191266          -59.62739
     69       2.00000          -0.287638           -7.82704
     70       2.00000          -0.264289           -7.19166
     71       2.00000          -0.264289           -7.19166
     72       2.00000          -0.248359           -6.75818
     73       2.00000          -0.248358           -6.75816
     74       2.00000          -0.244324           -6.64838
     75       2.00000          -0.244323           -6.64838
     76       2.00000          -0.242333           -6.59420
     77       2.00000          -0.242333           -6.59420
     78       2.00000          -0.240374           -6.54090
     79       2.00000          -0.227388           -6.18755
     80       0.00000          -0.172400           -4.69125
     81       0.00000          -0.009133           -0.24853
     82       0.00000           0.006831            0.18587
     83       0.00000           0.006831            0.18587
     84       0.00000           0.064861            1.76496
     85       0.00000           0.064861            1.76496
     86       0.00000           0.146335            3.98199
     87       0.00000           0.218232            5.93840
     88       0.00000           0.227723            6.19666
     89       0.00000           0.227835            6.19970
     90       0.00000           0.254638            6.92905
     91       0.00000           0.254638            6.92905
     92       0.00000           0.285716            7.77472
     93       0.00000           0.293910            7.99770
     94       0.00000           0.293963            7.99914
     95       0.00000           0.358792            9.76322
     96       0.00000           0.374590           10.19312
     97       0.00000           0.374590           10.19312

  What follows are estimated values for band gap, HOMO, LUMO, etc.
  | They are estimated on a discrete k-point grid and not necessarily exact.
  | For converged numbers, create a DOS and/or band structure plot on a denser k-grid.

  Highest occupied state (VBM) at     -6.18755064 eV (relative to internal zero)
  | Occupation number:      2.00000000
  | K-point:       1 at    0.000000    0.000000    0.000000 (in units of recip. lattice)

  Lowest unoccupied state (CBM) at    -4.69125039 eV (relative to internal zero)
  | Occupation number:      0.00000000
  | K-point:       1 at    0.000000    0.000000    0.000000 (in units of recip. lattice)

  ESTIMATED overall HOMO-LUMO gap:      1.49630024 eV between HOMO at k-point 1 and LUMO at k-point 1
  | This appears to be a direct band gap.
  The gap value is above 0.2 eV. Unless you are using a very sparse k-point grid,
  this system is most likely an insulator or a semiconductor.

  Self-consistency cycle converged.

  End self-consistency iteration #    14       :  max(cpu_time)    wall_clock(cpu1)
  | Time for this iteration                    :        0.122 s           0.122 s
  | Charge density update                      :        0.018 s           0.017 s
  | Density mixing                             :        0.013 s           0.012 s
  | Hartree multipole update                   :        0.004 s           0.005 s
  | Hartree multipole summation                :        0.068 s           0.067 s
  | Integration                                :        0.014 s           0.014 s
  | Solution of K.-S. eqns.                    :        0.006 s           0.005 s
  | Total energy evaluation                    :        0.000 s           0.000 s

  Partial memory accounting:
  | Current value for overall tracked memory usage:
  |   Minimum:        0.266 MB (on task  9)
  |   Maximum:        0.339 MB (on task  0)
  |   Average:        0.297 MB
  | Peak value for overall tracked memory usage:
  |   Minimum:        0.925 MB (on task  9 after allocating gradient_basis_wave)
  |   Maximum:        1.023 MB (on task 12 after allocating gradient_basis_wave)
  |   Average:        0.961 MB
  | Largest tracked array allocation so far:
  |   Minimum:        0.296 MB (gradient_basis_wave on task  0)
  |   Maximum:        0.313 MB (gradient_basis_wave on task  1)
  |   Average:        0.301 MB
  Note:  These values currently only include a subset of arrays which are explicitly tracked.
  The "true" memory usage will be greater.
------------------------------------------------------------

  Energy and forces in a compact form:
  | Total energy uncorrected      :         -0.107130077375935E+07 eV
  | Total energy corrected        :         -0.107130077375935E+07 eV  <-- do not rely on this value for anything but (periodic) metals
  | Electronic free energy        :         -0.107130077375935E+07 eV

  ------------------------------------ 
  Start decomposition of the XC Energy 
  ------------------------------------ 
  X and C from original XC functional choice 
  Hartree-Fock Energy :          0.000000000 Ha              0.000000000 eV
  X Energy            :       -726.134976396 Ha         -19759.138041620 eV
  C Energy            :         -9.629514319 Ha           -262.032416675 eV
  Total XC Energy     :       -735.764490715 Ha         -20021.170458295 eV
  ------------------------------------ 
  LDA X and C from self-consistent density 
  X Energy LDA        :       -696.903151937 Ha         -18963.699626610 eV
  C Energy LDA        :        -16.535992069 Ha           -449.967238290 eV
  ------------------------------------ 
  End decomposition of the XC Energy 
  ------------------------------------ 

------------------------------------------------------------

  Starting with the calculation of the Wannier Centers:
  |------------------------------------------------------
  | Final ELSI Output
  |------------------------------------------------------
  |
  | Physical Properties
  |   Number of electrons       :        0.15800000E+03
  |   Number of spins           :                     1
  |   Number of k-points        :                     2
  |   Number of states          :                    61
  |
  | Matrix Properties
  |   Matrix format             :           BLACS_DENSE
  |   Number of basis functions :                    76
  |   Matrix sparsity           :        0.71468144E+00
  |
  | Computational Details
  |   Parallel mode             :            MULTI_PROC
  |   Number of MPI tasks       :                    20
  |   Solver requested          :                  ELPA
  |   Number of ELSI calls      :                    15
  |
  |------------------------------------------------------
  | ELSI Project (c)  elsi-interchange.org
  |------------------------------------------------------

------------------------------------------------------------------------------
  Final output of selected total energy values:

  The following output summarizes some interesting total energy values
  at the end of a run (AFTER all relaxation, molecular dynamics, etc.).

  | Total energy of the DFT / Hartree-Fock s.c.f. calculation      :       -1071300.773759348 eV
  | Final zero-broadening corrected energy (caution - metals only) :       -1071300.773759348 eV
  | For reference only, the value of 1 Hartree used in FHI-aims is :             27.211384500 eV
  | For reference only, the overall average (free atom contribution
  | + realspace contribution) of the electrostatic potential after
  | s.c.f. convergence is                                          :             -0.459540886 eV

  Before relying on these values, please be sure to understand exactly which
  total energy value is referred to by a given number. Different objects may
  all carry the same name 'total energy'. Definitions:

  Total energy of the DFT / Hartree-Fock s.c.f. calculation:
  | Note that this energy does not include ANY quantities calculated after the
  | s.c.f. cycle, in particular not ANY RPA, MP2, etc. many-body perturbation terms.

  Final zero-broadening corrected energy:
  | For metallic systems only, a broadening of the occupation numbers at the Fermi
  | level can be extrapolated back to zero broadening by an electron-gas inspired
  | formula. For all systems that are not real metals, this value can be
  | meaningless and should be avoided.

------------------------------------------------------------------------------
  Methods described in the following list of references were used in this FHI-aims run.
  If you publish the results, please make sure to cite these reference if they apply.
  FHI-aims is an academic code, and for our developers (often, Ph.D. students
  and postdocs), scientific credit in the community is essential.
  Thank you for helping us!

  For any use of FHI-aims, please cite:

    Volker Blum, Ralf Gehrke, Felix Hanke, Paula Havu, Ville Havu,
    Xinguo Ren, Karsten Reuter, and Matthias Scheffler
    'Ab initio molecular simulations with numeric atom-centered orbitals'
    Computer Physics Communications 180, 2175-2196 (2009)
    http://dx.doi.org/10.1016/j.cpc.2009.06.022


  The provided symmetry information was generated with SPGlib:

    Atsushi Togo, Yusuke Seto, Dimitar Pashov
    SPGlib 1.7.3 obtained from http://spglib.sourceforge.net
    Copyright (C) 2008 Atsushi Togo


  The ELSI infrastructure was used in your run to solve the Kohn-Sham electronic structure.
  Please check out http://elsi-interchange.org to learn more.
  If scalability is important for your project, please acknowledge ELSI by citing:

    V. W-z. Yu, F. Corsetti, A. Garcia, W. P. Huhn, M. Jacquelin, W. Jia,
    B. Lange, L. Lin, J. Lu, W. Mi, A. Seifitokaldani, A. Vazquez-Mayagoitia,
    C. Yang, H. Yang, and V. Blum
    'ELSI: A unified software interface for Kohn-Sham electronic structure solvers'
    Computer Physics Communications 222, 267-285 (2018).
    http://dx.doi.org/10.1016/j.cpc.2017.09.007


  For the real-space grid partitioning and parallelization used in this calculation, please cite:

    Ville Havu, Volker Blum, Paula Havu, and Matthias Scheffler,
    'Efficient O(N) integration for all-electron electronic structure calculation'
    'using numerically tabulated basis functions'
    Journal of Computational Physics 228, 8367-8379 (2009).
    http://dx.doi.org/10.1016/j.jcp.2009.08.008

  Of course, there are many other important community references, e.g., those cited in the
  above references. Our list is limited to references that describe implementations in the
  FHI-aims code. The reason is purely practical (length of this list) - please credit others as well.

 * A warning was issued further up regarding the accuracy of onsite integrals.
   An integral with a negative eigenvalue was among the flagged integrals.
   In most standard situations, this warning is probably harmless.
   If needed, this can be verified by adjusting the radial_multiplier flag.

------------------------------------------------------------
          Leaving FHI-aims.
          Date     :  20190902, Time     :  135124.373

          Computational steps:
          | Number of self-consistency cycles          :           14
          | Number of SCF (re)initializations          :            1

          Detailed time accounting                     :  max(cpu_time)    wall_clock(cpu1)
          | Total time                                 :        2.616 s           2.614 s
          | Preparation time                           :        0.675 s           0.675 s
          | Boundary condition initalization           :        0.104 s           0.104 s
          | Grid partitioning                          :        0.029 s           0.028 s
          | Preloading free-atom quantities on grid    :        0.004 s           0.004 s
          | Free-atom superposition energy             :        0.002 s           0.001 s
          | Total time for integrations                :        0.222 s           0.217 s
          | Total time for solution of K.-S. equations :        0.097 s           0.093 s
          | Total time for density update              :        0.251 s           0.233 s
          | Total time for mixing & preconditioning    :        0.172 s           0.167 s
          | Total time for Hartree multipole update    :        0.059 s           0.059 s
          | Total time for Hartree multipole sum       :        0.950 s           0.940 s
          | Total time for total energy evaluation     :        0.003 s           0.001 s
          | Total time for scaled ZORA corrections     :        0.000 s           0.000 s

          Partial memory accounting:
          | Residual value for overall tracked memory usage across tasks:     0.000000 MB (should be 0.000000 MB)
          | Peak values for overall tracked memory usage:
          |   Minimum:        0.925 MB (on task  9 after allocating gradient_basis_wave)
          |   Maximum:        1.023 MB (on task 12 after allocating gradient_basis_wave)
          |   Average:        0.961 MB
          | Largest tracked array allocation:
          |   Minimum:        0.296 MB (gradient_basis_wave on task  0)
          |   Maximum:        0.313 MB (gradient_basis_wave on task  1)
          |   Average:        0.301 MB
          Note:  These values currently only include a subset of arrays which are explicitly tracked.
          The "true" memory usage will be greater.

          Have a nice day.
------------------------------------------------------------
