  MPI-parallelism will be employed.
------------------------------------------------------------
          Invoking FHI-aims ...

          When using FHI-aims, please cite the following reference:

          Volker Blum, Ralf Gehrke, Felix Hanke, Paula Havu,
          Ville Havu, Xinguo Ren, Karsten Reuter, and Matthias Scheffler,
          'Ab Initio Molecular Simulations with Numeric Atom-Centered Orbitals',
          Computer Physics Communications 180, 2175-2196 (2009)

          For any questions about FHI-aims, please visit the aimsclub website
          with its forums and wiki. Contributions to both the forums and the
          wiki are warmly encouraged - they are for you, and everyone is welcome there.

------------------------------------------------------------



  Date     :  20190817, Time     :  153204.707
  Time zero on CPU 1             :   0.347370000000000E-01  s.
  Internal wall clock time zero  :           335287924.707  s.

  FHI-aims created a unique identifier for this run for later identification
  aims_uuid : ECF4A257-F3F0-4E98-ADD0-D72B0D45C278

  Build configuration of the current instance of FHI-aims
  -------------------------------------------------------
  FHI-aims version      : 190813
  Commit number         : 3da7baeb3
  CMake host system     : Linux-4.4.180-94.97-default
  CMake version         : 3.5.2
  Fortran compiler      : /mpcdf/soft/SLE_12_SP3/packages/x86_64/intel_parallel_studio/2018.4/compilers_and_libraries_2018.5.274/linux/mpi/bin64/mpiifort (Intel) version 18.0.5.20180823
  Fortran compiler flags: -O3 -ip -fp-model precise
  C compiler            : /mpcdf/soft/SLE_12_SP3/packages/skylake/intel/18.0.5/bin/icc (Intel) version 18.0.5.20180823
  C compiler flags      : -O3 -ip -fp-model precise
  Architecture          :
  Using MPI
  Using Scalapack
  Using C files
  Using SPGlib
  Using i-PI
  Linking against: /mpcdf/soft/SLE_12_SP3/packages/x86_64/anaconda/3.5.1.0/lib/libmkl_intel_lp64.so
                   /mpcdf/soft/SLE_12_SP3/packages/x86_64/anaconda/3.5.1.0/lib/libmkl_sequential.so
                   /mpcdf/soft/SLE_12_SP3/packages/x86_64/anaconda/3.5.1.0/lib/libmkl_core.so
                   /mpcdf/soft/SLE_12_SP3/packages/x86_64/anaconda/3.5.1.0/lib/libmkl_blacs_intelmpi_lp64.so
                   /mpcdf/soft/SLE_12_SP3/packages/x86_64/anaconda/3.5.1.0/lib/libmkl_scalapack_lp64.so

  Using        8 parallel tasks.
  Task        0 on host co1631 reporting.
  Task        1 on host co1631 reporting.
  Task        2 on host co1631 reporting.
  Task        3 on host co1631 reporting.
  Task        4 on host co1631 reporting.
  Task        5 on host co1631 reporting.
  Task        6 on host co1631 reporting.
  Task        7 on host co1631 reporting.

  Performing system and environment tests:
  | Environment variable OMP_NUM_THREADS correctly set to 1.
  | Maximum stacksize for task 0: unlimited
  | Maximum stacksize for task 1: unlimited
  | Maximum stacksize for task 2: unlimited
  | Maximum stacksize for task 3: unlimited
  | Maximum stacksize for task 4: unlimited
  | Maximum stacksize for task 5: unlimited
  | Maximum stacksize for task 6: unlimited
  | Maximum stacksize for task 7: unlimited
  | Current stacksize for task 0: unlimited
  | Current stacksize for task 1: unlimited
  | Current stacksize for task 2: unlimited
  | Current stacksize for task 3: unlimited
  | Current stacksize for task 4: unlimited
  | Current stacksize for task 5: unlimited
  | Current stacksize for task 6: unlimited
  | Current stacksize for task 7: unlimited
  | Checking for scalapack...
  | Testing pdtran()...
  | All pdtran() tests passed.

  Obtaining array dimensions for all initial allocations:
  
  -----------------------------------------------------------------------
  Parsing control.in (first pass over file, find array dimensions only).
  The contents of control.in will be repeated verbatim below
  unless switched off by setting 'verbatim_writeout .false.' .
  in the first line of control.in .
  -----------------------------------------------------------------------
  
  
  
    #
    #  Physical model settings
    #
      xc               pw-lda
      charge           0.
      spin             collinear
        default_initial_moment 1
      relativistic     zora scalar 1e-12
    #  multiplicity     5
      fixed_spin_moment 4
    #
    #  SCF convergence settings
    #
      occupation_type  gaussian 0.1
      mixer            pulay
        n_max_pulay             10
        charge_mix_param        0.2
        # preconditioner kerker 1.5
        # precondition_max_l    0
        # preconditioner turnoff charge 1e-4
      sc_accuracy_rho  1E-4
      sc_accuracy_eev  1E-2
      sc_accuracy_etot 1E-6
      sc_iter_limit    100
    #
    #  Eigenvalue solver
    #
    #  KS_method        scalapack_fast
    #    basis_threshold  1.e-5
  
     output dos -15.0 4.0 1000 0.1
     output atom_proj_dos -15.0 4.0 1000 0.1
     output mulliken
  
  ################################################################################
  #
  #  FHI-aims code project
  #  VB, Fritz-Haber Institut, 2009
  #
  #  Suggested "light" defaults for O atom (to be pasted into control.in file)
  #  Be sure to double-check any results obtained with these settings for post-processing,
  #  e.g., with the "tight" defaults and larger basis sets.
  #
  ################################################################################
    species        O
  #     global species definitions
      nucleus             8
      mass                15.9994
  #
      l_hartree           4
  #
      cut_pot             3.5  1.5  1.0
      basis_dep_cutoff    1e-4
  #
      radial_base         36 5.0
      radial_multiplier   1
       angular_grids specified
        division   0.2659   50
        division   0.4451  110
        division   0.6052  194
        division   0.7543  302
  #      division   0.8014  434
  #      division   0.8507  590
  #      division   0.8762  770
  #      division   0.9023  974
  #      division   1.2339 1202
  #      outer_grid 974
        outer_grid 302
  ################################################################################
  #
  #  Definition of "minimal" basis
  #
  ################################################################################
  #     valence basis states
      valence      2  s   2.
      valence      2  p   4.
  #     ion occupancy
      ion_occ      2  s   1.
      ion_occ      2  p   3.
  ################################################################################
  #
  #  Suggested additional basis functions. For production calculations,
  #  uncomment them one after another (the most important basis functions are
  #  listed first).
  #
  #  Constructed for dimers: 1.0 A, 1.208 A, 1.5 A, 2.0 A, 3.0 A
  #
  ################################################################################
  #  "First tier" - improvements: -699.05 meV to -159.38 meV
       hydro 2 p 1.8
       hydro 3 d 7.6
       hydro 3 s 6.4
  #  "Second tier" - improvements: -49.91 meV to -5.39 meV
  #     hydro 4 f 11.6
  #     hydro 3 p 6.2
  #     hydro 3 d 5.6
  #     hydro 5 g 17.6
  #     hydro 1 s 0.75
  #  "Third tier" - improvements: -2.83 meV to -0.50 meV
  #     ionic 2 p auto
  #     hydro 4 f 10.8
  #     hydro 4 d 4.7
  #     hydro 2 s 6.8
  #  "Fourth tier" - improvements: -0.40 meV to -0.12 meV
  #     hydro 3 p 5
  #     hydro 3 s 3.3
  #     hydro 5 g 15.6
  #     hydro 4 f 17.6
  #     hydro 4 d 14
  # Further basis functions - -0.08 meV and below
  #     hydro 3 s 2.1
  #     hydro 4 d 11.6
  #     hydro 3 p 16
  #     hydro 2 s 17.2
  
  ################################################################################
  #
  #  FHI-aims code project
  #  VB, Fritz-Haber Institut, 2009
  #
  #  Suggested "light" defaults for Pd atom (to be pasted into control.in file)
  #  Be sure to double-check any results obtained with these settings for post-processing,
  #  e.g., with the "tight" defaults and larger basis sets.
  #
  ################################################################################
    species        Pd
  #     global species definitions
      nucleus             46
      mass                106.42
  #
      l_hartree           4
  #
      cut_pot             3.5  1.5  1.0
      basis_dep_cutoff    1e-4
  #
      radial_base         62 5.0
      radial_multiplier   1
      angular_grids specified
        division   0.5211   50
        division   0.9161  110
        division   1.2296  194
        division   1.5678  302
  #      division   1.9785  434
  #      division   2.0474  590
  #      division   2.1195  770
  #      division   2.1568  974
  #      division   2.7392 1202
  #       outer_grid  974
         outer_grid  302
  ################################################################################
  #
  #  Definition of "minimal" basis
  #
  ################################################################################
  #     valence basis states
      valence      5  s   1.
      valence      4  p   6.
      valence      4  d   9.
  #     ion occupancy
      ion_occ     5  s   0.
      ion_occ     4  p   6.
      ion_occ     4  d   8.
  ################################################################################
  #
  #  Suggested additional basis functions. For production calculations,
  #  uncomment them one after another (the most important basis functions are
  #  listed first).
  #
  #  Constructed for dimers: 2.0 A, 2.275 A, 2.75 A, 3.75 A
  #
  ################################################################################
  #  "First tier" - max. impr. -120.76  meV, min. impr. -5.71 meV
       ionic 5 p auto
       hydro 4 f 8
  #     hydro 5 g 10
       hydro 3 s 2.6
       hydro 3 d 2.5
  #  "Second tier" - max. impr. -5.00  meV, min. impr. -0.62 meV
  #     hydro 5 f 17.2
  #     hydro 6 h 14
  #     hydro 4 d 4
  #     hydro 5 f 7.6
  #     hydro 3 p 3.3
  #     hydro 4 s 9.4
  #  "Third tier" - max. impr. -0.54  meV, min. impr. -0.14 meV
  #     hydro 4 f 20
  #     hydro 5 g 12.8
  #     hydro 5 d 9.8
  #     hydro 6 h 15.2
  #     hydro 5 s 10
  #     hydro 6 p 9.8
  #  "Fourth tier" - max. impr. -0.15  meV, min. impr. -0.05 meV
  #     hydro 5 f 9.2
  #     hydro 2 s 5.6
  #     hydro 5 f 43.2
  #     hydro 5 d 13.2
  #     hydro 5 g 14
  #     hydro 4 p 4.7
  
  -----------------------------------------------------------------------
  Completed first pass over input file control.in .
  -----------------------------------------------------------------------
  
  
  -----------------------------------------------------------------------
  Parsing geometry.in (first pass over file, find array dimensions only).
  The contents of geometry.in will be repeated verbatim below
  unless switched off by setting 'verbatim_writeout .false.' .
  in the first line of geometry.in .
  -----------------------------------------------------------------------
  
    atom         0.00000000        0.00000000        0.00000000  Pd
    atom         2.71203735        0.00000000        0.00000000  Pd
    atom         0.00000000        2.71203735        0.00000000  Pd
    atom         2.71203735        2.71203735        0.00000000  Pd
    atom         1.35601867        1.35601867        1.91770000  Pd
    atom         1.35601867        0.00000000       -1.30259616  O
  
  -----------------------------------------------------------------------
  Completed first pass over input file geometry.in .
  -----------------------------------------------------------------------
  

  Basic array size parameters:
  | Number of species                 :        2
  | Number of atoms                   :        6
  | Max. basis fn. angular momentum   :        3
  | Max. atomic/ionic basis occupied n:        5
  | Max. number of basis fn. types    :        3
  | Max. radial fns per species/type  :       10
  | Max. logarithmic grid size        :     1444
  | Max. radial integration grid size :       62
  | Max. angular integration grid size:      302
  | Max. angular grid division number :        8
  | Radial grid for Hartree potential :     1444
  | Number of spin channels           :        2

------------------------------------------------------------
          Reading file control.in.
------------------------------------------------------------
  XC: Using Perdew-Wang parametrisation of Ceperley-Alder LDA.
  Charge =   0.000000E+00: Neutral system requested explicitly.
  Spin treatment: Spin density functional theory - collinear spins.
  Initial spin moment per atom:   1.0000
  Scalar relativistic treatment of kinetic energy: ZORA.
  Threshold value for ZORA:   0.100000E-11
  Fixed spin moment calculation, N_up - N_down =      4.00000000
  Occupation type: Gaussian broadening, width =   0.100000E+00 eV.
  Using pulay charge density mixing.
  Pulay mixing - number of memorized iterations:   10
  Charge density mixing - mixing parameter:     0.2000
  Convergence accuracy of self-consistent charge density:  0.1000E-03
  Convergence accuracy of sum of eigenvalues:  0.1000E-01
  Convergence accuracy of total energy:  0.1000E-05
  Maximum number of s.-c. iterations  :   100
  Calculating density of states with
  | energy interval :-15.000000  4.000000
  | points & broadening :  1000  0.100000
  Calculating atom-projected density of states with
  | energy interval :-15.000000  4.000000
  | points & broadening :  1000  0.100000
  Full Mulliken charge analysis will be written to file 'Mulliken.out'.
 
  Reading configuration options for species O                   .
  | Found nuclear charge :   8.0000
  | Found atomic mass :    15.9994000000000      amu
  | Found l_max for Hartree potential  :   4
  | Found cutoff potl. onset [A], width [A], scale factor :    3.50000    1.50000    1.00000
  | Threshold for basis-dependent cutoff potential is   0.100000E-03
  | Found data for basic radial integration grid :    36 points, outermost radius =    5.000 A
  | Found multiplier for basic radial grid :   1
  | Found angular grid specification: user-specified.
  | Specified grid contains     5 separate shells.
  | Check grid settings after all constraints further below.
  | Found free-atom valence shell :  2 s   2.000
  | Found free-atom valence shell :  2 p   4.000
  | Found free-ion valence shell :  2 s   1.000
  | Found free-ion valence shell :  2 p   3.000
  | Found hydrogenic basis function :  2 p   1.800
  | Found hydrogenic basis function :  3 d   7.600
  | Found hydrogenic basis function :  3 s   6.400
  Species O                   : Missing cutoff potential type.
  Defaulting to exp(1/x)/(1-x)^2 type cutoff potential.
  Species O : No 'logarithmic' tag. Using default grid for free atom:
  | Default logarithmic grid data [bohr] : 0.1000E-03 0.1000E+03 0.1012E+01
  Species O : On-site basis accuracy parameter (for Gram-Schmidt orthonormalisation) not specified.
  Using default value basis_acc =  0.1000000E-03.
  Species O                   : Using default innermost maximum threshold i_radial=  2 for radial functions.
  Species O                   : Default cutoff onset for free atom density etc. : 0.35000000E+01 AA.
  Species O                   : Basic radial grid will be enhanced according to radial_multiplier =   1, to contain    36 grid points.
 
  Reading configuration options for species Pd                  .
  | Found nuclear charge :  46.0000
  | Found atomic mass :    106.420000000000      amu
  | Found l_max for Hartree potential  :   4
  | Found cutoff potl. onset [A], width [A], scale factor :    3.50000    1.50000    1.00000
  | Threshold for basis-dependent cutoff potential is   0.100000E-03
  | Found data for basic radial integration grid :    62 points, outermost radius =    5.000 A
  | Found multiplier for basic radial grid :   1
  | Found angular grid specification: user-specified.
  | Specified grid contains     5 separate shells.
  | Check grid settings after all constraints further below.
  | Found free-atom valence shell :  5 s   1.000
  | Found free-atom valence shell :  4 p   6.000
  | Found free-atom valence shell :  4 d   9.000
  | Found free-ion valence shell :  5 s   0.000
  | Found free-ion valence shell :  4 p   6.000
  | Found free-ion valence shell :  4 d   8.000
  | Found ionic basis function :  5 p , default cutoff radius.
  | Found hydrogenic basis function :  4 f   8.000
  | Found hydrogenic basis function :  3 s   2.600
  | Found hydrogenic basis function :  3 d   2.500
  Species Pd                  : Missing cutoff potential type.
  Defaulting to exp(1/x)/(1-x)^2 type cutoff potential.
  Species Pd: No 'logarithmic' tag. Using default grid for free atom:
  | Default logarithmic grid data [bohr] : 0.1000E-03 0.1000E+03 0.1012E+01
  | Will include ionic basis functions of  2.0-fold positive Pd                   ion.
  Species Pd: On-site basis accuracy parameter (for Gram-Schmidt orthonormalisation) not specified.
  Using default value basis_acc =  0.1000000E-03.
  Species Pd                  : Using default innermost maximum threshold i_radial=  2 for radial functions.
  Species Pd                  : Default cutoff onset for free atom density etc. : 0.35000000E+01 AA.
  Species Pd                  : Basic radial grid will be enhanced according to radial_multiplier =   1, to contain    62 grid points.
 
  Finished reading input file 'control.in'. Consistency checks are next.
 
  MPI_IN_PLACE appears to work with this MPI implementation.
  | Keeping use_mpi_in_place .true. (see manual).
  Target number of points in a grid batch is not set. Defaulting to  100
  Method for grid partitioning is not set. Defaulting to parallel hash+maxmin partitioning.
  Batch size limit is not set. Defaulting to    200
  By default, will store active basis functions for each batch.
  If in need of memory, prune_basis_once .false. can be used to disable this option.
  communication_type for Hartree potential was not specified.
  Defaulting to calc_hartree .
  Pulay mixer: Number of initial linear mixing iterations not set.
  Defaulting to    0 iterations.
  Work space size for distributed Hartree potential not set.
  Defaulting to   0.200000E+03 MB.
  Mixing parameter for spin density mixing has not been set.
  Using charge_mix_param as default:     0.2000.
  Algorithm-dependent basis array size parameters:
  | n_max_pulay                         :       10
  Presetting      1001 iterations before the initial mixing cycle
  is restarted anyway using the sc_init_iter criterion / keyword.
  Presetting a factor      1.000 between actual scf density residual
  and density convergence criterion sc_accuracy_rho below which sc_init_iter
  takes no effect.
  Calculation of forces was not defined in control.in. No forces will be calculated.
  Geometry relaxation not requested: no relaxation will be performed.
  No accuracy limit for integral partition fn. given. Defaulting to  0.1000E-14.
  No threshold value for u(r) in integrations given. Defaulting to  0.1000E-05.
  No accuracy for occupation numbers given. Defaulting to  0.1000E-12.
  No threshold value for occupation numbers given. Defaulting to  0.0000E+00.
  No accuracy for fermi level given. Defaulting to  0.1000E-19.
  Maximum # of iterations to find E_F not set. Defaulting to  200.
  Preferred method for the eigenvalue solver ('KS_method') not specified in 'control.in'.
  Calling BLACS routine to test compilation state
  Since ScaLAPACK support is enabled, defaulting to ELPA (via ELSI).
  Will not use alltoall communication since running on < 1024 CPUs.
  Threshold for basis singularities not set.
  Default threshold for basis singularities:  0.1000E-04
  partition_type (choice of integration weights) for integrals was not specified.
  | Using a version of the partition function of Stratmann and coworkers ('stratmann_sparse').
  | At each grid point, the set of atoms used to build the partition table is smoothly restricted to
  | only those atoms whose free-atom density would be non-zero at that grid point.
  Partitioning for Hartree potential was not defined. Using partition_type for integrals.
  | Adjusted default value of keyword multip_moments_threshold to:       0.10000000E-11
  | This value may affect high angular momentum components of the Hartree potential in periodic systems.
  No q(lm)/r^(l+1) cutoff set for long-range Hartree potential.
  | Using default value of  0.100000E-09 .
  | Verify using the multipole_threshold keyword.
  Defaulting to new monopole extrapolation.
  Density update method: automatic selection selected.
  The projected DOS plots are based on Mulliken analysis.
  Charge integration errors on the 3D integration grid will be compensated
  by explicit normalization and distribution of residual charges.
  Use the "compensate_multipole_errors" flag to change this behaviour.
------------------------------------------------------------


------------------------------------------------------------
          Reading geometry description geometry.in.
------------------------------------------------------------
  Input structure read successfully.
  The structure contains        6 atoms,  and a total of        238.000 electrons.

  Input geometry:
  | No unit cell requested.
  | Atomic structure:
  |       Atom                x [A]            y [A]            z [A]
  |    1: Species Pd            0.00000000        0.00000000        0.00000000
  |    2: Species Pd            2.71203735        0.00000000        0.00000000
  |    3: Species Pd            0.00000000        2.71203735        0.00000000
  |    4: Species Pd            2.71203735        2.71203735        0.00000000
  |    5: Species Pd            1.35601867        1.35601867        1.91770000
  |    6: Species O             1.35601867        0.00000000       -1.30259616
  | The smallest distance between any two atoms is         1.88030407 AA.
  | The first atom of this pair is atom number                      1 .
  | The second atom of this pair is atom number                     6 .

  Initial moments and charges:
  |  Atom   Moment         Charge        Species
  |     1   0.100000E+01   0.000000E+00   Pd
  |     2   0.100000E+01   0.000000E+00   Pd
  |     3   0.100000E+01   0.000000E+00   Pd
  |     4   0.100000E+01   0.000000E+00   Pd
  |     5   0.100000E+01   0.000000E+00   Pd
  |     6   0.100000E+01   0.000000E+00   O

  Number of empty states per atom not set in control.in - providing a guess from actual geometry.
  | Total number of empty states used during s.c.f. cycle:       31
  If you use a very high smearing, use empty_states (per atom!) in control.in to increase this value.

  Structure-dependent array size parameters: 
  | Number of distinct atom types in initial rho :        2
  | Maximum number of distinct radial functions  :       20
  | Maximum number of basis functions            :      214
  | Number of Kohn-Sham states (occupied + empty):      150
------------------------------------------------------------

------------------------------------------------------------
          Preparing all fixed parts of the calculation.
------------------------------------------------------------
  Determining machine precision:
    2.225073858507201E-308
  Setting up grids for atomic and cluster calculations.

  Creating wave function, potential, and density for free atoms.

  Species: O

  List of occupied orbitals and eigenvalues:
    n    l              occ      energy [Ha]    energy [eV]
    1    0           2.0000       -18.786109      -511.1960
    2    0           2.0000        -0.872635       -23.7456
    2    1           4.0000        -0.337687        -9.1889


  Species: Pd

  List of occupied orbitals and eigenvalues:
    n    l              occ      energy [Ha]    energy [eV]
    1    0           2.0000      -912.065213    -24818.5572
    2    0           2.0000      -130.295657     -3545.5252
    3    0           2.0000       -23.475087      -638.7896
    4    0           2.0000        -3.254340       -88.5551
    5    0           1.0000        -0.163409        -4.4466
    2    1           6.0000      -116.869579     -3180.1830
    3    1           6.0000       -19.088207      -519.4165
    4    1           6.0000        -1.997883       -54.3652
    3    2          10.0000       -12.108786      -329.4968
    4    2           9.0000        -0.247297        -6.7293

  Spin-polarized or charged system:
  Charge density initialized according to selected moments and charges.

  Creating spin-polarized density from free atoms.

  Species: Pd
  Charge:   0.000000
  Moment:   1.000000

  List of occupied orbitals and eigenvalues:
    n    l      energy [Ha]    energy [eV]    occupation
  Spin-up
    1    0      -912.213294    -24822.5867     1.00000000
    2    0      -130.452386     -3549.7900     1.00000000
    3    0       -23.627688      -642.9421     1.00000000
    4    0        -3.405543       -92.6695     1.00000000
    5    0        -0.206473        -5.6184     1.00000000
    2    1      -117.024979     -3184.4117     3.00000000
    3    1       -19.240990      -523.5740     3.00000000
    4    1        -2.143855       -58.3373     3.00000000
    3    2       -12.263096      -333.6958     5.00000000
    4    2        -0.366348        -9.9688     4.50000000
  Spin-down
    1    0      -912.213158    -24822.5830     1.00000000
    2    0      -130.446126     -3549.6197     1.00000000
    3    0       -23.623282      -642.8222     1.00000000
    4    0        -3.380780       -91.9957     1.00000000
    5    0        -0.199124        -5.4184     1.00000000
    2    1      -117.020035     -3184.2772     3.00000000
    3    1       -19.236208      -523.4439     3.00000000
    4    1        -2.118556       -57.6489     3.00000000
    3    2       -12.256763      -333.5235     5.00000000
    4    2        -0.343381        -9.3439     3.50000000


  Species: O
  Charge:   0.000000
  Moment:   1.000000

  List of occupied orbitals and eigenvalues:
    n    l      energy [Ha]    energy [eV]    occupation
  Spin-up
    1    0       -18.795081      -511.4402     1.00000000
    2    0        -0.897747       -24.4290     1.00000000
    2    1        -0.361888        -9.8475     2.50000000
  Spin-down
    1    0       -18.768273      -510.7107     1.00000000
    2    0        -0.841284       -22.8925     1.00000000
    2    1        -0.307790        -8.3754     1.50000000

  Creating fixed part of basis set: Ionic, confined, hydrogenic.
 
  O                    hydrogenic:
 
  List of hydrogenic basis orbitals: 
    n    l      effective z      eigenvalue [eV]  inner max. [A]     outer max. [A]     outer radius [A]   
    2    1         1.800000       -10.9749           1.164242           1.164242           4.578029
    3    2         7.600000       -87.3180           0.624125           0.624125           3.251020
    3    0         6.400000       -61.9207           0.061167           1.081902           4.001998
 
 
  Pd                   ion:

  List of free ionic orbitals and eigenvalues:
    n    l      energy [Ha]    energy [eV]
    1    0      -912.902047    -24841.3286
    2    0      -131.115306     -3567.8290
    3    0       -24.291507      -661.0055
    4    0        -4.061747      -110.5258
    2    1      -117.688869     -3202.4771
    3    1       -19.904513      -541.6294
    4    1        -2.800312       -76.2004
    3    2       -12.925057      -351.7087
    4    2        -1.013534       -27.5797


  List of ionic basis orbitals and eigenvalues:
    n    l      energy [Ha]    energy [eV]    outer radius [A]
    5    1        -0.520958       -14.1760       4.573329

 
  Pd                   hydrogenic:
 
  List of hydrogenic basis orbitals: 
    n    l      effective z      eigenvalue [eV]  inner max. [A]     outer max. [A]     outer radius [A]   
    4    3         8.000000       -54.4223           1.054686           1.054686           4.302157
    3    0         2.600000        -9.1732           0.150992           2.481820           4.629581
    3    2         2.500000        -9.0892           1.828265           1.828265           4.629581
 

  Adding cutoff potential to free-atom effective potential.
  Creating atomic-like basis functions for current effective potential.

  Species O                   :

  List of atomic basis orbitals and eigenvalues:
    n    l      energy [Ha]    energy [eV]    outer radius [A]
    1    0       -18.786109      -511.1960       1.433179
    2    0        -0.872635       -23.7456       4.413171
    2    1        -0.337687        -9.1889       4.522403


  Species Pd                  :

  List of atomic basis orbitals and eigenvalues:
    n    l      energy [Ha]    energy [eV]    outer radius [A]
    1    0      -912.065213    -24818.5572       0.223280
    2    0      -130.295657     -3545.5252       0.615909
    3    0       -23.475087      -638.7896       1.431708
    4    0        -3.254340       -88.5551       3.581357
    5    0        -0.163409        -4.4466       4.573329
    2    1      -116.869579     -3180.1830       0.631154
    3    1       -19.088207      -519.4165       1.540671
    4    1        -1.997883       -54.3652       4.096842
    3    2       -12.108786      -329.4968       1.806051
    4    2        -0.247297        -6.7293       4.517760

  Assembling full basis from fixed parts.
  | Species O :   atomic orbital   1 s accepted.
  | Species O :    hydro orbital   3 s accepted.
  | Species O :   atomic orbital   2 s accepted.
  | Species O :   atomic orbital   2 p accepted.
  | Species O :    hydro orbital   2 p accepted.
  | Species O :    hydro orbital   3 d accepted.
  | Species Pd :   atomic orbital   1 s accepted.
  | Species Pd :   atomic orbital   2 s accepted.
  | Species Pd :   atomic orbital   3 s accepted.
  | Species Pd :   atomic orbital   4 s accepted.
  | Species Pd :   atomic orbital   5 s accepted.
  | Species Pd :    hydro orbital   3 s accepted.
  | Species Pd :   atomic orbital   2 p accepted.
  | Species Pd :   atomic orbital   3 p accepted.
  | Species Pd :   atomic orbital   4 p accepted.
  | Species Pd :    ionic orbital   5 p accepted.
  | Species Pd :   atomic orbital   3 d accepted.
  | Species Pd :   atomic orbital   4 d accepted.
  | Species Pd :    hydro orbital   3 d accepted.
  | Species Pd :    hydro orbital   4 f accepted.
 
  Basis size parameters after reduction:
  | Total number of radial functions:       20
  | Total number of basis functions :      214
 
  Per-task memory consumption for arrays in subroutine allocate_ext:
  |           5.551048MB.
  Testing on-site integration grid accuracy.
  |  Species  Function  <phi|h_atom|phi> (log., in eV)  <phi|h_atom|phi> (rad., in eV)
           1        1               -511.1960429777               -511.1959399226
           1        2                 14.8973166466                 14.8974402823
           1        3                -21.2682165807                -21.2682317492
           1        4                 -9.1890598667                 -9.1892026751
           1        5                  8.1915160719                  8.1720639763
           1        6                 45.8005976646                 45.8005620229
           2        7             -24818.5572124610             -24818.5158781978 ***
           2        8              -3545.5252289497              -3545.5246057169
           2        9               -638.7896232474               -638.7896003013
           2       10                -88.5551026167                -88.5551013862
           2       11                 -4.4609385017                 -4.4727014816
           2       12                  6.6635244770                  6.5320610319 ***
           2       13              -3180.1830386101              -3180.1830356300
           2       14               -519.4165494345               -519.4165475419
           2       15                -54.3651702798                -54.3651697577
           2       16                  0.9012046677                  0.8949438749
           2       17               -329.4968230935               -329.4968224117
           2       18                 -6.7295974356                 -6.7298430348
           2       19                  6.3731872829                  6.3152168099 ***
           2       20                 24.8390343786                 24.8391783492
 * Note: Onsite integrals marked "***" above are less accurate than
 * onsite_accuracy_threshold =    0.03000 eV. Usually, this is harmless.
 * However, one integral did have a negative value. This integral could be important.
 * When in doubt, tighten the "radial" and/or "radial_multiplier" flags to check.

  Preparing densities etc. for the partition functions (integrals / Hartree potential).

  Preparations completed.
  max(cpu_time)          :      0.534 s.
  Wall clock time (cpu1) :      0.535 s.
------------------------------------------------------------

------------------------------------------------------------
          Begin self-consistency loop: Initialization.

          Date     :  20190817, Time     :  153205.289
------------------------------------------------------------

  Initializing index lists of integration centers etc. from given atomic structure:
  | Number of centers in hartree potential         :         6
  | Number of centers in hartree multipole         :         6
  | Number of centers in electron density summation:         6
  | Number of centers in basis integrals           :         6
  | Number of centers in integrals                 :         6
  | Number of centers in hamiltonian               :         6
  * Using 8 tasks for Scalapack Eigenvalue solver.
  Detailed listing of tasks and assigned k-points:
  (for non-periodic systems, the "k-point" denotes an internal label only)
   Task     0 k-point     1 on co1631
   Task     1 k-point     1 on co1631
   Task     2 k-point     1 on co1631
   Task     3 k-point     1 on co1631
   Task     4 k-point     1 on co1631
   Task     5 k-point     1 on co1631
   Task     6 k-point     1 on co1631
   Task     7 k-point     1 on co1631
  Tasks:     8 split into      4 X      2 BLACS grid
  Calculating block size based on n_basis =          214  max_nprow =            4  max_npcol =            2
  ScaLAPACK block size set to:           16
  Allocating        0.055 MB for ovlp
  Allocating        0.109 MB for ham
  Allocating        0.109 MB for eigenvec
  Required Scalapack workspace - INTEGER:            1  REAL:             1
  Partitioning the integration grid into batches with parallel hashing+maxmin method.
  | Number of batches:      603
  | Maximal batch size:     185
  | Minimal batch size:      61
  | Average batch size:      76.988
  | Standard deviation of batch sizes:      18.654

  Integration load balanced across     8 MPI tasks.
  Work distribution over tasks is as follows:
  Task     0 has       5764 integration points.
  Task     1 has       5801 integration points.
  Task     2 has       5789 integration points.
  Task     3 has       5888 integration points.
  Task     4 has       5794 integration points.
  Task     5 has       5802 integration points.
  Task     6 has       5822 integration points.
  Task     7 has       5764 integration points.
  Initializing partition tables, free-atom densities, potentials, etc. across the integration grid (initialize_grid_storage).
  | initialize_grid_storage: Actual outermost partition radius vs. multipole_radius_free
  | (-- VB: in principle, multipole_radius_free should be larger, hence this output)
  | Species        1: Confinement radius =              4.999999999999999 AA, multipole_radius_free =              5.048384829883283 AA.
  | Species        1: outer_partition_radius set to              5.048384829883283 AA .
  | Species        2: Confinement radius =              4.999999999999999 AA, multipole_radius_free =              5.043202038252673 AA.
  | Species        2: outer_partition_radius set to              5.043202038252673 AA .
  | The sparse table of interatomic distances needs          0.39 kbyte instead of         0.29 kbyte of memory.
  | Using the partition_type stratmann_smoother will reduce your memory usage.
  | Net number of integration points:    46424
  | of which are non-zero points    :    43876
  Renormalizing the initial density to the exact electron count on the 3D integration grid.
  | Initial density: Formal number of electrons (from input files) :     238.0000000000
  | Integrated number of electrons on 3D grid     :     237.9996450500
  | Charge integration error                      :      -0.0003549500
  | Normalization factor for density and gradient :       1.0000014914
  Renormalizing the free-atom superposition density to the exact electron count on the 3D integration grid.
  | Formal number of electrons (from input files) :     238.0000000000
  | Integrated number of electrons on 3D grid     :     237.9997001645
  | Charge integration error                      :      -0.0002998355
  | Normalization factor for density and gradient :       1.0000012598
  Obtaining max. number of non-zero basis functions in each batch (get_n_compute_maxes).
  | Maximal number of non-zero basis functions:      185 in task     0
  | Maximal number of non-zero basis functions:      171 in task     1
  | Maximal number of non-zero basis functions:      181 in task     2
  | Maximal number of non-zero basis functions:      175 in task     3
  | Maximal number of non-zero basis functions:      180 in task     4
  | Maximal number of non-zero basis functions:      174 in task     5
  | Maximal number of non-zero basis functions:      175 in task     6
  | Maximal number of non-zero basis functions:      184 in task     7
  Selecting the method for density update.
  Loop over occupied states selected for charge density update.
  Allocating        0.490 MB for KS_eigenvector
  Integrating Hamiltonian matrix: batch-based integration.
  Time summed over all CPUs for integration: real work        0.882 s, elapsed        0.921 s
  Integrating overlap matrix.
  Time summed over all CPUs for integration: real work        0.132 s, elapsed        0.136 s
  Not deallocating overlap matrix.

  Updating Kohn-Sham eigenvalues and eigenvectors using ELSI and the ELPA eigensolver.
  Overlap matrix is not singular
  | Lowest and highest eigenvalues :  0.1439E-01,  0.4726E+01
  Finished singularity check of overlap matrix
  | Time :     0.004 s
  Starting ELPA eigensolver
  Finished Cholesky decomposition
  | Time :     0.002 s
  Finished transformation to standard eigenproblem
  | Time :     0.000 s
  Finished solving standard eigenproblem
  | Time :     0.005 s
  Finished back-transformation of eigenvectors
  | Time :     0.001 s
  Starting ELPA eigensolver
  Finished transformation to standard eigenproblem
  | Time :     0.001 s
  Finished solving standard eigenproblem
  | Time :     0.005 s
  Finished back-transformation of eigenvectors
  | Time :     0.000 s
  Fixed spin moments - chemical potentials:
  | Chemical potential, spin up:   -4.9288485395 eV.
  | Chemical potential, spin dn:   -5.6474878679 eV.
  | Fixed spin moment: Difference in chemical potentials between spin channels:   0.7186393284 eV.

  Writing Kohn-Sham eigenvalues.

  Spin-up eigenvalues:

  State    Occupation    Eigenvalue [Ha]    Eigenvalue [eV]
      1       1.00000        -912.071728       -24818.73447
      2       1.00000        -912.071728       -24818.73447
      3       1.00000        -912.071078       -24818.71680
      4       1.00000        -912.069866       -24818.68381
      5       1.00000        -912.069866       -24818.68381
      6       1.00000        -130.303890        -3545.74926
      7       1.00000        -130.303890        -3545.74926
      8       1.00000        -130.303242        -3545.73161
      9       1.00000        -130.302041        -3545.69894
     10       1.00000        -130.302041        -3545.69894
     11       1.00000        -116.877435        -3180.39682
     12       1.00000        -116.877435        -3180.39682
     13       1.00000        -116.877415        -3180.39629
     14       1.00000        -116.877415        -3180.39629
     15       1.00000        -116.877400        -3180.39586
     16       1.00000        -116.877400        -3180.39586
     17       1.00000        -116.876783        -3180.37908
     18       1.00000        -116.876765        -3180.37860
     19       1.00000        -116.876765        -3180.37860
     20       1.00000        -116.875587        -3180.34654
     21       1.00000        -116.875587        -3180.34654
     22       1.00000        -116.875574        -3180.34619
     23       1.00000        -116.875574        -3180.34619
     24       1.00000        -116.875562        -3180.34585
     25       1.00000        -116.875562        -3180.34585
     26       1.00000         -23.483467         -639.01766
     27       1.00000         -23.483467         -639.01766
     28       1.00000         -23.482720         -638.99734
     29       1.00000         -23.481422         -638.96201
     30       1.00000         -23.481422         -638.96201
     31       1.00000         -19.096958         -519.65466
     32       1.00000         -19.096958         -519.65466
     33       1.00000         -19.096750         -519.64900
     34       1.00000         -19.096750         -519.64900
     35       1.00000         -19.096595         -519.64478
     36       1.00000         -19.096595         -519.64478
     37       1.00000         -19.096136         -519.63230
     38       1.00000         -19.095959         -519.62749
     39       1.00000         -19.095959         -519.62749
     40       1.00000         -19.094845         -519.59716
     41       1.00000         -19.094845         -519.59716
     42       1.00000         -19.094718         -519.59371
     43       1.00000         -19.094718         -519.59371
     44       1.00000         -19.094593         -519.59032
     45       1.00000         -19.094593         -519.59032
     46       1.00000         -18.844147         -512.77534
     47       1.00000         -12.117953         -329.74629
     48       1.00000         -12.117953         -329.74629
     49       1.00000         -12.117905         -329.74498
     50       1.00000         -12.117905         -329.74498
     51       1.00000         -12.117806         -329.74229
     52       1.00000         -12.117806         -329.74229
     53       1.00000         -12.117680         -329.73885
     54       1.00000         -12.117680         -329.73885
     55       1.00000         -12.117663         -329.73838
     56       1.00000         -12.117663         -329.73838
     57       1.00000         -12.117134         -329.72399
     58       1.00000         -12.117104         -329.72317
     59       1.00000         -12.117104         -329.72317
     60       1.00000         -12.116985         -329.71995
     61       1.00000         -12.116981         -329.71982
     62       1.00000         -12.115865         -329.68947
     63       1.00000         -12.115865         -329.68947
     64       1.00000         -12.115857         -329.68923
     65       1.00000         -12.115857         -329.68923
     66       1.00000         -12.115772         -329.68693
     67       1.00000         -12.115772         -329.68693
     68       1.00000         -12.115689         -329.68466
     69       1.00000         -12.115689         -329.68466
     70       1.00000         -12.115677         -329.68435
     71       1.00000         -12.115677         -329.68435
     72       1.00000          -3.272762          -89.05638
     73       1.00000          -3.272225          -89.04178
     74       1.00000          -3.270483          -88.99438
     75       1.00000          -3.268585          -88.94271
     76       1.00000          -3.268198          -88.93219
     77       1.00000          -2.024063          -55.07757
     78       1.00000          -2.020256          -54.97395
     79       1.00000          -2.019555          -54.95489
     80       1.00000          -2.017858          -54.90870
     81       1.00000          -2.017333          -54.89443
     82       1.00000          -2.016238          -54.86462
     83       1.00000          -2.014782          -54.82500
     84       1.00000          -2.013804          -54.79841
     85       1.00000          -2.013421          -54.78798
     86       1.00000          -2.012858          -54.77264
     87       1.00000          -2.011327          -54.73100
     88       1.00000          -2.011261          -54.72919
     89       1.00000          -2.010560          -54.71011
     90       1.00000          -2.010447          -54.70704
     91       1.00000          -2.009951          -54.69355
     92       1.00000          -0.988076          -26.88693
     93       1.00000          -0.491589          -13.37683
     94       1.00000          -0.482365          -13.12581
     95       1.00000          -0.457131          -12.43916
     96       1.00000          -0.362796           -9.87217
     97       1.00000          -0.330112           -8.98282
     98       1.00000          -0.330000           -8.97974
     99       1.00000          -0.322009           -8.76231
    100       1.00000          -0.303511           -8.25897
    101       1.00000          -0.300894           -8.18775
    102       1.00000          -0.297927           -8.10701
    103       1.00000          -0.296435           -8.06640
    104       1.00000          -0.295590           -8.04342
    105       1.00000          -0.280409           -7.63031
    106       1.00000          -0.275692           -7.50197
    107       1.00000          -0.274528           -7.47028
    108       1.00000          -0.265010           -7.21130
    109       1.00000          -0.261637           -7.11951
    110       1.00000          -0.253228           -6.89069
    111       1.00000          -0.250143           -6.80675
    112       1.00000          -0.247671           -6.73947
    113       1.00000          -0.247033           -6.72210
    114       1.00000          -0.240112           -6.53377
    115       1.00000          -0.239989           -6.53043
    116       1.00000          -0.234067           -6.36929
    117       1.00000          -0.231482           -6.29895
    118       1.00000          -0.229742           -6.25159
    119       1.00000          -0.226736           -6.16979
    120       1.00000          -0.209435           -5.69901
    121       1.00000          -0.197950           -5.38649
    122       0.00000          -0.164314           -4.47122
    123       0.00000          -0.156298           -4.25307
    124       0.00000          -0.122261           -3.32689
    125       0.00000          -0.085964           -2.33919
    126       0.00000          -0.053114           -1.44530
    127       0.00000          -0.048909           -1.33088
    128       0.00000          -0.026395           -0.71825
    129       0.00000          -0.022333           -0.60772
    130       0.00000          -0.006007           -0.16346
    131       0.00000           0.019128            0.52050
    132       0.00000           0.073982            2.01316
    133       0.00000           0.088845            2.41758
    134       0.00000           0.123247            3.35371
    135       0.00000           0.125562            3.41670
    136       0.00000           0.157825            4.29463
    137       0.00000           0.161865            4.40458
    138       0.00000           0.177487            4.82967
    139       0.00000           0.182154            4.95667
    140       0.00000           0.185192            5.03933
    141       0.00000           0.198388            5.39842
    142       0.00000           0.236281            6.42953
    143       0.00000           0.243436            6.62422
    144       0.00000           0.251894            6.85439
    145       0.00000           0.256587            6.98208
    146       0.00000           0.283990            7.72776
    147       0.00000           0.287234            7.81604
    148       0.00000           0.294787            8.02157
    149       0.00000           0.304267            8.27952
    150       0.00000           0.307875            8.37771

  Spin-down eigenvalues:

  State    Occupation    Eigenvalue [Ha]    Eigenvalue [eV]
      1       1.00000        -912.071591       -24818.73076
      2       1.00000        -912.071591       -24818.73076
      3       1.00000        -912.070942       -24818.71309
      4       1.00000        -912.069729       -24818.68010
      5       1.00000        -912.069729       -24818.68010
      6       1.00000        -130.297630        -3545.57891
      7       1.00000        -130.297630        -3545.57891
      8       1.00000        -130.296982        -3545.56128
      9       1.00000        -130.295782        -3545.52862
     10       1.00000        -130.295782        -3545.52862
     11       1.00000        -116.872491        -3180.26228
     12       1.00000        -116.872491        -3180.26228
     13       1.00000        -116.872471        -3180.26175
     14       1.00000        -116.872471        -3180.26175
     15       1.00000        -116.872456        -3180.26133
     16       1.00000        -116.872456        -3180.26133
     17       1.00000        -116.871840        -3180.24457
     18       1.00000        -116.871822        -3180.24408
     19       1.00000        -116.871822        -3180.24408
     20       1.00000        -116.870644        -3180.21202
     21       1.00000        -116.870644        -3180.21202
     22       1.00000        -116.870631        -3180.21167
     23       1.00000        -116.870631        -3180.21167
     24       1.00000        -116.870618        -3180.21133
     25       1.00000        -116.870618        -3180.21133
     26       1.00000         -23.479057         -638.89765
     27       1.00000         -23.479057         -638.89765
     28       1.00000         -23.478317         -638.87752
     29       1.00000         -23.477018         -638.84217
     30       1.00000         -23.477018         -638.84217
     31       1.00000         -19.092170         -519.52438
     32       1.00000         -19.092170         -519.52438
     33       1.00000         -19.091964         -519.51879
     34       1.00000         -19.091964         -519.51879
     35       1.00000         -19.091809         -519.51457
     36       1.00000         -19.091809         -519.51457
     37       1.00000         -19.091358         -519.50227
     38       1.00000         -19.091181         -519.49746
     39       1.00000         -19.091181         -519.49746
     40       1.00000         -19.090065         -519.46710
     41       1.00000         -19.090065         -519.46710
     42       1.00000         -19.089939         -519.46366
     43       1.00000         -19.089939         -519.46366
     44       1.00000         -19.089814         -519.46027
     45       1.00000         -19.089814         -519.46027
     46       1.00000         -18.817380         -512.04696
     47       1.00000         -12.111615         -329.57382
     48       1.00000         -12.111615         -329.57382
     49       1.00000         -12.111568         -329.57254
     50       1.00000         -12.111568         -329.57254
     51       1.00000         -12.111469         -329.56985
     52       1.00000         -12.111469         -329.56985
     53       1.00000         -12.111344         -329.56645
     54       1.00000         -12.111344         -329.56645
     55       1.00000         -12.111327         -329.56598
     56       1.00000         -12.111327         -329.56598
     57       1.00000         -12.110804         -329.55175
     58       1.00000         -12.110774         -329.55093
     59       1.00000         -12.110774         -329.55093
     60       1.00000         -12.110656         -329.54771
     61       1.00000         -12.110651         -329.54759
     62       1.00000         -12.109535         -329.51721
     63       1.00000         -12.109535         -329.51721
     64       1.00000         -12.109526         -329.51697
     65       1.00000         -12.109526         -329.51697
     66       1.00000         -12.109442         -329.51467
     67       1.00000         -12.109442         -329.51467
     68       1.00000         -12.109358         -329.51240
     69       1.00000         -12.109358         -329.51240
     70       1.00000         -12.109347         -329.51208
     71       1.00000         -12.109347         -329.51208
     72       1.00000          -3.247957          -88.38140
     73       1.00000          -3.247415          -88.36666
     74       1.00000          -3.245764          -88.32174
     75       1.00000          -3.243856          -88.26981
     76       1.00000          -3.243465          -88.25917
     77       1.00000          -1.998553          -54.38338
     78       1.00000          -1.995067          -54.28852
     79       1.00000          -1.994076          -54.26157
     80       1.00000          -1.992612          -54.22172
     81       1.00000          -1.992138          -54.20884
     82       1.00000          -1.991001          -54.17789
     83       1.00000          -1.989530          -54.13785
     84       1.00000          -1.988591          -54.11231
     85       1.00000          -1.988156          -54.10048
     86       1.00000          -1.987595          -54.08521
     87       1.00000          -1.986067          -54.04363
     88       1.00000          -1.985998          -54.04175
     89       1.00000          -1.985315          -54.02317
     90       1.00000          -1.985190          -54.01977
     91       1.00000          -1.984697          -54.00634
     92       1.00000          -0.933839          -25.41105
     93       1.00000          -0.444094          -12.08441
     94       1.00000          -0.435643          -11.85446
     95       1.00000          -0.413319          -11.24698
     96       1.00000          -0.345310           -9.39635
     97       1.00000          -0.310338           -8.44473
     98       1.00000          -0.310182           -8.44048
     99       1.00000          -0.301032           -8.19151
    100       1.00000          -0.283038           -7.70185
    101       1.00000          -0.282370           -7.68368
    102       1.00000          -0.276695           -7.52925
    103       1.00000          -0.275190           -7.48830
    104       1.00000          -0.275088           -7.48553
    105       1.00000          -0.256981           -6.99281
    106       1.00000          -0.253640           -6.90190
    107       1.00000          -0.253622           -6.90142
    108       1.00000          -0.243451           -6.62464
    109       1.00000          -0.239807           -6.52549
    110       1.00000          -0.230724           -6.27831
    111       1.00000          -0.227902           -6.20152
    112       1.00000          -0.224932           -6.12071
    113       1.00000          -0.224062           -6.09703
    114       0.99985          -0.216934           -5.90308
    115       0.98187          -0.212982           -5.79555
    116       0.92400          -0.211264           -5.74878
    117       0.64906          -0.208536           -5.67455
    118       0.36992          -0.206678           -5.62401
    119       0.07532          -0.203806           -5.54586
    120       0.00000          -0.185099           -5.03680
    121       0.00000          -0.176043           -4.79037
    122       0.00000          -0.151881           -4.13290
    123       0.00000          -0.144344           -3.92780
    124       0.00000          -0.112766           -3.06852
    125       0.00000          -0.078476           -2.13543
    126       0.00000          -0.044883           -1.22133
    127       0.00000          -0.040604           -1.10490
    128       0.00000          -0.019183           -0.52201
    129       0.00000          -0.013548           -0.36866
    130       0.00000           0.001179            0.03209
    131       0.00000           0.026512            0.72143
    132       0.00000           0.083456            2.27094
    133       0.00000           0.095922            2.61017
    134       0.00000           0.131504            3.57841
    135       0.00000           0.134389            3.65691
    136       0.00000           0.166191            4.52229
    137       0.00000           0.170122            4.62925
    138       0.00000           0.185920            5.05915
    139       0.00000           0.188350            5.12526
    140       0.00000           0.192557            5.23973
    141       0.00000           0.208348            5.66943
    142       0.00000           0.245035            6.66775
    143       0.00000           0.250686            6.82150
    144       0.00000           0.257907            7.01800
    145       0.00000           0.264354            7.19342
    146       0.00000           0.290954            7.91727
    147       0.00000           0.293820            7.99524
    148       0.00000           0.302265            8.22505
    149       0.00000           0.310810            8.45757
    150       0.00000           0.315464            8.58421

  Current spin moment of the entire structure :
  | N = N_up - N_down :    4.00
  | S                 :    2.00
  | J                 :    5.00

  Highest occupied state (VBM) at     -5.38649483 eV
  | Occupation number:      1.00000000
  | Spin channel:        1

  Lowest unoccupied state (CBM) at    -5.62400648 eV
  | Occupation number:      0.36991558
  | Spin channel:        2

  Overall HOMO-LUMO gap:     -0.23751165 eV.
  This system has fractional occupation numbers. Thus, it is a degenerate system
  within the approximate finite broadening function (occupation_type)
  applied to determine the occupation numbers.
  This may not be harmful. However, for some systems (free atoms), a different, non-degenerate
  ground state might exist by using a smaller broadening (see keyword occupation_type).
  Calculating total energy contributions from superposition of free atom densities.

  Total energy components:
  | Sum of eigenvalues            :      -15490.84154111 Ha     -421527.24540367 eV
  | XC energy correction          :        -705.58768449 Ha      -19200.01778122 eV
  | XC potential correction       :         935.46314099 Ha       25455.24721497 eV
  | Free-atom electrostatic energy:      -10308.12861502 Ha     -280498.45121864 eV
  | Hartree energy correction     :           0.00000000 Ha           0.00000000 eV
  | Entropy correction            :          -0.00140120 Ha          -0.03812872 eV
  | ---------------------------
  | Total energy                  :      -25569.09469963 Ha     -695770.46718857 eV
  | Total energy, T -> 0          :      -25569.09610084 Ha     -695770.50531728 eV  <-- do not rely on this value for anything but (periodic) metals
  | Electronic free energy        :      -25569.09750204 Ha     -695770.54344600 eV

  Derived energy quantities:
  | Kinetic energy                :       26516.34893067 Ha      721546.56628850 eV
  | Electrostatic energy          :      -51379.85594580 Ha    -1398117.01569584 eV
  | Energy correction for multipole
  | error in Hartree potential    :           0.00000000 Ha           0.00000000 eV
  | Sum of eigenvalues per atom                           :      -70254.54090061 eV
  | Total energy (T->0) per atom                          :     -115961.75088621 eV  <-- do not rely on this value for anything but (periodic) metals
  | Electronic free energy per atom                       :     -115961.75724100 eV
  Initialize hartree_potential_storage
  Max. number of atoms included in rho_multipole:            6

  End scf initialization - timings             :  max(cpu_time)    wall_clock(cpu1)
  | Time for scf. initialization               :        0.195 s           0.194 s
  | Boundary condition initialization          :        0.000 s           0.000 s
  | Integration                                :        0.134 s           0.134 s
  | Solution of K.-S. eqns.                    :        0.019 s           0.020 s
  | Grid partitioning                          :        0.017 s           0.017 s
  | Preloading free-atom quantities on grid    :        0.002 s           0.002 s
  | Free-atom superposition energy             :        0.005 s           0.005 s
  | Total energy evaluation                    :        0.000 s           0.000 s

  Partial memory accounting:
  | Current value for overall tracked memory usage:
  |   Minimum:        1.241 MB (on task 5)
  |   Maximum:        1.345 MB (on task 0)
  |   Average:        1.279 MB
  | Peak value for overall tracked memory usage:
  |   Minimum:        5.596 MB (on task 1 after allocating zora_vector2)
  |   Maximum:        5.995 MB (on task 0 after allocating zora_vector2)
  |   Average:        5.756 MB
  | Largest tracked array allocation so far:
  |   Minimum:        1.448 MB (zora_vector1 on task 1)
  |   Maximum:        1.567 MB (zora_vector1 on task 0)
  |   Average:        1.508 MB
  Note:  These values currently only include a subset of arrays which are explicitly tracked.
  The "true" memory usage will be greater.
------------------------------------------------------------

------------------------------------------------------------
          Begin self-consistency iteration #    1

  Date     :  20190817, Time     :  153205.484
------------------------------------------------------------
  Evaluating new KS density.
  Integration grid: deviation in total charge (<rho> - N_e) =   1.136868E-13
  | <rho_up-rho_dn> = N_up-N_dn =      4.0000; <|rho_up-rho_dn|> =      4.0925
  Pulay mixing of updated and previous charge densities.
  Renormalizing the density to the exact electron count on the 3D integration grid.
  | Formal number of electrons (from input files) :     238.0000000000
  | Integrated number of electrons on 3D grid     :     238.0000000000
  | Charge integration error                      :      -0.0000000000
  | Normalization factor for density and gradient :       1.0000000000

  Evaluating partitioned Hartree potential by multipole expansion.
  | Original multipole sum: apparent total charge =  -0.536772E-12
  | Sum of charges compensated after spline to logarithmic grids =  -0.828063E-04
  | Analytical far-field extrapolation by fixed multipoles:
  | Hartree multipole sum: apparent total charge =  -0.536477E-12
  Summing up the Hartree potential.
  Time summed over all CPUs for potential: real work        0.116 s, elapsed        0.123 s
  | RMS charge density error from multipole expansion :   0.702889E-02

  Integrating Hamiltonian matrix: batch-based integration.
  Time summed over all CPUs for integration: real work        0.878 s, elapsed        0.902 s

  Updating Kohn-Sham eigenvalues and eigenvectors using ELSI and the ELPA eigensolver.
  Starting ELPA eigensolver
  Finished transformation to standard eigenproblem
  | Time :     0.001 s
  Finished solving standard eigenproblem
  | Time :     0.006 s
  Finished back-transformation of eigenvectors
  | Time :     0.000 s
  Starting ELPA eigensolver
  Finished transformation to standard eigenproblem
  | Time :     0.000 s
  Finished solving standard eigenproblem
  | Time :     0.005 s
  Finished back-transformation of eigenvectors
  | Time :     0.000 s
  Fixed spin moments - chemical potentials:
  | Chemical potential, spin up:   -5.8495562019 eV.
  | Chemical potential, spin dn:   -7.8799474084 eV.
  | Fixed spin moment: Difference in chemical potentials between spin channels:   2.0303912065 eV.

  Writing Kohn-Sham eigenvalues.

  Spin-up eigenvalues:

  State    Occupation    Eigenvalue [Ha]    Eigenvalue [eV]
      1       1.00000        -912.231403       -24823.07947
      2       1.00000        -912.231403       -24823.07947
      3       1.00000        -912.174951       -24821.54333
      4       1.00000        -912.172853       -24821.48623
      5       1.00000        -912.172853       -24821.48623
      6       1.00000        -130.467348        -3550.19716
      7       1.00000        -130.467348        -3550.19716
      8       1.00000        -130.413009        -3548.71854
      9       1.00000        -130.410835        -3548.65937
     10       1.00000        -130.410835        -3548.65937
     11       1.00000        -117.040773        -3184.84148
     12       1.00000        -117.040773        -3184.84148
     13       1.00000        -117.040353        -3184.83004
     14       1.00000        -117.040353        -3184.83004
     15       1.00000        -117.039978        -3184.81983
     16       1.00000        -117.039978        -3184.81983
     17       1.00000        -116.985924        -3183.34896
     18       1.00000        -116.985843        -3183.34675
     19       1.00000        -116.985603        -3183.34022
     20       1.00000        -116.983976        -3183.29595
     21       1.00000        -116.983976        -3183.29595
     22       1.00000        -116.983830        -3183.29198
     23       1.00000        -116.983830        -3183.29198
     24       1.00000        -116.983087        -3183.27176
     25       1.00000        -116.983087        -3183.27176
     26       1.00000         -23.637286         -643.20327
     27       1.00000         -23.637286         -643.20327
     28       1.00000         -23.588992         -641.88913
     29       1.00000         -23.586492         -641.82111
     30       1.00000         -23.586492         -641.82111
     31       1.00000         -19.251304         -523.85463
     32       1.00000         -19.251304         -523.85463
     33       1.00000         -19.250690         -523.83793
     34       1.00000         -19.250690         -523.83793
     35       1.00000         -19.249870         -523.81562
     36       1.00000         -19.249870         -523.81562
     37       1.00000         -19.202538         -522.52765
     38       1.00000         -19.202451         -522.52527
     39       1.00000         -19.201870         -522.50948
     40       1.00000         -19.200609         -522.47515
     41       1.00000         -19.200609         -522.47515
     42       1.00000         -19.200138         -522.46235
     43       1.00000         -19.200138         -522.46235
     44       1.00000         -19.198621         -522.42106
     45       1.00000         -19.198621         -522.42106
     46       1.00000         -18.636039         -507.11242
     47       1.00000         -12.274292         -334.00047
     48       1.00000         -12.274292         -334.00047
     49       1.00000         -12.273449         -333.97753
     50       1.00000         -12.273449         -333.97753
     51       1.00000         -12.272929         -333.96339
     52       1.00000         -12.272929         -333.96339
     53       1.00000         -12.272658         -333.95601
     54       1.00000         -12.272658         -333.95601
     55       1.00000         -12.272509         -333.95196
     56       1.00000         -12.272509         -333.95196
     57       1.00000         -12.224697         -332.65093
     58       1.00000         -12.224403         -332.64293
     59       1.00000         -12.224117         -332.63516
     60       1.00000         -12.223949         -332.63058
     61       1.00000         -12.223804         -332.62662
     62       1.00000         -12.222873         -332.60130
     63       1.00000         -12.222873         -332.60130
     64       1.00000         -12.222370         -332.58762
     65       1.00000         -12.222370         -332.58762
     66       1.00000         -12.221382         -332.56072
     67       1.00000         -12.221382         -332.56072
     68       1.00000         -12.221207         -332.55596
     69       1.00000         -12.221207         -332.55596
     70       1.00000         -12.220843         -332.54605
     71       1.00000         -12.220843         -332.54605
     72       1.00000          -3.409121          -92.76689
     73       1.00000          -3.408707          -92.75563
     74       1.00000          -3.370524          -91.71663
     75       1.00000          -3.367137          -91.62446
     76       1.00000          -3.366772          -91.61452
     77       1.00000          -2.154913          -58.63815
     78       1.00000          -2.151101          -58.53445
     79       1.00000          -2.147629          -58.43995
     80       1.00000          -2.146084          -58.39791
     81       1.00000          -2.144386          -58.35171
     82       1.00000          -2.143682          -58.33254
     83       1.00000          -2.114016          -57.52531
     84       1.00000          -2.111444          -57.45532
     85       1.00000          -2.110478          -57.42903
     86       1.00000          -2.109999          -57.41599
     87       1.00000          -2.108304          -57.36988
     88       1.00000          -2.108286          -57.36939
     89       1.00000          -2.106908          -57.33189
     90       1.00000          -2.102964          -57.22457
     91       1.00000          -2.102498          -57.21189
     92       1.00000          -0.884490          -24.06820
     93       1.00000          -0.454831          -12.37658
     94       1.00000          -0.445811          -12.13114
     95       1.00000          -0.433311          -11.79098
     96       1.00000          -0.413056          -11.23983
     97       1.00000          -0.405612          -11.03727
     98       1.00000          -0.402577          -10.95468
     99       1.00000          -0.391526          -10.65398
    100       1.00000          -0.385740          -10.49653
    101       1.00000          -0.384115          -10.45229
    102       1.00000          -0.372250          -10.12945
    103       1.00000          -0.369130          -10.04455
    104       1.00000          -0.368003          -10.01387
    105       1.00000          -0.356973           -9.71372
    106       1.00000          -0.351951           -9.57708
    107       1.00000          -0.348254           -9.47647
    108       1.00000          -0.344538           -9.37536
    109       1.00000          -0.333643           -9.07890
    110       1.00000          -0.333379           -9.07170
    111       1.00000          -0.329936           -8.97801
    112       1.00000          -0.326543           -8.88569
    113       1.00000          -0.323562           -8.80457
    114       1.00000          -0.319914           -8.70531
    115       1.00000          -0.319214           -8.68626
    116       1.00000          -0.317451           -8.63829
    117       1.00000          -0.313869           -8.54082
    118       1.00000          -0.308714           -8.40055
    119       1.00000          -0.269180           -7.32475
    120       1.00000          -0.265204           -7.21658
    121       1.00000          -0.234315           -6.37604
    122       0.00000          -0.190132           -5.17376
    123       0.00000          -0.181163           -4.92971
    124       0.00000          -0.144822           -3.94080
    125       0.00000          -0.112401           -3.05860
    126       0.00000          -0.068271           -1.85775
    127       0.00000          -0.066719           -1.81551
    128       0.00000          -0.042472           -1.15571
    129       0.00000          -0.039389           -1.07183
    130       0.00000          -0.020462           -0.55681
    131       0.00000          -0.000651           -0.01771
    132       0.00000           0.056258            1.53085
    133       0.00000           0.068767            1.87126
    134       0.00000           0.107434            2.92342
    135       0.00000           0.112511            3.06158
    136       0.00000           0.133549            3.63406
    137       0.00000           0.139018            3.78287
    138       0.00000           0.159285            4.33436
    139       0.00000           0.162755            4.42878
    140       0.00000           0.175995            4.78906
    141       0.00000           0.190106            5.17304
    142       0.00000           0.213829            5.81858
    143       0.00000           0.224571            6.11090
    144       0.00000           0.237889            6.47329
    145       0.00000           0.251910            6.85481
    146       0.00000           0.263603            7.17300
    147       0.00000           0.268889            7.31683
    148       0.00000           0.283343            7.71014
    149       0.00000           0.292061            7.94738
    150       0.00000           0.293260            7.98000

  Spin-down eigenvalues:

  State    Occupation    Eigenvalue [Ha]    Eigenvalue [eV]
      1       1.00000        -912.231241       -24823.07506
      2       1.00000        -912.231241       -24823.07506
      3       1.00000        -912.174812       -24821.53955
      4       1.00000        -912.172704       -24821.48218
      5       1.00000        -912.172704       -24821.48218
      6       1.00000        -130.461118        -3550.02765
      7       1.00000        -130.461118        -3550.02765
      8       1.00000        -130.407311        -3548.56348
      9       1.00000        -130.405031        -3548.50144
     10       1.00000        -130.405031        -3548.50144
     11       1.00000        -117.035700        -3184.70342
     12       1.00000        -117.035700        -3184.70342
     13       1.00000        -117.035435        -3184.69623
     14       1.00000        -117.035435        -3184.69623
     15       1.00000        -117.035178        -3184.68922
     16       1.00000        -117.035178        -3184.68922
     17       1.00000        -116.981375        -3183.22516
     18       1.00000        -116.981344        -3183.22432
     19       1.00000        -116.981135        -3183.21865
     20       1.00000        -116.979297        -3183.16863
     21       1.00000        -116.979297        -3183.16863
     22       1.00000        -116.979177        -3183.16537
     23       1.00000        -116.979177        -3183.16537
     24       1.00000        -116.978647        -3183.15095
     25       1.00000        -116.978647        -3183.15095
     26       1.00000         -23.632871         -643.08314
     27       1.00000         -23.632871         -643.08314
     28       1.00000         -23.584968         -641.77964
     29       1.00000         -23.582388         -641.70944
     30       1.00000         -23.582388         -641.70944
     31       1.00000         -19.246259         -523.71735
     32       1.00000         -19.246259         -523.71735
     33       1.00000         -19.245977         -523.70969
     34       1.00000         -19.245977         -523.70969
     35       1.00000         -19.245260         -523.69018
     36       1.00000         -19.245260         -523.69018
     37       1.00000         -19.198100         -522.40689
     38       1.00000         -19.198080         -522.40635
     39       1.00000         -19.197582         -522.39278
     40       1.00000         -19.196046         -522.35099
     41       1.00000         -19.196046         -522.35099
     42       1.00000         -19.195656         -522.34038
     43       1.00000         -19.195656         -522.34038
     44       1.00000         -19.194310         -522.30376
     45       1.00000         -19.194310         -522.30376
     46       1.00000         -18.612429         -506.46997
     47       1.00000         -12.267443         -333.81411
     48       1.00000         -12.267443         -333.81411
     49       1.00000         -12.267089         -333.80447
     50       1.00000         -12.267089         -333.80447
     51       1.00000         -12.266625         -333.79186
     52       1.00000         -12.266625         -333.79186
     53       1.00000         -12.266553         -333.78989
     54       1.00000         -12.266553         -333.78989
     55       1.00000         -12.266505         -333.78858
     56       1.00000         -12.266505         -333.78858
     57       1.00000         -12.218694         -332.48759
     58       1.00000         -12.218612         -332.48536
     59       1.00000         -12.218374         -332.47887
     60       1.00000         -12.218271         -332.47608
     61       1.00000         -12.218155         -332.47291
     62       1.00000         -12.216623         -332.43123
     63       1.00000         -12.216623         -332.43123
     64       1.00000         -12.216493         -332.42768
     65       1.00000         -12.216493         -332.42768
     66       1.00000         -12.215611         -332.40368
     67       1.00000         -12.215611         -332.40368
     68       1.00000         -12.215394         -332.39779
     69       1.00000         -12.215394         -332.39779
     70       1.00000         -12.215137         -332.39080
     71       1.00000         -12.215137         -332.39080
     72       1.00000          -3.384508          -92.09714
     73       1.00000          -3.384092          -92.08582
     74       1.00000          -3.348114          -91.10683
     75       1.00000          -3.344300          -91.00304
     76       1.00000          -3.343930          -90.99297
     77       1.00000          -2.128850          -57.92894
     78       1.00000          -2.124923          -57.82209
     79       1.00000          -2.122573          -57.75815
     80       1.00000          -2.121094          -57.71791
     81       1.00000          -2.120128          -57.69162
     82       1.00000          -2.119413          -57.67215
     83       1.00000          -2.090893          -56.89608
     84       1.00000          -2.088493          -56.83079
     85       1.00000          -2.087531          -56.80460
     86       1.00000          -2.086564          -56.77828
     87       1.00000          -2.084799          -56.73027
     88       1.00000          -2.084774          -56.72959
     89       1.00000          -2.083158          -56.68560
     90       1.00000          -2.080438          -56.61160
     91       1.00000          -2.079951          -56.59835
     92       1.00000          -0.840030          -22.85837
     93       1.00000          -0.422021          -11.48379
     94       1.00000          -0.418810          -11.39639
     95       1.00000          -0.410627          -11.17372
     96       1.00000          -0.390788          -10.63389
     97       1.00000          -0.384634          -10.46643
     98       1.00000          -0.382645          -10.41230
     99       1.00000          -0.371398          -10.10627
    100       1.00000          -0.363904           -9.90233
    101       1.00000          -0.362121           -9.85382
    102       1.00000          -0.351251           -9.55802
    103       1.00000          -0.348245           -9.47624
    104       1.00000          -0.346299           -9.42326
    105       1.00000          -0.335448           -9.12801
    106       1.00000          -0.332107           -9.03708
    107       1.00000          -0.327797           -8.91980
    108       1.00000          -0.321952           -8.76076
    109       1.00000          -0.314968           -8.57071
    110       1.00000          -0.311264           -8.46991
    111       1.00000          -0.309468           -8.42104
    112       1.00000          -0.305702           -8.31857
    113       1.00000          -0.302741           -8.23800
    114       0.99985          -0.298997           -8.13611
    115       0.99984          -0.298915           -8.13388
[...]
     91       1.00000          -1.940859          -52.81345
     92       1.00000          -0.820224          -22.31943
     93       1.00000          -0.363869           -9.90139
     94       1.00000          -0.347561           -9.45761
     95       1.00000          -0.328477           -8.93832
     96       1.00000          -0.290235           -7.89771
     97       1.00000          -0.270963           -7.37327
     98       1.00000          -0.270218           -7.35301
     99       1.00000          -0.261217           -7.10807
    100       1.00000          -0.254442           -6.92373
    101       1.00000          -0.245593           -6.68292
    102       1.00000          -0.239970           -6.52991
    103       1.00000          -0.239859           -6.52689
    104       1.00000          -0.237842           -6.47201
    105       1.00000          -0.233699           -6.35926
    106       1.00000          -0.219980           -5.98595
    107       1.00000          -0.217916           -5.92979
    108       1.00000          -0.216503           -5.89133
    109       1.00000          -0.205042           -5.57946
    110       1.00000          -0.197189           -5.36577
    111       1.00000          -0.195813           -5.32835
    112       1.00000          -0.192635           -5.24186
    113       1.00000          -0.189720           -5.16254
    114       1.00000          -0.188962           -5.14191
    115       0.99705          -0.182956           -4.97848
    116       0.84404          -0.178428           -4.85527
    117       0.77670          -0.177778           -4.83758
    118       0.21807          -0.173776           -4.72870
    119       0.16414          -0.173260           -4.71464
    120       0.00000          -0.156351           -4.25453
    121       0.00000          -0.140729           -3.82943
    122       0.00000          -0.121427           -3.30420
    123       0.00000          -0.114764           -3.12289
    124       0.00000          -0.085348           -2.32243
    125       0.00000          -0.056810           -1.54587
    126       0.00000          -0.007342           -0.19978
    127       0.00000          -0.003561           -0.09689
    128       0.00000           0.015903            0.43274
    129       0.00000           0.020322            0.55299
    130       0.00000           0.036636            0.99691
    131       0.00000           0.060509            1.64653
    132       0.00000           0.114789            3.12358
    133       0.00000           0.125392            3.41209
    134       0.00000           0.165076            4.49194
    135       0.00000           0.167265            4.55152
    136       0.00000           0.197747            5.38096
    137       0.00000           0.203204            5.52946
    138       0.00000           0.212325            5.77765
    139       0.00000           0.224493            6.10878
    140       0.00000           0.228893            6.22850
    141       0.00000           0.246771            6.71497
    142       0.00000           0.273855            7.45198
    143       0.00000           0.282227            7.67980
    144       0.00000           0.290513            7.90525
    145       0.00000           0.300263            8.17057
    146       0.00000           0.320402            8.71858
    147       0.00000           0.322677            8.78049
    148       0.00000           0.339722            9.24431
    149       0.00000           0.341331            9.28809
    150       0.00000           0.351760            9.57187

  Current spin moment of the entire structure :
  | N = N_up - N_down :    4.00
  | S                 :    2.00
  | J                 :    5.00

  Highest occupied state (VBM) at     -4.44055555 eV
  | Occupation number:      0.99999999
  | Spin channel:        1

  Lowest unoccupied state (CBM) at    -4.72869866 eV
  | Occupation number:      0.21806601
  | Spin channel:        2

  Overall HOMO-LUMO gap:     -0.28814311 eV.
  This system has fractional occupation numbers. Thus, it is a degenerate system
  within the approximate finite broadening function (occupation_type)
  applied to determine the occupation numbers.
  This may not be harmful. However, for some systems (free atoms), a different, non-degenerate
  ground state might exist by using a smaller broadening (see keyword occupation_type).

  Total energy components:
  | Sum of eigenvalues            :      -15193.88087562 Ha     -413446.53455367 eV
  | XC energy correction          :        -706.53261251 Ha      -19225.73058079 eV
  | XC potential correction       :         936.70760417 Ha       25489.11078118 eV
  | Free-atom electrostatic energy:      -10308.12861502 Ha     -280498.45121864 eV
  | Hartree energy correction     :          -8.86818064 Ha        -241.31547313 eV
  | Entropy correction            :          -0.00141475 Ha          -0.03849726 eV
  | ---------------------------
  | Total energy                  :      -25280.70267961 Ha     -687922.92104505 eV
  | Total energy, T -> 0          :      -25280.70409436 Ha     -687922.95954231 eV  <-- do not rely on this value for anything but (periodic) metals
  | Electronic free energy        :      -25280.70550911 Ha     -687922.99803956 eV

  Derived energy quantities:
  | Kinetic energy                :       26805.24397362 Ha      729407.80038245 eV
  | Electrostatic energy          :      -51379.41404072 Ha    -1398104.99084672 eV
  | Energy correction for multipole
  | error in Hartree potential    :          -0.00050611 Ha          -0.01377208 eV
  | Sum of eigenvalues per atom                           :      -68907.75575894 eV
  | Total energy (T->0) per atom                          :     -114653.82659038 eV  <-- do not rely on this value for anything but (periodic) metals
  | Electronic free energy per atom                       :     -114653.83300659 eV
  End evaluation of scaled ZORA corrections.
  | Time for scaled ZORA corrections           :        0.158 s           0.158 s
------------------------------------------------------------

  Energy and forces in a compact form:
  | Total energy uncorrected      :         -0.687922921045052E+06 eV
  | Total energy corrected        :         -0.687922959542307E+06 eV  <-- do not rely on this value for anything but (periodic) metals
  | Electronic free energy        :         -0.687922998039563E+06 eV

  Calculating total density of states ...
  | Chemical potential is  -4.409622 eV.
  | writing DOS (shifted by electron chemical potential) to file KS_DOS_total.dat
  | writing DOS (raw data) to file KS_DOS_total_raw.dat
  ------------------------------------ 
  Start decomposition of the XC Energy 
  ------------------------------------ 
  X and C from original XC functional choice 
  Hartree-Fock Energy :          0.000000000 Ha              0.000000000 eV
  X Energy            :       -684.210808030 Ha         -18618.323376372 eV
  C Energy            :        -22.321804479 Ha           -607.407204416 eV
  Total XC Energy     :       -706.532612510 Ha         -19225.730580788 eV
  ------------------------------------ 
  LDA X and C from self-consistent density 
  X Energy LDA        :       -684.210808030 Ha         -18618.323376372 eV
  C Energy LDA        :        -22.321804479 Ha           -607.407204416 eV
  ------------------------------------ 
  End decomposition of the XC Energy 
  ------------------------------------ 

------------------------------------------------------------

  ------------------------------------------------------------
                   Starting Mulliken Analysis
  ------------------------------------------------------------

  Performing Mulliken charge analysis on all atoms.
  Full analysis will be written to separate file 'Mulliken.out'.
  Summary of the per-atom charge analysis:
  |
  |  atom       electrons          charge             l=0             l=1             l=2             l=3
  |     1       45.828883        0.171117        8.516733       18.265036       19.002183        0.044932
  |     2       45.828888        0.171112        8.516733       18.265036       19.002187        0.044932
  |     3       45.988786        0.011214        8.581246       18.118246       19.273696        0.015598
  |     4       45.988792        0.011208        8.581247       18.118246       19.273700        0.015598
  |     5       46.039873       -0.039873        8.625678       18.156296       19.237182        0.020717
  |     6        8.324777       -0.324777        3.868782        4.429118        0.026878
  |
  | Total      238.000000       -0.000000
 
  Summary of the per-atom spin analysis:
  |
  |  atom   spin      l=0         l=1         l=2         l=3
  |     1    0.734623    0.031065    0.039253    0.658962    0.005342
  |     2    0.734619    0.031065    0.039253    0.658959    0.005342
  |     3    0.609317    0.081697    0.012416    0.514114    0.001091
  |     4    0.609313    0.081697    0.012416    0.514110    0.001091
  |     5    0.526794    0.034790    0.014412    0.476495    0.001098
  |     6    0.785333    0.007503    0.777807    0.000023
  |
  | Total    4.000000
 
  Writing Mulliken decomposition to disk ...


  Calculating atom-projected density of states ...
  | Chemical potential is  -4.409622 eV.
  | writing spin-up projected DOS (shifted by the chemical potential) for species Pd to file atom_proj_dos_spin_upPd0001.dat.
  | writing spin-down projected DOS (shifted by the chemical potential) for species Pd to file atom_proj_dos_spin_dnPd0001.dat.
  | writing spin-up projected DOS (raw data) for species Pd to file atom_proj_dos_spin_upPd0001_raw.dat.
  | writing spin-down projected DOS (raw data) for species Pd to file atom_proj_dos_spin_dnPd0001_raw.dat.
  | writing spin-up projected DOS (shifted by the chemical potential) for species Pd to file atom_proj_dos_spin_upPd0002.dat.
  | writing spin-down projected DOS (shifted by the chemical potential) for species Pd to file atom_proj_dos_spin_dnPd0002.dat.
  | writing spin-up projected DOS (raw data) for species Pd to file atom_proj_dos_spin_upPd0002_raw.dat.
  | writing spin-down projected DOS (raw data) for species Pd to file atom_proj_dos_spin_dnPd0002_raw.dat.
  | writing spin-up projected DOS (shifted by the chemical potential) for species Pd to file atom_proj_dos_spin_upPd0003.dat.
  | writing spin-down projected DOS (shifted by the chemical potential) for species Pd to file atom_proj_dos_spin_dnPd0003.dat.
  | writing spin-up projected DOS (raw data) for species Pd to file atom_proj_dos_spin_upPd0003_raw.dat.
  | writing spin-down projected DOS (raw data) for species Pd to file atom_proj_dos_spin_dnPd0003_raw.dat.
  | writing spin-up projected DOS (shifted by the chemical potential) for species Pd to file atom_proj_dos_spin_upPd0004.dat.
  | writing spin-down projected DOS (shifted by the chemical potential) for species Pd to file atom_proj_dos_spin_dnPd0004.dat.
  | writing spin-up projected DOS (raw data) for species Pd to file atom_proj_dos_spin_upPd0004_raw.dat.
  | writing spin-down projected DOS (raw data) for species Pd to file atom_proj_dos_spin_dnPd0004_raw.dat.
  | writing spin-up projected DOS (shifted by the chemical potential) for species Pd to file atom_proj_dos_spin_upPd0005.dat.
  | writing spin-down projected DOS (shifted by the chemical potential) for species Pd to file atom_proj_dos_spin_dnPd0005.dat.
  | writing spin-up projected DOS (raw data) for species Pd to file atom_proj_dos_spin_upPd0005_raw.dat.
  | writing spin-down projected DOS (raw data) for species Pd to file atom_proj_dos_spin_dnPd0005_raw.dat.
  | writing spin-up projected DOS (shifted by the chemical potential) for species O to file atom_proj_dos_spin_upO0006.dat.
  | writing spin-down projected DOS (shifted by the chemical potential) for species O to file atom_proj_dos_spin_dnO0006.dat.
  | writing spin-up projected DOS (raw data) for species O to file atom_proj_dos_spin_upO0006_raw.dat.
  | writing spin-down projected DOS (raw data) for species O to file atom_proj_dos_spin_dnO0006_raw.dat.
  Mulliken analysis                                       :  max(cpu_time)    wall_clock(cpu1)
  | Time for Mulliken analysis                            :          0.098               0.150
  | Total time for Mulliken analysis                      :          0.098               0.150
------------------------------------------------------------
  |------------------------------------------------------
  | Final ELSI Output
  |------------------------------------------------------
  |
  | Physical Properties
  |   Number of electrons       :        0.23800000E+03
  |   Number of spins           :                     1
  |   Number of k-points        :                     1
  |   Number of states          :                   150
  |
  | Matrix Properties
  |   Matrix format             :           BLACS_DENSE
  |   Number of basis functions :                   214
  |   Matrix sparsity           :        0.87474889E-01
  |
  | Computational Details
  |   Parallel mode             :            MULTI_PROC
  |   Number of MPI tasks       :                     8
  |   Solver requested          :                  ELPA
  |   Number of ELSI calls      :                    48
  |
  |------------------------------------------------------
  | ELSI Project (c)  elsi-interchange.org
  |------------------------------------------------------

------------------------------------------------------------------------------
  Final output of selected total energy values:

  The following output summarizes some interesting total energy values
  at the end of a run (AFTER all relaxation, molecular dynamics, etc.).

  | Total energy of the DFT / Hartree-Fock s.c.f. calculation      :        -687922.921045052 eV
  | Final zero-broadening corrected energy (caution - metals only) :        -687922.959542307 eV
  | For reference only, the value of 1 Hartree used in FHI-aims is :             27.211384500 eV

  Before relying on these values, please be sure to understand exactly which
  total energy value is referred to by a given number. Different objects may
  all carry the same name 'total energy'. Definitions:

  Total energy of the DFT / Hartree-Fock s.c.f. calculation:
  | Note that this energy does not include ANY quantities calculated after the
  | s.c.f. cycle, in particular not ANY RPA, MP2, etc. many-body perturbation terms.
  | Scalar relativistic effects have been included in the 'scaled ZORA' approximation.

  Final zero-broadening corrected energy:
  | For metallic systems only, a broadening of the occupation numbers at the Fermi
  | level can be extrapolated back to zero broadening by an electron-gas inspired
  | formula. For all systems that are not real metals, this value can be
  | meaningless and should be avoided.

------------------------------------------------------------------------------
  Methods described in the following list of references were used in this FHI-aims run.
  If you publish the results, please make sure to cite these reference if they apply.
  FHI-aims is an academic code, and for our developers (often, Ph.D. students
  and postdocs), scientific credit in the community is essential.
  Thank you for helping us!

  For any use of FHI-aims, please cite:

    Volker Blum, Ralf Gehrke, Felix Hanke, Paula Havu, Ville Havu,
    Xinguo Ren, Karsten Reuter, and Matthias Scheffler
    'Ab initio molecular simulations with numeric atom-centered orbitals'
    Computer Physics Communications 180, 2175-2196 (2009)
    http://dx.doi.org/10.1016/j.cpc.2009.06.022


  The ELSI infrastructure was used in your run to solve the Kohn-Sham electronic structure.
  Please check out http://elsi-interchange.org to learn more.
  If scalability is important for your project, please acknowledge ELSI by citing:

    V. W-z. Yu, F. Corsetti, A. Garcia, W. P. Huhn, M. Jacquelin, W. Jia,
    B. Lange, L. Lin, J. Lu, W. Mi, A. Seifitokaldani, A. Vazquez-Mayagoitia,
    C. Yang, H. Yang, and V. Blum
    'ELSI: A unified software interface for Kohn-Sham electronic structure solvers'
    Computer Physics Communications 222, 267-285 (2018).
    http://dx.doi.org/10.1016/j.cpc.2017.09.007


  For the real-space grid partitioning and parallelization used in this calculation, please cite:

    Ville Havu, Volker Blum, Paula Havu, and Matthias Scheffler,
    'Efficient O(N) integration for all-electron electronic structure calculation'
    'using numerically tabulated basis functions'
    Journal of Computational Physics 228, 8367-8379 (2009).
    http://dx.doi.org/10.1016/j.jcp.2009.08.008

  Of course, there are many other important community references, e.g., those cited in the
  above references. Our list is limited to references that describe implementations in the
  FHI-aims code. The reason is purely practical (length of this list) - please credit others as well.

 * A warning was issued further up regarding the accuracy of onsite integrals.
   An integral with a negative eigenvalue was among the flagged integrals.
   In most standard situations, this warning is probably harmless.
   If needed, this can be verified by adjusting the radial_multiplier flag.

------------------------------------------------------------
          Leaving FHI-aims.
          Date     :  20190817, Time     :  153209.652

          Computational steps:
          | Number of self-consistency cycles          :           23
          | Number of SCF (re)initializations          :            1

          Detailed time accounting                     :  max(cpu_time)    wall_clock(cpu1)
          | Total time                                 :        4.940 s           4.945 s
          | Preparation time                           :        0.534 s           0.535 s
          | Boundary condition initalization           :        0.000 s           0.000 s
          | Grid partitioning                          :        0.017 s           0.017 s
          | Preloading free-atom quantities on grid    :        0.002 s           0.002 s
          | Free-atom superposition energy             :        0.005 s           0.005 s
          | Total time for integrations                :        2.733 s           2.733 s
          | Total time for solution of K.-S. equations :        0.318 s           0.319 s
          | Total time for density update              :        0.500 s           0.500 s
          | Total time for mixing                      :        0.027 s           0.028 s
          | Total time for Hartree multipole update    :        0.036 s           0.034 s
          | Total time for Hartree multipole sum       :        0.341 s           0.342 s
          | Total time for total energy evaluation     :        0.003 s           0.004 s
          | Total time for scaled ZORA corrections     :        0.158 s           0.158 s
          | Total time for band structures, DOS        :        0.014 s           0.017 s
          | Total time for Mulliken analysis           :        0.098 s           0.150 s

          Partial memory accounting:
          | Residual value for overall tracked memory usage across tasks:     0.000000 MB (should be 0.000000 MB)
          | Peak values for overall tracked memory usage:
          |   Minimum:        5.647 MB (on task 1 after allocating zora_vector2)
          |   Maximum:        6.051 MB (on task 0 after allocating zora_vector2)
          |   Average:        5.801 MB
          | Largest tracked array allocation:
          |   Minimum:        1.448 MB (zora_vector1 on task 1)
          |   Maximum:        1.567 MB (zora_vector1 on task 0)
          |   Average:        1.508 MB
          Note:  These values currently only include a subset of arrays which are explicitly tracked.
          The "true" memory usage will be greater.

          Have a nice day.
------------------------------------------------------------
