  MPI-parallelism will be employed.
------------------------------------------------------------
          Invoking FHI-aims ...
          Version 180101-
          Git rev. (modified): fa29f3a Merge branch master of fhiaims.rzberlin.mp[...]
          Compiled on 2018/01/19 at 14:47:46 on host theobook132.

          When using FHI-aims, please cite the following reference:

          Volker Blum, Ralf Gehrke, Felix Hanke, Paula Havu,
          Ville Havu, Xinguo Ren, Karsten Reuter, and Matthias Scheffler,
          'Ab Initio Molecular Simulations with Numeric Atom-Centered Orbitals',
          Computer Physics Communications 180, 2175-2196 (2009)

          For any questions about FHI-aims, please visit the aimsclub website
          with its forums and wiki. Contributions to both the forums and the
          wiki are warmly encouraged - they are for you, and everyone is welcome there.

------------------------------------------------------------



  Date     :  20180215, Time     :  214400.318
  Time zero on CPU 1             :   0.400000000000000E-01  s.
  Internal wall clock time zero  :           287963040.318  s.

  FHI-aims created a unique identifier for this run for later identification
  aims_uuid : E2A320AA-9A18-477E-A1DD-7517753A05D0

  Using        8 parallel tasks.
  Task        0 on host theobook132 reporting.
  Task        1 on host theobook132 reporting.
  Task        2 on host theobook132 reporting.
  Task        3 on host theobook132 reporting.
  Task        4 on host theobook132 reporting.
  Task        5 on host theobook132 reporting.
  Task        6 on host theobook132 reporting.
  Task        7 on host theobook132 reporting.

  Performing system and environment tests:
  *** Environment variable OMP_NUM_THREADS is not set
  *** For performance reasons you might want to set it to 1
  | Stacksize not measured: no C compiler
  | Checking for scalapack...
  | No scalapack compiled in.

  Obtaining array dimensions for all initial allocations:
  
  -----------------------------------------------------------------------
  Parsing control.in (first pass over file, find array dimensions only).
  The contents of control.in will be repeated verbatim below
  unless switched off by setting 'verbatim_writeout .false.' .
  in the first line of control.in .
  -----------------------------------------------------------------------
  
  ################################################################################
  #
  #		Control.in generated by mkcontrol
  #
  ################################################################################
  xc			pbe
  vdw_correction_hirshfeld
  relativistic		none
  sc_accuracy_rho		1E-5
  sc_accuracy_eev		1E-3
  sc_accuracy_etot	1E-6
  sc_iter_limit		1000	
  
  compute_forces .true.
  final_forces_cleaned .true.
  
  ################################################################################
  #
  #  FHI-aims code project
  #  VB, Fritz-Haber Institut, 2009
  #
  #  Suggested "light" defaults for H atom (to be pasted into control.in file)
  #  Be sure to double-check any results obtained with these settings for post-processing,
  #  e.g., with the "tight" defaults and larger basis sets.
  #
  ################################################################################
    species        H
  #     global species definitions
      nucleus             1
      mass                1.00794
  #
      l_hartree           4
  #
      cut_pot             3.5  1.5  1.0
      basis_dep_cutoff    1e-4
  #
      radial_base         24 5.0
      radial_multiplier   1
      angular_grids       specified
        division   0.2421   50
        division   0.3822  110
        division   0.4799  194
        division   0.5341  302
  #      division   0.5626  434
  #      division   0.5922  590
  #      division   0.6542  770
  #      division   0.6868 1202
  #      outer_grid  770
        outer_grid  302
  ################################################################################
  #
  #  Definition of "minimal" basis
  #
  ################################################################################
  #     valence basis states
      valence      1  s   1.
  #     ion occupancy
      ion_occ      1  s   0.5
  ################################################################################
  #
  #  Suggested additional basis functions. For production calculations,
  #  uncomment them one after another (the most important basis functions are
  #  listed first).
  #
  #  Basis constructed for dimers: 0.5 A, 0.7 A, 1.0 A, 1.5 A, 2.5 A
  #
  ################################################################################
  #  "First tier" - improvements: -1014.90 meV to -62.69 meV
       hydro 2 s 2.1
       hydro 2 p 3.5
  #  "Second tier" - improvements: -12.89 meV to -1.83 meV
  #     hydro 1 s 0.85
  #     hydro 2 p 3.7
  #     hydro 2 s 1.2
  #     hydro 3 d 7
  #  "Third tier" - improvements: -0.25 meV to -0.12 meV
  #     hydro 4 f 11.2
  #     hydro 3 p 4.8
  #     hydro 4 d 9
  #     hydro 3 s 3.2
  
  ################################################################################
  #
  #  FHI-aims code project
  #  VB, Fritz-Haber Institut, 2009
  #
  #  Suggested "light" defaults for C atom (to be pasted into control.in file)
  #  Be sure to double-check any results obtained with these settings forpost-processing,
  #  e.g., with the "tight" defaults and larger basis sets.
  #
  ################################################################################
    species        C
  #     global species definitions
      nucleus             6
      mass                12.0107
  #
      l_hartree           4
  #
      cut_pot             3.5  1.5  1.0
      basis_dep_cutoff    1e-4
  #
      radial_base         34 5.0
      radial_multiplier   1
      angular_grids specified
        division   0.3326   50
        division   0.5710  110
        division   0.7727  194
        division   0.8772  302
  #      division   0.9334  434
  #      division   0.9625  590
  #      division   0.9924  770
  #      division   1.0230  974
  #      division   1.4589 1202
  #     outer_grid  974
       outer_grid 302
  ################################################################################
  #
  #  Definition of "minimal" basis
  #
  ################################################################################
  #     valence basis states
      valence      2  s   2.
      valence      2  p   2.
  #     ion occupancy
      ion_occ      2  s   1.
      ion_occ      2  p   1.
  ################################################################################
  #
  #  Suggested additional basis functions. For production calculations,
  #  uncomment them one after another (the most important basis functions are
  #  listed first).
  #
  #  Constructed for dimers: 1.0 A, 1.25 A, 1.5 A, 2.0 A, 3.0 A
  #
  ################################################################################
  #  "First tier" - improvements: -1214.57 meV to -155.61 meV
       hydro 2 p 1.7
       hydro 3 d 6
       hydro 2 s 4.9
  #  "Second tier" - improvements: -67.75 meV to -5.23 meV
  #     hydro 4 f 9.8
  #     hydro 3 p 5.2
  #     hydro 3 s 4.3
  #     hydro 5 g 14.4
  #     hydro 3 d 6.2
  #  "Third tier" - improvements: -2.43 meV to -0.60 meV
  #     hydro 2 p 5.6
  #     hydro 2 s 1.4
  #     hydro 3 d 4.9
  #     hydro 4 f 11.2
  #  "Fourth tier" - improvements: -0.39 meV to -0.18 meV
  #     hydro 2 p 2.1
  #     hydro 5 g 16.4
  #     hydro 4 d 13.2
  #     hydro 3 s 13.6
  #     hydro 4 f 17.6
  #  Further basis functions - improvements: -0.08 meV and below
  #     hydro 3 s 2
  #     hydro 3 p 6
  #     hydro 4 d 20
  
  -----------------------------------------------------------------------
  Completed first pass over input file control.in .
  -----------------------------------------------------------------------
  
  
  -----------------------------------------------------------------------
  Parsing geometry.in (first pass over file, find array dimensions only).
  The contents of geometry.in will be repeated verbatim below
  unless switched off by setting 'verbatim_writeout .false.' .
  in the first line of geometry.in .
  -----------------------------------------------------------------------
  
  #=======================================#
  # iterations/iteration0037/aims-chain-node-0.51665/geometry.in
  #=======================================#
  atom -1.4747092264500532 -0.9302025991601263 -0.3697518936436524 C
  atom -0.6796155563036992 -0.1009389934232180 0.5912469067350415 C
  atom 0.6796154769991408 0.1009391164862064 0.5912469250342225 C
  atom 1.4747092409701401 0.9302025503864682 -0.3697519520582415 C
  atom -0.9184687397703304 -1.2002601811052644 -1.2753364985746323 H
  atom -2.4921292660683543 -0.5865626894950757 -0.5956182348278718 H
  atom -1.6129601022431690 -1.8963129132979697 0.1743644363890911 H
  atom -1.2508890632590071 0.2137235375258007 1.4750953874274859 H
  atom 1.2508889359038606 -0.2137233323084542 1.4750954661783564 H
  atom 0.9184686323373135 1.2002603846196025 -1.2753364092134052 H
  atom 1.6129605454431857 1.8963127704722742 0.1743644319929079 H
  atom 2.4921291224409585 0.5865623492997530 -0.5956185654393105 H
  
  -----------------------------------------------------------------------
  Completed first pass over input file geometry.in .
  -----------------------------------------------------------------------
  

  Basic array size parameters:
  | Number of species                 :        2
  | Number of atoms                   :       12
  | Max. basis fn. angular momentum   :        2
  | Max. atomic/ionic basis occupied n:        2
  | Max. number of basis fn. types    :        2
  | Max. radial fns per species/type  :        3
  | Max. logarithmic grid size        :     1277
  | Max. radial integration grid size :       34
  | Max. angular integration grid size:      302
  | Max. angular grid division number :        8
  | Radial grid for Hartree potential :     1277
  | Number of spin channels           :        1

------------------------------------------------------------
          Reading file control.in.
------------------------------------------------------------
  XC: Using PBE gradient-corrected functionals.
  Non-relativistic treatment of kinetic energy.
  Convergence accuracy of self-consistent charge density:  0.1000E-04
  Convergence accuracy of sum of eigenvalues:  0.1000E-02
  Convergence accuracy of total energy:  0.1000E-05
  Maximum number of s.-c. iterations  :  1000
  Forces will be computed.
  Cleaning forces before final output.
 
  Reading configuration options for species H                   .
  | Found nuclear charge :   1.0000
  | Found atomic mass :    1.00794000000000      amu
  | Found l_max for Hartree potential  :   4
  | Found cutoff potl. onset [A], width [A], scale factor :    3.50000    1.50000    1.00000
  | Threshold for basis-dependent cutoff potential is   0.100000E-03
  | Found data for basic radial integration grid :    24 points, outermost radius =    5.000 A
  | Found multiplier for basic radial grid :   1
  | Found angular grid specification: user-specified.
  | Specified grid contains     5 separate shells.
  | Check grid settings after all constraints further below.
  | Found free-atom valence shell :  1 s   1.000
  | No ionic wave fns used. Skipping ion_occ.
  | Found hydrogenic basis function :  2 s   2.100
  | Found hydrogenic basis function :  2 p   3.500
  Species H                   : Missing cutoff potential type.
  Defaulting to exp(1/x)/(1-x)^2 type cutoff potential.
  Species H : No 'logarithmic' tag. Using default grid for free atom:
  | Default logarithmic grid data [bohr] : 0.1000E-03 0.1000E+03 0.1012E+01
  Species H : On-site basis accuracy parameter (for Gram-Schmidt orthonormalisation) not specified.
  Using default value basis_acc =  0.1000000E-03.
  Species H                   : Using default innermost maximum threshold i_radial=  2 for radial functions.
  Species H                   : Default cutoff onset for free atom density etc. : 0.35000000E+01 AA.
  Species H                   : Basic radial grid will be enhanced according to radial_multiplier =   1, to contain    24 grid points.
 
  Reading configuration options for species C                   .
  | Found nuclear charge :   6.0000
  | Found atomic mass :    12.0107000000000      amu
  | Found l_max for Hartree potential  :   4
  | Found cutoff potl. onset [A], width [A], scale factor :    3.50000    1.50000    1.00000
  | Threshold for basis-dependent cutoff potential is   0.100000E-03
  | Found data for basic radial integration grid :    34 points, outermost radius =    5.000 A
  | Found multiplier for basic radial grid :   1
  | Found angular grid specification: user-specified.
  | Specified grid contains     5 separate shells.
  | Check grid settings after all constraints further below.
  | Found free-atom valence shell :  2 s   2.000
  | Found free-atom valence shell :  2 p   2.000
  | No ionic wave fns used. Skipping ion_occ.
  | No ionic wave fns used. Skipping ion_occ.
  | Found hydrogenic basis function :  2 p   1.700
  | Found hydrogenic basis function :  3 d   6.000
  | Found hydrogenic basis function :  2 s   4.900
  Species C                   : Missing cutoff potential type.
  Defaulting to exp(1/x)/(1-x)^2 type cutoff potential.
  Species C : No 'logarithmic' tag. Using default grid for free atom:
  | Default logarithmic grid data [bohr] : 0.1000E-03 0.1000E+03 0.1012E+01
  Species C : On-site basis accuracy parameter (for Gram-Schmidt orthonormalisation) not specified.
  Using default value basis_acc =  0.1000000E-03.
  Species C                   : Using default innermost maximum threshold i_radial=  2 for radial functions.
  Species C                   : Default cutoff onset for free atom density etc. : 0.35000000E+01 AA.
  Species C                   : Basic radial grid will be enhanced according to radial_multiplier =   1, to contain    34 grid points.
 
  Finished reading input file 'control.in'. Consistency checks are next.
 
  MPI_IN_PLACE appears to work with this MPI implementation.
  | Keeping use_mpi_in_place .true. (see manual).
  Target number of points in a grid batch is not set. Defaulting to  100
  Method for grid partitioning is not set. Defaulting to parallel hash+maxmin partitioning.
  Batch size limit is not set. Defaulting to    200
  By default, will store active basis functions for each batch.
  If in need of memory, prune_basis_once .false. can be used to disable this option.
  communication_type for Hartree potential was not specified.
  Defaulting to calc_hartree .
  Defaulting to Pulay charge density mixer.
  Pulay mixer: Number of relevant iterations not set.
  Defaulting to    8 iterations.
  Pulay mixer: Number of initial linear mixing iterations not set.
  Defaulting to    0 iterations.
  Work space size for distributed Hartree potential not set.
  Defaulting to   0.200000E+03 MB.
  Mixing parameter for charge density mixing has not been set.
  Using default: charge_mix_param =     0.0500.
  The mixing parameter will be adjusted in iteration number     2 of the first full s.c.f. cycle only.
  Algorithm-dependent basis array size parameters:
  | n_max_pulay                         :        8
  Presetting        40 iterations before the initial mixing cycle
  is restarted anyway using the sc_init_iter criterion / keyword.
  Presetting a factor      1.000 between actual scf density residual
  and density convergence criterion sc_accuracy_rho below which sc_init_iter
  takes no effect.
  Geometry relaxation not requested: no relaxation will be performed.
  Force calculation: scf convergence accuracy of forces not set.
  Defaulting to 'sc_accuracy_forces not_checked'.
  Handling of forces: Unphysical translation and rotation will be removed from forces.
  No accuracy limit for integral partition fn. given. Defaulting to  0.1000E-14.
  No threshold value for u(r) in integrations given. Defaulting to  0.1000E-05.
  No occupation type (smearing scheme) given. Defaulting to Gaussian broadening, width =  0.1000E-01 eV.
  The width will be adjusted in iteration number     2 of the first full s.c.f. cycle only.
  S.C.F. convergence parameters will be adjusted in iteration number     2 of the first full s.c.f. cycle only.
  No accuracy for occupation numbers given. Defaulting to  0.1000E-12.
  No threshold value for occupation numbers given. Defaulting to  0.0000E+00.
  No accuracy for fermi level given. Defaulting to  0.1000E-19.
  Maximum # of iterations to find E_F not set. Defaulting to  200.
  Preferred method for the eigenvalue solver ('KS_method') not specified in 'control.in'.
  Calling BLACS routine to test compilation state
  The best choice would be 'elsi', but your version of FHI-aims is compiled without ScaLAPACK support.
  Defaulting to 'lapack_fast' instead (serial solution, time will not improve with more CPUs).
  Will not use alltoall communication since running on < 1024 CPUs.
  Threshold for basis singularities not set.
  Default threshold for basis singularities:  0.1000E-04
  partition_type (choice of integration weights) for integrals was not specified.
  | Using a version of the partition function of Stratmann and coworkers ('stratmann_smoother').
  | At each grid point, the set of atoms used to build the partition table is smoothly restricted to
  | only those atoms whose free-atom density would be non-zero at that grid point.
  Partitioning for Hartree potential was not defined. Using partition_type for integrals.
  | Adjusted default value of keyword multip_moments_threshold to:       0.10000000E-11
  | This value may affect high angular momentum components of the Hartree potential in periodic systems.
  Spin handling was not defined in control.in. Defaulting to unpolarized case.
  No q(lm)/r^(l+1) cutoff set for long-range Hartree potential.
  | Using default value of  0.100000E-09 .
  | Verify using the multipole_threshold keyword.
  Defaulting to new monopole extrapolation.
  Density update method: automatic selection selected.
------------------------------------------------------------


------------------------------------------------------------
          Reading geometry description geometry.in.
------------------------------------------------------------
  Input structure read successfully.
  The structure contains       12 atoms,  and a total of         32.000 electrons.

  Input geometry:
  | No unit cell requested.
  | Atomic structure:
  |       Atom                x [A]            y [A]            z [A]
  |    1: Species C            -1.47470923       -0.93020260       -0.36975189
  |    2: Species C            -0.67961556       -0.10093899        0.59124691
  |    3: Species C             0.67961548        0.10093912        0.59124693
  |    4: Species C             1.47470924        0.93020255       -0.36975195
  |    5: Species H            -0.91846874       -1.20026018       -1.27533650
  |    6: Species H            -2.49212927       -0.58656269       -0.59561823
  |    7: Species H            -1.61296010       -1.89631291        0.17436444
  |    8: Species H            -1.25088906        0.21372354        1.47509539
  |    9: Species H             1.25088894       -0.21372333        1.47509547
  |   10: Species H             0.91846863        1.20026038       -1.27533641
  |   11: Species H             1.61296055        1.89631277        0.17436443
  |   12: Species H             2.49212912        0.58656235       -0.59561857
  |

  | The smallest distance between any two atoms is         1.09654824 AA.
  |
  | The first atom of this pair is atom number                      1 .
  | The second atom of this pair is atom number                     5 .

  Number of empty states per atom not set in control.in - providing a guess from actual geometry.
  | Total number of empty states used during s.c.f. cycle:       24
  If you use a very high smearing, use empty_states (per atom!) in control.in to increase this value.

  Structure-dependent array size parameters: 
  | Maximum number of distinct radial functions  :        9
  | Maximum number of basis functions            :       96
  | Number of Kohn-Sham states (occupied + empty):       40
------------------------------------------------------------

------------------------------------------------------------
          Preparing all fixed parts of the calculation.
------------------------------------------------------------
  Determining machine precision:
    2.225073858507201E-308
  Setting up grids for atomic and cluster calculations.

  Creating wave function, potential, and density for free atoms.

  Species: H

  List of occupied orbitals and eigenvalues:
    n    l              occ      energy [Ha]    energy [eV]
    1    0           1.0000        -0.237589        -6.4651


  Species: C

  List of occupied orbitals and eigenvalues:
    n    l              occ      energy [Ha]    energy [eV]
    1    0           2.0000       -10.038835      -273.1706
    2    0           2.0000        -0.502696       -13.6791
    2    1           2.0000        -0.191971        -5.2238

  Creating fixed part of basis set: Ionic, confined, hydrogenic.
 
  H                    hydrogenic:
 
  List of hydrogenic basis orbitals: 
    n    l      effective z      eigenvalue [eV]  inner max. [A]     outer max. [A]     outer radius [A]   
    2    0         2.100000       -14.9728           0.193243           1.317208           4.583499
    2    1         3.500000       -41.6669           0.602369           0.602369           3.723403
 
 
  C                    hydrogenic:
 
  List of hydrogenic basis orbitals: 
    n    l      effective z      eigenvalue [eV]  inner max. [A]     outer max. [A]     outer radius [A]   
    2    1         1.700000        -9.7616           1.230570           1.230570           4.607917
    3    2         6.000000       -54.4224           0.792453           0.792453           3.883070
    2    0         4.900000       -81.6679           0.082559           0.562749           3.078220
 

  Adding cutoff potential to free-atom effective potential.
  Creating atomic-like basis functions for current effective potential.

  Species H                   :

  List of atomic basis orbitals and eigenvalues:
    n    l      energy [Ha]    energy [eV]    outer radius [A]
    1    0        -0.237589        -6.4651       4.527807


  Species C                   :

  List of atomic basis orbitals and eigenvalues:
    n    l      energy [Ha]    energy [eV]    outer radius [A]
    1    0       -10.038835      -273.1706       1.934409
    2    0        -0.502696       -13.6791       4.496620
    2    1        -0.191971        -5.2238       4.551928

  Assembling full basis from fixed parts.
  | Species H :   atomic orbital   1 s accepted.
  | Species H :    hydro orbital   2 s accepted.
  | Species H :    hydro orbital   2 p accepted.
  | Species C :   atomic orbital   1 s accepted.
  | Species C :    hydro orbital   2 s accepted.
  | Species C :   atomic orbital   2 s accepted.
  | Species C :   atomic orbital   2 p accepted.
  | Species C :    hydro orbital   2 p accepted.
  | Species C :    hydro orbital   3 d accepted.
 
  Basis size parameters after reduction:
  | Total number of radial functions:        9
  | Total number of basis functions :       96
 
  Per-task memory consumption for arrays in subroutine allocate_ext:
  |           2.209696MB.
  Testing on-site integration grid accuracy.
  |  Species  Function  <phi|h_atom|phi> (log., in eV)  <phi|h_atom|phi> (rad., in eV)
           1        1                 -6.4663192853                 -6.4651273558
           1        2                 13.7111246313                 13.7170609718
           1        3                 25.2673269279                 25.2674696378
           2        4               -273.1705927641               -273.1705631568
           2        5                -10.7109323383                -10.7107120029
           2        6                 17.4381822266                 17.4352413244
           2        7                 -5.2255326521                 -5.2270484734
           2        8                  8.6835629259                  8.6603288385
           2        9                 27.4952418996                 27.4953360207

  Preparing densities etc. for the partition functions (integrals / Hartree potential).

  Preparations completed.
  max(cpu_time)          :      0.128 s.
  Wall clock time (cpu1) :      0.131 s.
------------------------------------------------------------

------------------------------------------------------------
          Begin self-consistency loop: Initialization.

          Date     :  20180215, Time     :  214400.458
------------------------------------------------------------

  Initializing index lists of integration centers etc. from given atomic structure:
  | Number of centers in hartree potential         :        12
  | Number of centers in hartree multipole         :        12
  | Number of centers in electron density summation:        12
  | Number of centers in basis integrals           :        12
  | Number of centers in integrals                 :        12
  | Number of centers in hamiltonian               :        12
  Partitioning the integration grid into batches with parallel hashing+maxmin method.
  | Number of batches:      725
  | Maximal batch size:     200
  | Minimal batch size:      49
  | Average batch size:      84.061
  | Standard deviation of batch sizes:      22.146

  Integration load balanced across     8 MPI tasks.
  Work distribution over tasks is as follows:
  Task     0 has       7548 integration points.
  Task     1 has       7652 integration points.
  Task     2 has       7680 integration points.
  Task     3 has       7669 integration points.
  Task     4 has       7573 integration points.
  Task     5 has       7667 integration points.
  Task     6 has       7570 integration points.
  Task     7 has       7585 integration points.
  Initializing partition tables, free-atom densities, potentials, etc. across the integration grid (initialize_grid_storage).
  | initialize_grid_storage: Actual outermost partition radius vs. multipole_radius_free
  | (-- VB: in principle, multipole_radius_free should be larger, hence this output)
  | Species        1: Confinement radius =              4.999999999999999 AA, multipole_radius_free =              5.054417573612229 AA.
  | Species        1: outer_partition_radius set to              5.054417573612229 AA .
  | Species        2: Confinement radius =              4.999999999999999 AA, multipole_radius_free =              5.019602836301480 AA.
  | Species        2: outer_partition_radius set to              5.019602836301480 AA .
  | Original list of interatomic distances with          12 x         12 entries is created.
  | Net number of integration points:    60944
  | of which are non-zero points    :    52460
  Renormalizing the initial density to the exact electron count on the 3D integration grid.
  | Initial density: Formal number of electrons (from input files) :      32.0000000000
  | Integrated number of electrons on 3D grid     :      31.9998913299
  | Charge integration error                      :      -0.0001086701
  | Normalization factor for density and gradient :       1.0000033960
  Obtaining max. number of non-zero basis functions in each batch (get_n_compute_maxes).
  | Maximal number of non-zero basis functions:       96 in task     0
  | Maximal number of non-zero basis functions:       96 in task     1
  | Maximal number of non-zero basis functions:       96 in task     2
  | Maximal number of non-zero basis functions:       96 in task     3
  | Maximal number of non-zero basis functions:       96 in task     4
  | Maximal number of non-zero basis functions:       96 in task     5
  | Maximal number of non-zero basis functions:       96 in task     6
  | Maximal number of non-zero basis functions:       96 in task     7
  Selecting the method for density update.
  Loop over occupied states selected for charge density update.
  Allocating        0.031 MB for KS_eigenvector
  Integrating Hamiltonian matrix: batch-based integration.
  Time summed over all CPUs for integration: real work        1.294 s, elapsed        1.344 s
  Integrating overlap matrix.
  Time summed over all CPUs for integration: real work        0.498 s, elapsed        0.519 s

  Updating Kohn-Sham eigenvalues, eigenvectors, occupation numbers, and Fermi level.
  Solving generalized eigenproblem
  Updating Kohn-Sham eigenvalues and eigenfunctions.
  Transforming overlap matrix and checking for singularities.
  Overlap matrix is nonsingular:
  | Lowest eigenvalue:  0.358746E-02
  Solving real generalised eigenvalue problem by standard LAPACK (fast)

  Obtaining occupation numbers and chemical potential using ELSI.
  | Chemical potential (Fermi level):    -8.25672447eV
  Writing Kohn-Sham eigenvalues.

  State    Occupation    Eigenvalue [Ha]    Eigenvalue [eV]
      1       2.00000         -10.165795         -276.62537
      2       2.00000         -10.165795         -276.62537
      3       2.00000         -10.145740         -276.07964
      4       2.00000         -10.145255         -276.06644
      5       2.00000          -0.917949          -24.97867
      6       2.00000          -0.854317          -23.24714
      7       2.00000          -0.782767          -21.30016
      8       2.00000          -0.658312          -17.91358
      9       2.00000          -0.600512          -16.34076
     10       2.00000          -0.561796          -15.28725
     11       2.00000          -0.560575          -15.25401
     12       2.00000          -0.529946          -14.42056
     13       2.00000          -0.523986          -14.25839
     14       2.00000          -0.496543          -13.51163
     15       2.00000          -0.494044          -13.44363
     16       2.00000          -0.328533           -8.93984
     17       0.00000          -0.232367           -6.32302
     18       0.00000          -0.035447           -0.96456
     19       0.00000          -0.008014           -0.21807
     20       0.00000          -0.005075           -0.13811
     21       0.00000           0.004557            0.12400
     22       0.00000           0.008099            0.22037
     23       0.00000           0.016239            0.44189
     24       0.00000           0.019478            0.53003
     25       0.00000           0.044854            1.22054
     26       0.00000           0.057941            1.57665
     27       0.00000           0.101074            2.75038
     28       0.00000           0.170377            4.63621
     29       0.00000           0.186353            5.07092
     30       0.00000           0.223256            6.07511
     31       0.00000           0.230079            6.26076
     32       0.00000           0.237858            6.47244
     33       0.00000           0.268455            7.30502
     34       0.00000           0.294324            8.00895
     35       0.00000           0.322955            8.78804
     36       0.00000           0.364099            9.90765
     37       0.00000           0.364689            9.92370
     38       0.00000           0.435806           11.85890
     39       0.00000           0.486264           13.23191
     40       0.00000           0.532365           14.48638

  Highest occupied state (VBM) at     -8.93984264 eV
  | Occupation number:      2.00000000

  Lowest unoccupied state (CBM) at    -6.32302391 eV
  | Occupation number:      0.00000000

  Overall HOMO-LUMO gap:      2.61681873 eV.
  Calculating total energy contributions from superposition of free atom densities.

  Total energy components:
  | Sum of eigenvalues            :         -95.86373319 Ha       -2608.58490352 eV
  | XC energy correction          :         -23.64218850 Ha        -643.33668164 eV
  | XC potential correction       :          30.36930780 Ha         826.39091160 eV
  | Free-atom electrostatic energy:         -68.11694689 Ha       -1853.55643273 eV
  | Hartree energy correction     :           0.00000000 Ha           0.00000000 eV
  | vdW energy correction         :           0.00000000 Ha           0.00000000 eV
  | Entropy correction            :           0.00000000 Ha           0.00000000 eV
  | ---------------------------
  | Total energy                  :        -157.25356078 Ha       -4279.08710629 eV
  | Total energy, T -> 0          :        -157.25356078 Ha       -4279.08710629 eV  <-- do not rely on this value for anything but (periodic) metals
  | Electronic free energy        :        -157.25356078 Ha       -4279.08710629 eV

  Derived energy quantities:
  | Kinetic energy                :         154.22729755 Ha        4196.73829413 eV
  | Electrostatic energy          :        -287.83866983 Ha       -7832.48871878 eV
  | Energy correction for multipole
  | error in Hartree potential    :           0.00000000 Ha           0.00000000 eV
  | Sum of eigenvalues per atom                           :        -217.38207529 eV
  | Total energy (T->0) per atom                          :        -356.59059219 eV  <-- do not rely on this value for anything but (periodic) metals
  | Electronic free energy per atom                       :        -356.59059219 eV
  Initialize hartree_potential_storage
  Max. number of atoms included in rho_multipole:           12

  End scf initialization - timings             :  max(cpu_time)    wall_clock(cpu1)
  | Time for scf. initialization               :        0.432 s           0.432 s
  | Boundary condition initialization          :        0.000 s           0.001 s
  | Integration                                :        0.244 s           0.241 s
  | Solution of K.-S. eqns.                    :        0.012 s           0.011 s
  | Grid partitioning                          :        0.072 s           0.071 s
  | Preloading free-atom quantities on grid    :        0.004 s           0.002 s
  | Free-atom superposition energy             :        0.024 s           0.023 s
  | Total energy evaluation                    :        0.000 s           0.001 s

  Partial memory accounting:
  | Current value for overall tracked memory usage on task 0  :           0.179 MB
  | Peak value for overall tracked memory usage on task 0     :           0.642 MB after allocating wave
  | Largest tracked array allocation on task 0 so far         :           0.154 MB  when allocating H_times_psi
  Note:  These values currently only include a subset of arrays which are explicitly tracked.
  The "true" memory usage will be greater.
------------------------------------------------------------

------------------------------------------------------------
          Begin self-consistency iteration #    1

  Date     :  20180215, Time     :  214400.891
------------------------------------------------------------
  Evaluating new KS density.
  Integration grid: deviation in total charge (<rho> - N_e) =   7.105427E-15
  Pulay mixing of updated and previous charge densities.

  Evaluating partitioned Hartree potential by multipole expansion.
  | Analytical far-field extrapolation by fixed multipoles:
  | Hartree multipole sum: apparent total charge =  -0.137842E-03
  Summing up the Hartree potential.
  Time summed over all CPUs for potential: real work        1.296 s, elapsed        1.321 s
  | RMS charge density error from multipole expansion :   0.126538E-02

  Integrating Hamiltonian matrix: batch-based integration.
  Time summed over all CPUs for integration: real work        1.295 s, elapsed        1.345 s

  Updating Kohn-Sham eigenvalues, eigenvectors, occupation numbers, and Fermi level.
  Solving generalized eigenproblem
  Updating Kohn-Sham eigenvalues and eigenfunctions.
  Solving real generalised eigenvalue problem by standard LAPACK (fast)

  Obtaining occupation numbers and chemical potential using ELSI.
  | Chemical potential (Fermi level):    -7.85197502eV
  Writing Kohn-Sham eigenvalues.

  State    Occupation    Eigenvalue [Ha]    Eigenvalue [eV]
      1       2.00000         -10.131359         -275.68830
      2       2.00000         -10.131359         -275.68830
      3       2.00000         -10.117344         -275.30693
      4       2.00000         -10.116858         -275.29372
      5       2.00000          -0.898427          -24.44744
      6       2.00000          -0.835472          -22.73436
      7       2.00000          -0.763968          -20.78863
      8       2.00000          -0.641658          -17.46041
      9       2.00000          -0.583755          -15.88479
     10       2.00000          -0.543530          -14.79021
     11       2.00000          -0.542044          -14.74976
     12       2.00000          -0.513718          -13.97899
     13       2.00000          -0.507492          -13.80957
     14       2.00000          -0.479775          -13.05535
     15       2.00000          -0.477691          -12.99865
     16       2.00000          -0.312208           -8.49560
     17       0.00000          -0.216098           -5.88033
     18       0.00000          -0.027194           -0.73998
     19       0.00000           0.000549            0.01493
     20       0.00000           0.003697            0.10060
     21       0.00000           0.016364            0.44528
     22       0.00000           0.019841            0.53991
     23       0.00000           0.025955            0.70628
     24       0.00000           0.030185            0.82137
     25       0.00000           0.054579            1.48518
     26       0.00000           0.071696            1.95095
     27       0.00000           0.114183            3.10707
     28       0.00000           0.181433            4.93704
     29       0.00000           0.197762            5.38138
     30       0.00000           0.234698            6.38647
     31       0.00000           0.239479            6.51657
     32       0.00000           0.250227            6.80902
     33       0.00000           0.284144            7.73194
     34       0.00000           0.304823            8.29465
     35       0.00000           0.333843            9.08433
     36       0.00000           0.375195           10.20957
     37       0.00000           0.375443           10.21631
     38       0.00000           0.447334           12.17257
     39       0.00000           0.498273           13.55869
     40       0.00000           0.545581           14.84602

  Highest occupied state (VBM) at     -8.49560055 eV
  | Occupation number:      2.00000000

  Lowest unoccupied state (CBM) at    -5.88033426 eV
  | Occupation number:      0.00000000

  Overall HOMO-LUMO gap:      2.61526629 eV.

  Total energy components:
  | Sum of eigenvalues            :         -95.19331884 Ha       -2590.34200088 eV
  | XC energy correction          :         -23.70176929 Ha        -644.95795735 eV
  | XC potential correction       :          30.44652926 Ha         828.49221433 eV
  | Free-atom electrostatic energy:         -68.11694689 Ha       -1853.55643273 eV
  | Hartree energy correction     :          -0.64056989 Ha         -17.43079368 eV
  | vdW energy correction         :           0.00000000 Ha           0.00000000 eV
  | Entropy correction            :           0.00000000 Ha           0.00000000 eV
  | ---------------------------
  | Total energy                  :        -157.20607565 Ha       -4277.79497031 eV
  | Total energy, T -> 0          :        -157.20607565 Ha       -4277.79497031 eV  <-- do not rely on this value for anything but (periodic) metals
  | Electronic free energy        :        -157.20607565 Ha       -4277.79497031 eV

  Derived energy quantities:
  | Kinetic energy                :         154.54637603 Ha        4205.42086117 eV
  | Electrostatic energy          :        -288.05068239 Ha       -7838.25787413 eV
  | Energy correction for multipole
  | error in Hartree potential    :           0.00221732 Ha           0.06033641 eV
  | Sum of eigenvalues per atom                           :        -215.86183341 eV
  | Total energy (T->0) per atom                          :        -356.48291419 eV  <-- do not rely on this value for anything but (periodic) metals
  | Electronic free energy per atom                       :        -356.48291419 eV

  Self-consistency convergence accuracy:
  | Change of charge density      :  0.4798E+00
  | Change of sum of eigenvalues  :  0.1824E+02 eV
  | Change of total energy        :  0.1292E+01 eV

  End self-consistency iteration #     1       :  max(cpu_time)    wall_clock(cpu1)
  | Time for this iteration                    :        0.528 s           0.529 s
  | Charge density update                      :        0.172 s           0.168 s
  | Density mixing                             :        0.004 s           0.001 s
  | Hartree multipole update                   :        0.012 s           0.010 s
  | Hartree multipole summation                :        0.172 s           0.171 s
  | Integration                                :        0.172 s           0.174 s
  | Solution of K.-S. eqns.                    :        0.004 s           0.002 s
  | Total energy evaluation                    :        0.000 s           0.001 s

  Partial memory accounting:
  | Current value for overall tracked memory usage on task 0  :           0.179 MB
  | Peak value for overall tracked memory usage on task 0     :           0.794 MB after allocating gradient_basis_wave
  | Largest tracked array allocation on task 0 so far         :           0.461 MB  when allocating gradient_basis_wave
  Note:  These values currently only include a subset of arrays which are explicitly tracked.
  The "true" memory usage will be greater.
------------------------------------------------------------

------------------------------------------------------------
          Begin self-consistency iteration #    2

  Date     :  20180215, Time     :  214401.421
------------------------------------------------------------
  Evaluating new KS density.
  Integration grid: deviation in total charge (<rho> - N_e) =   2.842171E-14
  Pulay mixing of updated and previous charge densities.

  Evaluating partitioned Hartree potential by multipole expansion.
  | Analytical far-field extrapolation by fixed multipoles:
  | Hartree multipole sum: apparent total charge =  -0.390097E-03
  Summing up the Hartree potential.
  Time summed over all CPUs for potential: real work        1.296 s, elapsed        1.333 s
  | RMS charge density error from multipole expansion :   0.122938E-01

  Integrating Hamiltonian matrix: batch-based integration.
  Time summed over all CPUs for integration: real work        1.290 s, elapsed        1.340 s

  Updating Kohn-Sham eigenvalues, eigenvectors, occupation numbers, and Fermi level.
  Solving generalized eigenproblem
  Updating Kohn-Sham eigenvalues and eigenfunctions.
  Solving real generalised eigenvalue problem by standard LAPACK (fast)

  Obtaining occupation numbers and chemical potential using ELSI.
  | Chemical potential (Fermi level):    -4.44170993eV
  Highest occupied state (VBM) at     -4.89534787 eV
  | Occupation number:      2.00000000

  Lowest unoccupied state (CBM) at    -2.30818570 eV
  | Occupation number:      0.00000000

  Overall HOMO-LUMO gap:      2.58716217 eV.

  Checking to see if s.c.f. parameters should be adjusted.
  The system likely has a gap. Increased the default Pulay mixing parameter (charge_mix_param). Value:   0.200000 .
  Kept the default occupation width. Value:   0.010000 eV.

  Total energy components:
  | Sum of eigenvalues            :         -89.67411099 Ha       -2440.15671387 eV
  | XC energy correction          :         -24.24172762 Ha        -659.65097128 eV
  | XC potential correction       :          31.14604488 Ha         847.52700279 eV
  | Free-atom electrostatic energy:         -68.11694689 Ha       -1853.55643273 eV
  | Hartree energy correction     :          -6.12603128 Ha        -166.69779255 eV
  | vdW energy correction         :           0.00000000 Ha           0.00000000 eV
  | Entropy correction            :           0.00000000 Ha           0.00000000 eV
  | ---------------------------
  | Total energy                  :        -157.01277190 Ha       -4272.53490764 eV
  | Total energy, T -> 0          :        -157.01277190 Ha       -4272.53490764 eV  <-- do not rely on this value for anything but (periodic) metals
  | Electronic free energy        :        -157.01277190 Ha       -4272.53490764 eV

  Derived energy quantities:
  | Kinetic energy                :         156.86971404 Ha        4268.64210517 eV
  | Electrostatic energy          :        -289.64075832 Ha       -7881.52604154 eV
  | Energy correction for multipole
  | error in Hartree potential    :           0.02074131 Ha           0.56439968 eV
  | Sum of eigenvalues per atom                           :        -203.34639282 eV
  | Total energy (T->0) per atom                          :        -356.04457564 eV  <-- do not rely on this value for anything but (periodic) metals
  | Electronic free energy per atom                       :        -356.04457564 eV

  Self-consistency convergence accuracy:
  | Change of charge density      :  0.4413E+00
  | Change of sum of eigenvalues  :  0.1502E+03 eV
  | Change of total energy        :  0.5260E+01 eV

  End self-consistency iteration #     2       :  max(cpu_time)    wall_clock(cpu1)
  | Time for this iteration                    :        0.532 s           0.530 s
  | Charge density update                      :        0.168 s           0.168 s
  | Density mixing                             :        0.004 s           0.002 s
  | Hartree multipole update                   :        0.012 s           0.011 s
  | Hartree multipole summation                :        0.176 s           0.172 s
  | Integration                                :        0.176 s           0.173 s
  | Solution of K.-S. eqns.                    :        0.004 s           0.003 s
  | Total energy evaluation                    :        0.000 s           0.001 s

  Partial memory accounting:
  | Current value for overall tracked memory usage on task 0  :           0.180 MB
  | Peak value for overall tracked memory usage on task 0     :           0.794 MB after allocating gradient_basis_wave
  | Largest tracked array allocation on task 0 so far         :           0.461 MB  when allocating gradient_basis_wave
  Note:  These values currently only include a subset of arrays which are explicitly tracked.
  The "true" memory usage will be greater.
------------------------------------------------------------

------------------------------------------------------------
          Begin self-consistency iteration #    3

  Date     :  20180215, Time     :  214401.952
------------------------------------------------------------
  Evaluating new KS density.
  Integration grid: deviation in total charge (<rho> - N_e) =   7.105427E-15
  Pulay mixing of updated and previous charge densities.

  Evaluating partitioned Hartree potential by multipole expansion.
  | Analytical far-field extrapolation by fixed multipoles:
  | Hartree multipole sum: apparent total charge =  -0.397194E-03
  Summing up the Hartree potential.
  Time summed over all CPUs for potential: real work        1.293 s, elapsed        1.308 s
  | RMS charge density error from multipole expansion :   0.155134E-01

  Integrating Hamiltonian matrix: batch-based integration.
  Time summed over all CPUs for integration: real work        1.297 s, elapsed        1.345 s

  Updating Kohn-Sham eigenvalues, eigenvectors, occupation numbers, and Fermi level.
  Solving generalized eigenproblem
  Updating Kohn-Sham eigenvalues and eigenfunctions.
  Solving real generalised eigenvalue problem by standard LAPACK (fast)

  Obtaining occupation numbers and chemical potential using ELSI.
  | Chemical potential (Fermi level):    -4.87833219eV
  Highest occupied state (VBM) at     -5.45193710 eV
  | Occupation number:      2.00000000

  Lowest unoccupied state (CBM) at    -2.87831203 eV
  | Occupation number:      0.00000000

  Overall HOMO-LUMO gap:      2.57362507 eV.

  Total energy components:
  | Sum of eigenvalues            :         -90.53443338 Ha       -2463.56727714 eV
  | XC energy correction          :         -24.20702513 Ha        -658.70666848 eV
  | XC potential correction       :          31.09754239 Ha         846.20718306 eV
  | Free-atom electrostatic energy:         -68.11694689 Ha       -1853.55643273 eV
  | Hartree energy correction     :          -5.24563160 Ha        -142.74089845 eV
  | vdW energy correction         :           0.00000000 Ha           0.00000000 eV
  | Entropy correction            :           0.00000000 Ha           0.00000000 eV
  | ---------------------------
  | Total energy                  :        -157.00649461 Ha       -4272.36409374 eV
  | Total energy, T -> 0          :        -157.00649461 Ha       -4272.36409374 eV  <-- do not rely on this value for anything but (periodic) metals
  | Electronic free energy        :        -157.00649461 Ha       -4272.36409374 eV

  Derived energy quantities:
  | Kinetic energy                :         156.24588335 Ha        4251.66680841 eV
  | Electrostatic energy          :        -289.04535283 Ha       -7865.32423367 eV
  | Energy correction for multipole
  | error in Hartree potential    :           0.02512612 Ha           0.68371643 eV
  | Sum of eigenvalues per atom                           :        -205.29727310 eV
  | Total energy (T->0) per atom                          :        -356.03034114 eV  <-- do not rely on this value for anything but (periodic) metals
  | Electronic free energy per atom                       :        -356.03034114 eV

  Self-consistency convergence accuracy:
  | Change of charge density      :  0.2094E+00
  | Change of sum of eigenvalues  : -0.2341E+02 eV
  | Change of total energy        :  0.1708E+00 eV

  End self-consistency iteration #     3       :  max(cpu_time)    wall_clock(cpu1)
  | Time for this iteration                    :        0.532 s           0.528 s
  | Charge density update                      :        0.168 s           0.167 s
  | Density mixing                             :        0.004 s           0.004 s
  | Hartree multipole update                   :        0.012 s           0.011 s
  | Hartree multipole summation                :        0.172 s           0.169 s
  | Integration                                :        0.176 s           0.174 s
  | Solution of K.-S. eqns.                    :        0.004 s           0.002 s
  | Total energy evaluation                    :        0.000 s           0.001 s

  Partial memory accounting:
  | Current value for overall tracked memory usage on task 0  :           0.180 MB
  | Peak value for overall tracked memory usage on task 0     :           0.794 MB after allocating gradient_basis_wave
  | Largest tracked array allocation on task 0 so far         :           0.461 MB  when allocating gradient_basis_wave
  Note:  These values currently only include a subset of arrays which are explicitly tracked.
  The "true" memory usage will be greater.
------------------------------------------------------------

------------------------------------------------------------
          Begin self-consistency iteration #    4

  Date     :  20180215, Time     :  214402.481
------------------------------------------------------------
  Evaluating new KS density.
  Integration grid: deviation in total charge (<rho> - N_e) =   0.000000E+00
  Pulay mixing of updated and previous charge densities.

  Evaluating partitioned Hartree potential by multipole expansion.
  | Analytical far-field extrapolation by fixed multipoles:
  | Hartree multipole sum: apparent total charge =  -0.477022E-03
  Summing up the Hartree potential.
  Time summed over all CPUs for potential: real work        1.289 s, elapsed        1.304 s
  | RMS charge density error from multipole expansion :   0.209024E-01

  Integrating Hamiltonian matrix: batch-based integration.
  Time summed over all CPUs for integration: real work        1.289 s, elapsed        1.342 s

  Updating Kohn-Sham eigenvalues, eigenvectors, occupation numbers, and Fermi level.
  Solving generalized eigenproblem
  Updating Kohn-Sham eigenvalues and eigenfunctions.
  Solving real generalised eigenvalue problem by standard LAPACK (fast)

  Obtaining occupation numbers and chemical potential using ELSI.
  | Chemical potential (Fermi level):    -4.21545890eV
  Highest occupied state (VBM) at     -4.82403143 eV
  | Occupation number:      2.00000000

  Lowest unoccupied state (CBM) at    -2.27397687 eV
  | Occupation number:      0.00000000

  Overall HOMO-LUMO gap:      2.55005456 eV.

  Total energy components:
  | Sum of eigenvalues            :         -89.65078284 Ha       -2439.52192267 eV
  | XC energy correction          :         -24.34098674 Ha        -662.35194917 eV
  | XC potential correction       :          31.26889546 Ha         850.86993724 eV
  | Free-atom electrostatic energy:         -68.11694689 Ha       -1853.55643273 eV
  | Hartree energy correction     :          -6.15666498 Ha        -167.53137811 eV
  | vdW energy correction         :           0.00000000 Ha           0.00000000 eV
  | Entropy correction            :           0.00000000 Ha           0.00000000 eV
  | ---------------------------
  | Total energy                  :        -156.99648599 Ha       -4272.09174544 eV
  | Total energy, T -> 0          :        -156.99648599 Ha       -4272.09174544 eV  <-- do not rely on this value for anything but (periodic) metals
  | Electronic free energy        :        -156.99648599 Ha       -4272.09174544 eV

  Derived energy quantities:
  | Kinetic energy                :         156.30707282 Ha        4253.33185869 eV
  | Electrostatic energy          :        -288.96257208 Ha       -7863.07165496 eV
  | Energy correction for multipole
  | error in Hartree potential    :           0.03220620 Ha           0.87637523 eV
  | Sum of eigenvalues per atom                           :        -203.29349356 eV
  | Total energy (T->0) per atom                          :        -356.00764545 eV  <-- do not rely on this value for anything but (periodic) metals
  | Electronic free energy per atom                       :        -356.00764545 eV

  Self-consistency convergence accuracy:
  | Change of charge density      :  0.1237E+00
  | Change of sum of eigenvalues  :  0.2405E+02 eV
  | Change of total energy        :  0.2723E+00 eV

  End self-consistency iteration #     4       :  max(cpu_time)    wall_clock(cpu1)
  | Time for this iteration                    :        0.532 s           0.529 s
  | Charge density update                      :        0.172 s           0.168 s
  | Density mixing                             :        0.008 s           0.006 s
  | Hartree multipole update                   :        0.012 s           0.010 s
  | Hartree multipole summation                :        0.172 s           0.168 s
  | Integration                                :        0.176 s           0.174 s
  | Solution of K.-S. eqns.                    :        0.004 s           0.002 s
  | Total energy evaluation                    :        0.000 s           0.001 s

  Partial memory accounting:
  | Current value for overall tracked memory usage on task 0  :           0.180 MB
  | Peak value for overall tracked memory usage on task 0     :           0.794 MB after allocating gradient_basis_wave
  | Largest tracked array allocation on task 0 so far         :           0.461 MB  when allocating gradient_basis_wave
  Note:  These values currently only include a subset of arrays which are explicitly tracked.
  The "true" memory usage will be greater.
------------------------------------------------------------

------------------------------------------------------------
          Begin self-consistency iteration #    5

  Date     :  20180215, Time     :  214403.011
------------------------------------------------------------
  Evaluating new KS density.
  Integration grid: deviation in total charge (<rho> - N_e) =  -1.065814E-14
  Pulay mixing of updated and previous charge densities.

  Evaluating partitioned Hartree potential by multipole expansion.
  | Analytical far-field extrapolation by fixed multipoles:
  | Hartree multipole sum: apparent total charge =  -0.502401E-03
  Summing up the Hartree potential.
  Time summed over all CPUs for potential: real work        1.291 s, elapsed        1.304 s
  | RMS charge density error from multipole expansion :   0.215697E-01

  Integrating Hamiltonian matrix: batch-based integration.
  Time summed over all CPUs for integration: real work        1.299 s, elapsed        1.343 s

  Updating Kohn-Sham eigenvalues, eigenvectors, occupation numbers, and Fermi level.
  Solving generalized eigenproblem
  Updating Kohn-Sham eigenvalues and eigenfunctions.
  Solving real generalised eigenvalue problem by standard LAPACK (fast)

  Obtaining occupation numbers and chemical potential using ELSI.
  | Chemical potential (Fermi level):    -4.01035710eV
  Highest occupied state (VBM) at     -4.58216926 eV
  | Occupation number:      2.00000000

  Lowest unoccupied state (CBM) at    -2.03384622 eV
  | Occupation number:      0.00000000

  Overall HOMO-LUMO gap:      2.54832304 eV.

  Total energy components:
  | Sum of eigenvalues            :         -89.40032572 Ha       -2432.70663758 eV
  | XC energy correction          :         -24.36271099 Ha        -662.94309625 eV
  | XC potential correction       :          31.29710641 Ha         851.63759636 eV
  | Free-atom electrostatic energy:         -68.11694689 Ha       -1853.55643273 eV
  | Hartree energy correction     :          -6.41244436 Ha        -174.49148916 eV
  | vdW energy correction         :           0.00000000 Ha           0.00000000 eV
  | Entropy correction            :           0.00000000 Ha           0.00000000 eV
  | ---------------------------
  | Total energy                  :        -156.99532155 Ha       -4272.06005935 eV
  | Total energy, T -> 0          :        -156.99532155 Ha       -4272.06005935 eV  <-- do not rely on this value for anything but (periodic) metals
  | Electronic free energy        :        -156.99532155 Ha       -4272.06005935 eV

  Derived energy quantities:
  | Kinetic energy                :         156.28069008 Ha        4252.61394777 eV
  | Electrostatic energy          :        -288.91330064 Ha       -7861.73091088 eV
  | Energy correction for multipole
  | error in Hartree potential    :           0.03183174 Ha           0.86618561 eV
  | Sum of eigenvalues per atom                           :        -202.72555313 eV
  | Total energy (T->0) per atom                          :        -356.00500495 eV  <-- do not rely on this value for anything but (periodic) metals
  | Electronic free energy per atom                       :        -356.00500495 eV

  Self-consistency convergence accuracy:
  | Change of charge density      :  0.3257E-01
  | Change of sum of eigenvalues  :  0.6815E+01 eV
  | Change of total energy        :  0.3169E-01 eV

  End self-consistency iteration #     5       :  max(cpu_time)    wall_clock(cpu1)
  | Time for this iteration                    :        0.532 s           0.531 s
  | Charge density update                      :        0.168 s           0.167 s
  | Density mixing                             :        0.008 s           0.008 s
  | Hartree multipole update                   :        0.012 s           0.010 s
  | Hartree multipole summation                :        0.172 s           0.169 s
  | Integration                                :        0.176 s           0.173 s
  | Solution of K.-S. eqns.                    :        0.004 s           0.002 s
  | Total energy evaluation                    :        0.000 s           0.000 s

  Partial memory accounting:
  | Current value for overall tracked memory usage on task 0  :           0.180 MB
  | Peak value for overall tracked memory usage on task 0     :           0.794 MB after allocating gradient_basis_wave
  | Largest tracked array allocation on task 0 so far         :           0.461 MB  when allocating gradient_basis_wave
  Note:  These values currently only include a subset of arrays which are explicitly tracked.
  The "true" memory usage will be greater.
------------------------------------------------------------

------------------------------------------------------------
          Begin self-consistency iteration #    6

  Date     :  20180215, Time     :  214403.543
------------------------------------------------------------
  Evaluating new KS density.
  Integration grid: deviation in total charge (<rho> - N_e) =  -7.105427E-15
  Pulay mixing of updated and previous charge densities.

  Evaluating partitioned Hartree potential by multipole expansion.
  | Analytical far-field extrapolation by fixed multipoles:
  | Hartree multipole sum: apparent total charge =  -0.520054E-03
  Summing up the Hartree potential.
  Time summed over all CPUs for potential: real work        1.291 s, elapsed        1.305 s
  | RMS charge density error from multipole expansion :   0.218752E-01

  Integrating Hamiltonian matrix: batch-based integration.
  Time summed over all CPUs for integration: real work        1.288 s, elapsed        1.341 s

  Updating Kohn-Sham eigenvalues, eigenvectors, occupation numbers, and Fermi level.
  Solving generalized eigenproblem
  Updating Kohn-Sham eigenvalues and eigenfunctions.
  Solving real generalised eigenvalue problem by standard LAPACK (fast)

  Obtaining occupation numbers and chemical potential using ELSI.
  | Chemical potential (Fermi level):    -3.93033922eV
  Highest occupied state (VBM) at     -4.49633571 eV
  | Occupation number:      2.00000000

  Lowest unoccupied state (CBM) at    -1.94976547 eV
  | Occupation number:      0.00000000

  Overall HOMO-LUMO gap:      2.54657024 eV.

  Total energy components:
  | Sum of eigenvalues            :         -89.30115180 Ha       -2430.00797792 eV
  | XC energy correction          :         -24.37278435 Ha        -663.21720631 eV
  | XC potential correction       :          31.31019912 Ha         851.99386699 eV
  | Free-atom electrostatic energy:         -68.11694689 Ha       -1853.55643273 eV
  | Hartree energy correction     :          -6.51439839 Ha        -177.26579925 eV
  | vdW energy correction         :           0.00000000 Ha           0.00000000 eV
  | Entropy correction            :           0.00000000 Ha           0.00000000 eV
  | ---------------------------
  | Total energy                  :        -156.99508231 Ha       -4272.05354922 eV
  | Total energy, T -> 0          :        -156.99508231 Ha       -4272.05354922 eV  <-- do not rely on this value for anything but (periodic) metals
  | Electronic free energy        :        -156.99508231 Ha       -4272.05354922 eV

  Derived energy quantities:
  | Kinetic energy                :         156.23153674 Ha        4251.27641736 eV
  | Electrostatic energy          :        -288.85383470 Ha       -7860.11276027 eV
  | Energy correction for multipole
  | error in Hartree potential    :           0.03102235 Ha           0.84416107 eV
  | Sum of eigenvalues per atom                           :        -202.50066483 eV
  | Total energy (T->0) per atom                          :        -356.00446244 eV  <-- do not rely on this value for anything but (periodic) metals
  | Electronic free energy per atom                       :        -356.00446244 eV

  Self-consistency convergence accuracy:
  | Change of charge density      :  0.1578E-01
  | Change of sum of eigenvalues  :  0.2699E+01 eV
  | Change of total energy        :  0.6510E-02 eV

  End self-consistency iteration #     6       :  max(cpu_time)    wall_clock(cpu1)
  | Time for this iteration                    :        0.532 s           0.531 s
  | Charge density update                      :        0.168 s           0.166 s
  | Density mixing                             :        0.012 s           0.009 s
  | Hartree multipole update                   :        0.012 s           0.010 s
  | Hartree multipole summation                :        0.172 s           0.169 s
  | Integration                                :        0.176 s           0.174 s
  | Solution of K.-S. eqns.                    :        0.004 s           0.002 s
  | Total energy evaluation                    :        0.004 s           0.001 s

  Partial memory accounting:
  | Current value for overall tracked memory usage on task 0  :           0.180 MB
  | Peak value for overall tracked memory usage on task 0     :           0.794 MB after allocating gradient_basis_wave
  | Largest tracked array allocation on task 0 so far         :           0.461 MB  when allocating gradient_basis_wave
  Note:  These values currently only include a subset of arrays which are explicitly tracked.
  The "true" memory usage will be greater.
------------------------------------------------------------

------------------------------------------------------------
          Begin self-consistency iteration #    7

  Date     :  20180215, Time     :  214404.075
------------------------------------------------------------
  Evaluating new KS density.
  Integration grid: deviation in total charge (<rho> - N_e) =   7.105427E-15
  Pulay mixing of updated and previous charge densities.

  Evaluating partitioned Hartree potential by multipole expansion.
  | Analytical far-field extrapolation by fixed multipoles:
  | Hartree multipole sum: apparent total charge =  -0.522956E-03
  Summing up the Hartree potential.
  Time summed over all CPUs for potential: real work        1.290 s, elapsed        1.313 s
  | RMS charge density error from multipole expansion :   0.218614E-01

  Integrating Hamiltonian matrix: batch-based integration.
  Time summed over all CPUs for integration: real work        1.323 s, elapsed        1.472 s

  Updating Kohn-Sham eigenvalues, eigenvectors, occupation numbers, and Fermi level.
  Solving generalized eigenproblem
  Updating Kohn-Sham eigenvalues and eigenfunctions.
  Solving real generalised eigenvalue problem by standard LAPACK (fast)

  Obtaining occupation numbers and chemical potential using ELSI.
  | Chemical potential (Fermi level):    -3.91041152eV
  Highest occupied state (VBM) at     -4.47150633 eV
  | Occupation number:      2.00000000

  Lowest unoccupied state (CBM) at    -1.92511430 eV
  | Occupation number:      0.00000000

  Overall HOMO-LUMO gap:      2.54639203 eV.

  Total energy components:
  | Sum of eigenvalues            :         -89.27575229 Ha       -2429.31682195 eV
  | XC energy correction          :         -24.37426894 Ha        -663.25760405 eV
  | XC potential correction       :          31.31218404 Ha         852.04787957 eV
  | Free-atom electrostatic energy:         -68.11694689 Ha       -1853.55643273 eV
  | Hartree energy correction     :          -6.54025979 Ha        -177.96952391 eV
  | vdW energy correction         :           0.00000000 Ha           0.00000000 eV
  | Entropy correction            :           0.00000000 Ha           0.00000000 eV
  | ---------------------------
  | Total energy                  :        -156.99504386 Ha       -4272.05250308 eV
  | Total energy, T -> 0          :        -156.99504386 Ha       -4272.05250308 eV  <-- do not rely on this value for anything but (periodic) metals
  | Electronic free energy        :        -156.99504386 Ha       -4272.05250308 eV

  Derived energy quantities:
  | Kinetic energy                :         156.22967513 Ha        4251.22576036 eV
  | Electrostatic energy          :        -288.85045005 Ha       -7860.02065938 eV
  | Energy correction for multipole
  | error in Hartree potential    :           0.03078123 Ha           0.83759983 eV
  | Sum of eigenvalues per atom                           :        -202.44306850 eV
  | Total energy (T->0) per atom                          :        -356.00437526 eV  <-- do not rely on this value for anything but (periodic) metals
  | Electronic free energy per atom                       :        -356.00437526 eV

  Self-consistency convergence accuracy:
  | Change of charge density      :  0.6581E-02
  | Change of sum of eigenvalues  :  0.6912E+00 eV
  | Change of total energy        :  0.1046E-02 eV

  End self-consistency iteration #     7       :  max(cpu_time)    wall_clock(cpu1)
  | Time for this iteration                    :        0.556 s           0.554 s
  | Charge density update                      :        0.172 s           0.169 s
  | Density mixing                             :        0.012 s           0.011 s
  | Hartree multipole update                   :        0.012 s           0.010 s
  | Hartree multipole summation                :        0.172 s           0.170 s
  | Integration                                :        0.192 s           0.191 s
  | Solution of K.-S. eqns.                    :        0.004 s           0.002 s
  | Total energy evaluation                    :        0.000 s           0.001 s

  Partial memory accounting:
  | Current value for overall tracked memory usage on task 0  :           0.180 MB
  | Peak value for overall tracked memory usage on task 0     :           0.794 MB after allocating gradient_basis_wave
  | Largest tracked array allocation on task 0 so far         :           0.461 MB  when allocating gradient_basis_wave
  Note:  These values currently only include a subset of arrays which are explicitly tracked.
  The "true" memory usage will be greater.
------------------------------------------------------------

------------------------------------------------------------
          Begin self-consistency iteration #    8

  Date     :  20180215, Time     :  214404.630
------------------------------------------------------------
  Evaluating new KS density.
  Integration grid: deviation in total charge (<rho> - N_e) =  -7.105427E-15
  Pulay mixing of updated and previous charge densities.

  Evaluating partitioned Hartree potential by multipole expansion.
  | Analytical far-field extrapolation by fixed multipoles:
  | Hartree multipole sum: apparent total charge =  -0.530120E-03
  Summing up the Hartree potential.
  Time summed over all CPUs for potential: real work        1.287 s, elapsed        1.300 s
  | RMS charge density error from multipole expansion :   0.219124E-01

  Integrating Hamiltonian matrix: batch-based integration.
  Time summed over all CPUs for integration: real work        1.284 s, elapsed        1.337 s

  Updating Kohn-Sham eigenvalues, eigenvectors, occupation numbers, and Fermi level.
  Solving generalized eigenproblem
  Updating Kohn-Sham eigenvalues and eigenfunctions.
  Solving real generalised eigenvalue problem by standard LAPACK (fast)

  Obtaining occupation numbers and chemical potential using ELSI.
  | Chemical potential (Fermi level):    -3.86198634eV
  Highest occupied state (VBM) at     -4.41446597 eV
  | Occupation number:      2.00000000

  Lowest unoccupied state (CBM) at    -1.86953880 eV
  | Occupation number:      0.00000000

  Overall HOMO-LUMO gap:      2.54492717 eV.

  Total energy components:
  | Sum of eigenvalues            :         -89.21559890 Ha       -2427.67996510 eV
  | XC energy correction          :         -24.37988251 Ha        -663.41035717 eV
  | XC potential correction       :          31.31953483 Ha         852.24790470 eV
  | Free-atom electrostatic energy:         -68.11694689 Ha       -1853.55643273 eV
  | Hartree energy correction     :          -6.60210873 Ha        -179.65251903 eV
  | vdW energy correction         :           0.00000000 Ha           0.00000000 eV
  | Entropy correction            :           0.00000000 Ha           0.00000000 eV
  | ---------------------------
  | Total energy                  :        -156.99500220 Ha       -4272.05136933 eV
  | Total energy, T -> 0          :        -156.99500220 Ha       -4272.05136933 eV  <-- do not rely on this value for anything but (periodic) metals
  | Electronic free energy        :        -156.99500220 Ha       -4272.05136933 eV

  Derived energy quantities:
  | Kinetic energy                :         156.22846926 Ha        4251.19294683 eV
  | Electrostatic energy          :        -288.84358894 Ha       -7859.83395899 eV
  | Energy correction for multipole
  | error in Hartree potential    :           0.03040596 Ha           0.82738813 eV
  | Sum of eigenvalues per atom                           :        -202.30666376 eV
  | Total energy (T->0) per atom                          :        -356.00428078 eV  <-- do not rely on this value for anything but (periodic) metals
  | Electronic free energy per atom                       :        -356.00428078 eV

  Self-consistency convergence accuracy:
  | Change of charge density      :  0.5115E-02
  | Change of sum of eigenvalues  :  0.1637E+01 eV
  | Change of total energy        :  0.1134E-02 eV

  End self-consistency iteration #     8       :  max(cpu_time)    wall_clock(cpu1)
  | Time for this iteration                    :        0.536 s           0.534 s
  | Charge density update                      :        0.168 s           0.167 s
  | Density mixing                             :        0.012 s           0.012 s
  | Hartree multipole update                   :        0.012 s           0.010 s
  | Hartree multipole summation                :        0.168 s           0.169 s
  | Integration                                :        0.172 s           0.173 s
  | Solution of K.-S. eqns.                    :        0.004 s           0.002 s
  | Total energy evaluation                    :        0.000 s           0.001 s

  Partial memory accounting:
  | Current value for overall tracked memory usage on task 0  :           0.180 MB
  | Peak value for overall tracked memory usage on task 0     :           0.794 MB after allocating gradient_basis_wave
  | Largest tracked array allocation on task 0 so far         :           0.461 MB  when allocating gradient_basis_wave
  Note:  These values currently only include a subset of arrays which are explicitly tracked.
  The "true" memory usage will be greater.
------------------------------------------------------------

------------------------------------------------------------
          Begin self-consistency iteration #    9

  Date     :  20180215, Time     :  214405.165
------------------------------------------------------------
  Evaluating new KS density.
  Integration grid: deviation in total charge (<rho> - N_e) =   7.105427E-15
  Pulay mixing of updated and previous charge densities.

  Evaluating partitioned Hartree potential by multipole expansion.
  | Analytical far-field extrapolation by fixed multipoles:
  | Hartree multipole sum: apparent total charge =  -0.532218E-03
  Summing up the Hartree potential.
  Time summed over all CPUs for potential: real work        1.298 s, elapsed        1.323 s
  | RMS charge density error from multipole expansion :   0.219277E-01

  Integrating Hamiltonian matrix: batch-based integration.
  Time summed over all CPUs for integration: real work        1.288 s, elapsed        1.347 s

  Updating Kohn-Sham eigenvalues, eigenvectors, occupation numbers, and Fermi level.
  Solving generalized eigenproblem
  Updating Kohn-Sham eigenvalues and eigenfunctions.
  Solving real generalised eigenvalue problem by standard LAPACK (fast)

  Obtaining occupation numbers and chemical potential using ELSI.
  | Chemical potential (Fermi level):    -3.84684927eV
  Highest occupied state (VBM) at     -4.39767820 eV
  | Occupation number:      2.00000000

  Lowest unoccupied state (CBM) at    -1.85308599 eV
  | Occupation number:      0.00000000

  Overall HOMO-LUMO gap:      2.54459221 eV.

  Total energy components:
  | Sum of eigenvalues            :         -89.19630503 Ha       -2427.15495224 eV
  | XC energy correction          :         -24.38188249 Ha        -663.46477935 eV
  | XC potential correction       :          31.32214457 Ha         852.31891922 eV
  | Free-atom electrostatic energy:         -68.11694689 Ha       -1853.55643273 eV
  | Hartree energy correction     :          -6.62201006 Ha        -180.19406199 eV
  | vdW energy correction         :           0.00000000 Ha           0.00000000 eV
  | Entropy correction            :           0.00000000 Ha           0.00000000 eV
  | ---------------------------
  | Total energy                  :        -156.99499991 Ha       -4272.05130709 eV
  | Total energy, T -> 0          :        -156.99499991 Ha       -4272.05130709 eV  <-- do not rely on this value for anything but (periodic) metals
  | Electronic free energy        :        -156.99499991 Ha       -4272.05130709 eV

  Derived energy quantities:
  | Kinetic energy                :         156.23065499 Ha        4251.25242353 eV
  | Electrostatic energy          :        -288.84377240 Ha       -7859.83895127 eV
  | Energy correction for multipole
  | error in Hartree potential    :           0.03031412 Ha           0.82488908 eV
  | Sum of eigenvalues per atom                           :        -202.26291269 eV
  | Total energy (T->0) per atom                          :        -356.00427559 eV  <-- do not rely on this value for anything but (periodic) metals
  | Electronic free energy per atom                       :        -356.00427559 eV

  Self-consistency convergence accuracy:
  | Change of charge density      :  0.1305E-02
  | Change of sum of eigenvalues  :  0.5250E+00 eV
  | Change of total energy        :  0.6224E-04 eV

  End self-consistency iteration #     9       :  max(cpu_time)    wall_clock(cpu1)
  | Time for this iteration                    :        0.544 s           0.542 s
  | Charge density update                      :        0.172 s           0.170 s
  | Density mixing                             :        0.012 s           0.013 s
  | Hartree multipole update                   :        0.012 s           0.010 s
  | Hartree multipole summation                :        0.172 s           0.172 s
  | Integration                                :        0.176 s           0.174 s
  | Solution of K.-S. eqns.                    :        0.004 s           0.002 s
  | Total energy evaluation                    :        0.000 s           0.001 s

  Partial memory accounting:
  | Current value for overall tracked memory usage on task 0  :           0.180 MB
  | Peak value for overall tracked memory usage on task 0     :           0.794 MB after allocating gradient_basis_wave
  | Largest tracked array allocation on task 0 so far         :           0.461 MB  when allocating gradient_basis_wave
  Note:  These values currently only include a subset of arrays which are explicitly tracked.
  The "true" memory usage will be greater.
------------------------------------------------------------

------------------------------------------------------------
          Begin self-consistency iteration #   10

  Date     :  20180215, Time     :  214405.708
------------------------------------------------------------
  Evaluating new KS density.
  Integration grid: deviation in total charge (<rho> - N_e) =   1.421085E-14
  Pulay mixing of updated and previous charge densities.

  Evaluating partitioned Hartree potential by multipole expansion.
  | Analytical far-field extrapolation by fixed multipoles:
  | Hartree multipole sum: apparent total charge =  -0.532184E-03
  Summing up the Hartree potential.
  Time summed over all CPUs for potential: real work        1.301 s, elapsed        1.385 s
  | RMS charge density error from multipole expansion :   0.219283E-01

  Integrating Hamiltonian matrix: batch-based integration.
  Time summed over all CPUs for integration: real work        1.299 s, elapsed        1.390 s

[...]
  |   Hirshfeld dipole moment :      0.08897895
  |   Hirshfeld second moments:      0.10500696      -0.00635357      -0.00235741
  |                                 -0.00635357       0.08996016       0.00712961
  |                                 -0.00235741       0.00712961       0.10244288
  ----------------------------------------------------------------------
  | Atom     8: H
  |   Hirshfeld charge        :      0.03217779
  |   Free atom volume        :      9.95071624
  |   Hirshfeld volume        :      6.44168586
  |   Hirshfeld dipole vector :     -0.05068545       0.03481576       0.06344619
  |   Hirshfeld dipole moment :      0.08835480
  |   Hirshfeld second moments:      0.09762458      -0.00225393       0.00989984
  |                                 -0.00225393       0.09588426      -0.00111594
  |                                  0.00989984      -0.00111594       0.08952770
  ----------------------------------------------------------------------
  | Atom     9: H
  |   Hirshfeld charge        :      0.03217779
  |   Free atom volume        :      9.95071624
  |   Hirshfeld volume        :      6.44168582
  |   Hirshfeld dipole vector :      0.05068544      -0.03481576       0.06344619
  |   Hirshfeld dipole moment :      0.08835480
  |   Hirshfeld second moments:      0.09762459      -0.00225393      -0.00989984
  |                                 -0.00225393       0.09588427       0.00111594
  |                                 -0.00989984       0.00111594       0.08952770
  ----------------------------------------------------------------------
  | Atom    10: H
  |   Hirshfeld charge        :      0.04080423
  |   Free atom volume        :      9.95071624
  |   Hirshfeld volume        :      6.31550902
  |   Hirshfeld dipole vector :     -0.04091522       0.02560992      -0.07378426
  |   Hirshfeld dipole moment :      0.08817052
  |   Hirshfeld second moments:      0.09673791       0.00043037      -0.00536812
  |                                  0.00043037       0.10633208       0.00456981
  |                                 -0.00536812       0.00456981       0.08989058
  ----------------------------------------------------------------------
  | Atom    11: H
  |   Hirshfeld charge        :      0.04817564
  |   Free atom volume        :      9.95071624
  |   Hirshfeld volume        :      6.25254295
  |   Hirshfeld dipole vector :      0.01478205       0.07833893       0.03951906
  |   Hirshfeld dipole moment :      0.08897895
  |   Hirshfeld second moments:      0.10500695      -0.00635358       0.00235741
  |                                 -0.00635358       0.08996017      -0.00712962
  |                                  0.00235741      -0.00712962       0.10244288
  ----------------------------------------------------------------------
  | Atom    12: H
  |   Hirshfeld charge        :      0.03791203
  |   Free atom volume        :      9.95071624
  |   Hirshfeld volume        :      6.12913652
  |   Hirshfeld dipole vector :      0.08181106      -0.02424109      -0.01574299
  |   Hirshfeld dipole moment :      0.08676706
  |   Hirshfeld second moments:      0.08870121       0.00532617       0.00695907
  |                                  0.00532617       0.10615533      -0.00256347
  |                                  0.00695907      -0.00256347       0.10805089
  ----------------------------------------------------------------------


  Total energy components:
  | Sum of eigenvalues            :         -89.19527419 Ha       -2427.12690147 eV
  | XC energy correction          :         -24.38208946 Ha        -663.47041122 eV
  | XC potential correction       :          31.32241026 Ha         852.32614915 eV
  | Free-atom electrostatic energy:         -68.11694689 Ha       -1853.55643273 eV
  | Hartree energy correction     :          -6.62310028 Ha        -180.22372833 eV
  | vdW energy correction         :          -0.00241751 Ha          -0.06578366 eV
  | Entropy correction            :           0.00000000 Ha           0.00000000 eV
  | ---------------------------
  | Total energy                  :        -156.99741806 Ha       -4272.11710826 eV
  | Total energy, T -> 0          :        -156.99741806 Ha       -4272.11710826 eV  <-- do not rely on this value for anything but (periodic) metals
  | Electronic free energy        :        -156.99741806 Ha       -4272.11710826 eV

  Derived energy quantities:
  | Kinetic energy                :         156.23144383 Ha        4251.27388896 eV
  | Electrostatic energy          :        -288.84435492 Ha       -7859.85480234 eV
  | Energy correction for multipole
  | error in Hartree potential    :           0.03031912 Ha           0.82502531 eV
  | Sum of eigenvalues per atom                           :        -202.26057512 eV
  | Total energy (T->0) per atom                          :        -356.00975902 eV  <-- do not rely on this value for anything but (periodic) metals
  | Electronic free energy per atom                       :        -356.00975902 eV

  atomic forces [eV/Ang]:
  -----------------------
  atom #    1
   Hellmann-Feynman              : -0.328565E-01  0.818170E-01 -0.214753E+00
   Ionic forces                  :  0.000000E+00  0.000000E+00  0.000000E+00
   Multipole                     : -0.298421E+00 -0.241314E+00 -0.287255E+00
   Pulay + GGA                   :  0.298676E+00  0.383019E+00  0.282250E+00
   Van der Waals                 :  0.811555E-02  0.449296E-02 -0.336711E-03
   ----------------------------------------------------------------
   Total forces(   1)            : -0.244864E-01  0.228014E+00 -0.220095E+00
  atom #    2
   Hellmann-Feynman              :  0.133390E+01  0.338485E+00  0.184930E+00
   Ionic forces                  :  0.000000E+00  0.000000E+00  0.000000E+00
   Multipole                     : -0.602235E-01 -0.699545E-01  0.290354E+00
   Pulay + GGA                   : -0.119644E+01 -0.413094E+00 -0.397193E+00
   Van der Waals                 : -0.340265E-02 -0.389443E-02  0.567008E-02
   ----------------------------------------------------------------
   Total forces(   2)            :  0.738281E-01 -0.148458E+00  0.837618E-01
  atom #    3
   Hellmann-Feynman              : -0.133390E+01 -0.338485E+00  0.184930E+00
   Ionic forces                  :  0.000000E+00  0.000000E+00  0.000000E+00
   Multipole                     :  0.602235E-01  0.699546E-01  0.290354E+00
   Pulay + GGA                   :  0.119644E+01  0.413094E+00 -0.397193E+00
   Van der Waals                 :  0.340266E-02  0.389443E-02  0.567008E-02
   ----------------------------------------------------------------
   Total forces(   3)            : -0.738280E-01  0.148458E+00  0.837618E-01
  atom #    4
   Hellmann-Feynman              :  0.328565E-01 -0.818170E-01 -0.214753E+00
   Ionic forces                  :  0.000000E+00  0.000000E+00  0.000000E+00
   Multipole                     :  0.298421E+00  0.241314E+00 -0.287255E+00
   Pulay + GGA                   : -0.298676E+00 -0.383019E+00  0.282250E+00
   Van der Waals                 : -0.811555E-02 -0.449296E-02 -0.336710E-03
   ----------------------------------------------------------------
   Total forces(   4)            :  0.244864E-01 -0.228014E+00 -0.220095E+00
  atom #    5
   Hellmann-Feynman              : -0.197104E-01  0.218779E+00 -0.198261E+00
   Ionic forces                  :  0.000000E+00  0.000000E+00  0.000000E+00
   Multipole                     :  0.231125E-01 -0.606865E-01 -0.119819E+00
   Pulay + GGA                   : -0.435458E-01  0.294481E-01  0.981248E-01
   Van der Waals                 :  0.229194E-02  0.353374E-02 -0.107392E-02
   ----------------------------------------------------------------
   Total forces(   5)            : -0.378518E-01  0.191075E+00 -0.221030E+00
  atom #    6
   Hellmann-Feynman              : -0.442444E-01  0.213410E+00 -0.145782E+00
   Ionic forces                  :  0.000000E+00  0.000000E+00  0.000000E+00
   Multipole                     : -0.121534E+00  0.576424E-02 -0.606010E-01
   Pulay + GGA                   :  0.997254E-01 -0.256098E-01  0.210037E-01
   Van der Waals                 :  0.241722E-02  0.223978E-03 -0.303510E-02
   ----------------------------------------------------------------
   Total forces(   6)            : -0.636362E-01  0.193789E+00 -0.188414E+00
  atom #    7
   Hellmann-Feynman              : -0.697109E-02  0.298503E+00 -0.169341E+00
   Ionic forces                  :  0.000000E+00  0.000000E+00  0.000000E+00
   Multipole                     : -0.144012E-01 -0.792847E-01  0.199765E-01
   Pulay + GGA                   :  0.324940E-01  0.771280E-01 -0.307578E-01
   Van der Waals                 : -0.357660E-03 -0.477823E-02 -0.261790E-02
   ----------------------------------------------------------------
   Total forces(   7)            :  0.107641E-01  0.291568E+00 -0.182740E+00
  atom #    8
   Hellmann-Feynman              :  0.234267E+00 -0.130020E+01  0.700910E+00
   Ionic forces                  :  0.000000E+00  0.000000E+00  0.000000E+00
   Multipole                     : -0.539302E-01  0.982721E-01  0.115839E+00
   Pulay + GGA                   :  0.700183E-01  0.207987E-02 -0.913673E-01
   Van der Waals                 :  0.354894E-02  0.788390E-02  0.139355E-02
   ----------------------------------------------------------------
   Total forces(   8)            :  0.253904E+00 -0.119196E+01  0.726775E+00
  atom #    9
   Hellmann-Feynman              : -0.234267E+00  0.130020E+01  0.700910E+00
   Ionic forces                  :  0.000000E+00  0.000000E+00  0.000000E+00
   Multipole                     :  0.539302E-01 -0.982720E-01  0.115839E+00
   Pulay + GGA                   : -0.700183E-01 -0.207988E-02 -0.913673E-01
   Van der Waals                 : -0.354895E-02 -0.788389E-02  0.139355E-02
   ----------------------------------------------------------------
   Total forces(   9)            : -0.253904E+00  0.119196E+01  0.726775E+00
  atom #   10
   Hellmann-Feynman              :  0.197104E-01 -0.218780E+00 -0.198261E+00
   Ionic forces                  :  0.000000E+00  0.000000E+00  0.000000E+00
   Multipole                     : -0.231125E-01  0.606866E-01 -0.119819E+00
   Pulay + GGA                   :  0.435458E-01 -0.294482E-01  0.981248E-01
   Van der Waals                 : -0.229194E-02 -0.353374E-02 -0.107392E-02
   ----------------------------------------------------------------
   Total forces(  10)            :  0.378518E-01 -0.191075E+00 -0.221030E+00
  atom #   11
   Hellmann-Feynman              :  0.697091E-02 -0.298503E+00 -0.169341E+00
   Ionic forces                  :  0.000000E+00  0.000000E+00  0.000000E+00
   Multipole                     :  0.144012E-01  0.792847E-01  0.199765E-01
   Pulay + GGA                   : -0.324941E-01 -0.771279E-01 -0.307578E-01
   Van der Waals                 :  0.357656E-03  0.477823E-02 -0.261790E-02
   ----------------------------------------------------------------
   Total forces(  11)            : -0.107643E-01 -0.291568E+00 -0.182740E+00
  atom #   12
   Hellmann-Feynman              :  0.442444E-01 -0.213410E+00 -0.145782E+00
   Ionic forces                  :  0.000000E+00  0.000000E+00  0.000000E+00
   Multipole                     :  0.121534E+00 -0.576429E-02 -0.606010E-01
   Pulay + GGA                   : -0.997254E-01  0.256098E-01  0.210037E-01
   Van der Waals                 : -0.241722E-02 -0.223980E-03 -0.303510E-02
   ----------------------------------------------------------------
   Total forces(  12)            :  0.636362E-01 -0.193789E+00 -0.188414E+00

  Timings for VdW correction (Tkatchenko-Scheffler 2009 or later):
  | CPU time:        0.040 s, Wall clock time:        0.042 s.
  Removing unitary transformations (pure translations, rotations) from forces on atoms.
  Atomic forces before filtering:
  | Net force on center of mass :  -0.823826E-09  0.344432E-08 -0.348269E-02 eV/A
  | Net torque on center of mass:  -0.579632E-09  0.926124E-09 -0.100342E-01 eV
  Atomic forces after filtering:
  | Net force on center of mass :   0.223008E-16  0.312211E-15 -0.669023E-16 eV/A
  | Net torque on center of mass:  -0.590053E-15 -0.472042E-15  0.149283E-14 eV

  Energy and forces in a compact form:
  | Total energy uncorrected      :         -0.427211710825965E+04 eV
  | Total energy corrected        :         -0.427211710825965E+04 eV  <-- do not rely on this value for anything but (periodic) metals
  | Electronic free energy        :         -0.427211710825965E+04 eV
  Total atomic forces (unitary forces cleaned) [eV/Ang]:
  |   1         -0.242548555588677E-01          0.227647048375157E+00         -0.219804555237475E+00
  |   2          0.738532384658966E-01         -0.148627109948948E+00          0.840520069703440E-01
  |   3         -0.738531114953653E-01          0.148627127688608E+00          0.840520145749306E-01
  |   4          0.242548597892734E-01         -0.227647069218157E+00         -0.219804480106074E+00
  |   5         -0.375531038039888E-01          0.190846243931425E+00         -0.220739356775574E+00
  |   6         -0.634902184548048E-01          0.193168532815344E+00         -0.188123790190153E+00
  |   7          0.112360730840640E-01          0.291166210953346E+00         -0.182449913512027E+00
  |   8          0.253851136365155E+00         -0.119227132784692E+01          0.727065586624373E+00
  |   9         -0.253851125394531E+00          0.119227138914430E+01          0.727065437284224E+00
  |  10          0.375531164458013E-01         -0.190846355422078E+00         -0.220739300173758E+00
  |  11         -0.112362512415442E-01         -0.291166166852349E+00         -0.182449918639830E+00
  |  12          0.634902417989121E-01         -0.193168523619730E+00         -0.188123730818983E+00

  ------------------------------------ 
  Start decomposition of the XC Energy 
  ------------------------------------ 
  X and C from original XC functional choice 
  Hartree-Fock Energy :          0.000000000 Ha              0.000000000 eV
  X Energy            :        -23.367588677 Ha           -635.864440316 eV
  C Energy            :         -1.014500784 Ha            -27.605970908 eV
  Total XC Energy     :        -24.382089461 Ha           -663.470411224 eV
  ------------------------------------ 
  LDA X and C from self-consistent density 
  X Energy LDA        :        -21.120318727 Ha           -574.713113632 eV
  C Energy LDA        :         -1.972700301 Ha            -53.679906388 eV
  ------------------------------------ 
  End decomposition of the XC Energy 
  ------------------------------------ 

------------------------------------------------------------

------------------------------------------------------------------------------
  Final output of selected total energy values:

  The following output summarizes some interesting total energy values
  at the end of a run (AFTER all relaxation, molecular dynamics, etc.).

  | Total energy of the DFT / Hartree-Fock s.c.f. calculation      :          -4272.117108260 eV
  | Final zero-broadening corrected energy (caution - metals only) :          -4272.117108260 eV
  | For reference only, the value of 1 Hartree used in FHI-aims is :             27.211384500 eV

  Before relying on these values, please be sure to understand exactly which
  total energy value is referred to by a given number. Different objects may
  all carry the same name 'total energy'. Definitions:

  Total energy of the DFT / Hartree-Fock s.c.f. calculation:
  | Note that this energy does not include ANY quantities calculated after the
  | s.c.f. cycle, in particular not ANY RPA, MP2, etc. many-body perturbation terms.

  Final zero-broadening corrected energy:
  | For metallic systems only, a broadening of the occupation numbers at the Fermi
  | level can be extrapolated back to zero broadening by an electron-gas inspired
  | formula. For all systems that are not real metals, this value can be
  | meaningless and should be avoided.

------------------------------------------------------------------------------
  Methods described in the following list of references were used in this FHI-aims run.
  If you publish the results, please make sure to cite these reference if they apply.
  FHI-aims is an academic code, and for our developers (often, Ph.D. students
  and postdocs), scientific credit in the community is essential.
  Thank you for helping us!

  For any use of FHI-aims, please cite:

    Volker Blum, Ralf Gehrke, Felix Hanke, Paula Havu, Ville Havu,
    Xinguo Ren, Karsten Reuter, and Matthias Scheffler
    'Ab initio molecular simulations with numeric atom-centered orbitals'
    Computer Physics Communications 180, 2175-2196 (2009)
    http://dx.doi.org/10.1016/j.cpc.2009.06.022


  For the real-space grid partitioning and parallelization used in this calculation, please cite:

    Ville Havu, Volker Blum, Paula Havu, and Matthias Scheffler,
    'Efficient O(N) integration for all-electron electronic structure calculation'
    'using numerically tabulated basis functions'
    Journal of Computational Physics 228, 8367-8379 (2009).
    http://dx.doi.org/10.1016/j.jcp.2009.08.008

  Of course, there are many other important community references, e.g., those cited in the
  above references. Our list is limited to references that describe implementations in the
  FHI-aims code. The reason is purely practical (length of this list) - please credit others as well.

------------------------------------------------------------
          Leaving FHI-aims.
          Date     :  20180215, Time     :  214410.048

          Computational steps:
          | Number of self-consistency cycles          :           15
          | Number of SCF (re)initializations          :            1

          Detailed time accounting                     :  max(cpu_time)    wall_clock(cpu1)
          | Total time                                 :        9.696 s           9.730 s
          | Preparation time                           :        0.128 s           0.131 s
          | Boundary condition initalization           :        0.000 s           0.001 s
          | Grid partitioning                          :        0.072 s           0.071 s
          | Preloading free-atom quantities on grid    :        0.004 s           0.002 s
          | Free-atom superposition energy             :        0.024 s           0.023 s
          | Total time for integrations                :        2.996 s           2.976 s
          | Total time for solution of K.-S. equations :        0.072 s           0.042 s
          | Total time for density & force components  :        2.956 s           2.927 s
          | Total time for mixing                      :        0.172 s           0.148 s
          | Total time for Hartree multipole update    :        0.188 s           0.162 s
          | Total time for Hartree multipole sum       :        3.088 s           3.063 s
          | Total time for total energy evaluation     :        0.004 s           0.016 s
          | Total time for vdW correction              :        0.040 s           0.042 s

          Partial memory accounting:
          | Residual value for overall tracked memory usage across tasks :           0.000 MB (should be 0.000 MB)
          | Peak values for overall tracked memory usage (after allocating hessian_basis_wave):
          |   Minimum:        1.870 MB (on task 1)
          |   Maximum:        1.870 MB (on task 1)
          |   Average:        1.870 MB
          | Largest tracked array allocation (hessian_basis_wave):
          |   Minimum:        0.922 MB (on task 1)
          |   Maximum:        0.922 MB (on task 1)
          |   Average:        0.922 MB
          Note:  These values currently only include a subset of arrays which are explicitly tracked.
          The "true" memory usage will be greater.

          Have a nice day.
------------------------------------------------------------
