  MPI-parallelism will be employed.
------------------------------------------------------------
          Invoking FHI-aims ...

          When using FHI-aims, please cite the following reference:

          Volker Blum, Ralf Gehrke, Felix Hanke, Paula Havu,
          Ville Havu, Xinguo Ren, Karsten Reuter, and Matthias Scheffler,
          'Ab Initio Molecular Simulations with Numeric Atom-Centered Orbitals',
          Computer Physics Communications 180, 2175-2196 (2009)

          For any questions about FHI-aims, please visit the aimsclub website
          with its forums and wiki. Contributions to both the forums and the
          wiki are warmly encouraged - they are for you, and everyone is welcome there.

------------------------------------------------------------



  Date     :  20190817, Time     :  153806.767
  Time zero on CPU 1             :   0.326100000000000E-01  s.
  Internal wall clock time zero  :           335288286.767  s.

  FHI-aims created a unique identifier for this run for later identification
  aims_uuid : 264EB475-1FEA-4ADC-A6A9-C84950350FF1

  Build configuration of the current instance of FHI-aims
  -------------------------------------------------------
  FHI-aims version      : 190813
  Commit number         : 3da7baeb3
  CMake host system     : Linux-4.4.180-94.97-default
  CMake version         : 3.5.2
  Fortran compiler      : /mpcdf/soft/SLE_12_SP3/packages/x86_64/intel_parallel_studio/2018.4/compilers_and_libraries_2018.5.274/linux/mpi/bin64/mpiifort (Intel) version 18.0.5.20180823
  Fortran compiler flags: -O3 -ip -fp-model precise
  C compiler            : /mpcdf/soft/SLE_12_SP3/packages/skylake/intel/18.0.5/bin/icc (Intel) version 18.0.5.20180823
  C compiler flags      : -O3 -ip -fp-model precise
  Architecture          :
  Using MPI
  Using Scalapack
  Using C files
  Using SPGlib
  Using i-PI
  Linking against: /mpcdf/soft/SLE_12_SP3/packages/x86_64/anaconda/3.5.1.0/lib/libmkl_intel_lp64.so
                   /mpcdf/soft/SLE_12_SP3/packages/x86_64/anaconda/3.5.1.0/lib/libmkl_sequential.so
                   /mpcdf/soft/SLE_12_SP3/packages/x86_64/anaconda/3.5.1.0/lib/libmkl_core.so
                   /mpcdf/soft/SLE_12_SP3/packages/x86_64/anaconda/3.5.1.0/lib/libmkl_blacs_intelmpi_lp64.so
                   /mpcdf/soft/SLE_12_SP3/packages/x86_64/anaconda/3.5.1.0/lib/libmkl_scalapack_lp64.so

  Using        8 parallel tasks.
  Task        0 on host co1631 reporting.
  Task        1 on host co1631 reporting.
  Task        2 on host co1631 reporting.
  Task        3 on host co1631 reporting.
  Task        4 on host co1631 reporting.
  Task        5 on host co1631 reporting.
  Task        6 on host co1631 reporting.
  Task        7 on host co1631 reporting.

  Performing system and environment tests:
  | Environment variable OMP_NUM_THREADS correctly set to 1.
  | Maximum stacksize for task 0: unlimited
  | Maximum stacksize for task 1: unlimited
  | Maximum stacksize for task 2: unlimited
  | Maximum stacksize for task 3: unlimited
  | Maximum stacksize for task 4: unlimited
  | Maximum stacksize for task 5: unlimited
  | Maximum stacksize for task 6: unlimited
  | Maximum stacksize for task 7: unlimited
  | Current stacksize for task 0: unlimited
  | Current stacksize for task 1: unlimited
  | Current stacksize for task 2: unlimited
  | Current stacksize for task 3: unlimited
  | Current stacksize for task 4: unlimited
  | Current stacksize for task 5: unlimited
  | Current stacksize for task 6: unlimited
  | Current stacksize for task 7: unlimited
  | Checking for scalapack...
  | Testing pdtran()...
  | All pdtran() tests passed.

  Obtaining array dimensions for all initial allocations:
  
  -----------------------------------------------------------------------
  Parsing control.in (first pass over file, find array dimensions only).
  The contents of control.in will be repeated verbatim below
  unless switched off by setting 'verbatim_writeout .false.' .
  in the first line of control.in .
  -----------------------------------------------------------------------
  
  #########################################################################################
  #
  #  Volker Blum, FHI 2009 : Test run input file control.in for simple H2O
  #
  #########################################################################################
  #
  #  Physical model
  #
    xc                 pbe
    spin               none
    relativistic       none
  #  default_initial_moment   0.05
  charge             0.0
  compute_forces   .true.
  #
  #  SCF convergence
  #
    occupation_type    gaussian 0.01
    mixer              pulay
      n_max_pulay        10
      charge_mix_param   0.5
    sc_accuracy_rho    1E-8
    sc_accuracy_eev    1E-6
    sc_accuracy_etot   1E-8
    #sc_accuracy_forces 1E-4
    sc_iter_limit      100
  ##
    solvent mpb
  
      dielec_func         1 78.36 0.0001 0.005 #78.36 0.0001 0.005
      ions_conc          	0.0
      ions_temp 		300
      ions_charge		1
      ions_size		5.0
      ions_kind		1
      SPE_lmax          6
      SPE_conv 1e-10 0.5
      start_mpb_solver step 2
      ions_mod_alpha 0.5 1.0 #-0.07 1.0 #0.0 1.0
      MERM_in_SPE_solver F
  
  
  ################################################################################
  #
  #  FHI-aims code project
  # Volker Blum, Fritz Haber Institute Berlin, 2009
  #
  #  Suggested "tight" defaults for H atom (to be pasted into control.in file)
  #
  ################################################################################
    species        H
    species        H
  #     global species definitions
      nucleus             1
      mass                1.00794
  #
      l_hartree           6
  #
      cut_pot             4.0  2.0  1.0
      basis_dep_cutoff    1e-4
  #
      radial_base         24 7.0
      radial_multiplier   2
      angular_grids       specified
        division   0.1930   50
        division   0.3175  110
        division   0.4293  194
        division   0.5066  302
        division   0.5626  434
  #      division   0.5922  590
  #      division   0.6227  974
  #      division   0.6868 1202
  #      outer_grid  770
        outer_grid  434
  ################################################################################
  #
  #  Definition of "minimal" basis
  #
  ################################################################################
  #     valence basis states
      valence      1  s   1.
  #     ion occupancy
      ion_occ      1  s   0.5
  ################################################################################
  #
  #  Suggested additional basis functions. For production calculations,
  #  uncomment them one after another (the most important basis functions are
  #  listed first).
  #
  #  Basis constructed for dimers: 0.5 A, 0.7 A, 1.0 A, 1.5 A, 2.5 A
  #
  ################################################################################
  #  "First tier" - improvements: -1014.90 meV to -62.69 meV
       hydro 2 s 2.1
       hydro 2 p 3.5
  #  "Second tier" - improvements: -12.89 meV to -1.83 meV
       hydro 1 s 0.85
       hydro 2 p 3.7
       hydro 2 s 1.2
       hydro 3 d 7
  #  "Third tier" - improvements: -0.25 meV to -0.12 meV
  #     hydro 4 f 11.2
  #     hydro 3 p 4.8
  #     hydro 4 d 9
  #     hydro 3 s 3.2
  ################################################################################
  #
  # For methods that use the localized form of the "resolution of identity" for
  # the two-electron Coulomb operator (RI_method LVL), particularly Hartree-Fock and
  # hybrid density functional calculations, the highest accuracy can be obtained by
  # uncommenting the line beginning with "for_aux"  below, thus adding an extra g radial
  # function to the construction of the product basis set for the expansion.
  # See Ref. New J. Phys. 17, 093020 (2015) for more information, particularly Figs. 1 and 6.
  #
  ################################################################################
  #
  # for_aux hydro 5 g 6.0
  ################################################################################
  #
  #  FHI-aims code project
  # Volker Blum, Fritz Haber Institute Berlin, 2009
  #
  #  Suggested "tight" defaults for Cl atom (to be pasted into control.in file)
  #
  #  Revised Jan 04, 2011, following tests (SiC) done by Lydia Nemec:
  #     d function of tier 2 now enabled by default.
  #
  ################################################################################
    species        Cl
  #     global species definitions
      nucleus             17
      mass                35.453
  #
      l_hartree           6
  #
      cut_pot             4.0          2.0  1.0
      basis_dep_cutoff    1e-4
  #
      radial_base         45 7.0
      radial_multiplier   2
      angular_grids       specified
        division   0.4412  110
        division   0.5489  194
        division   0.6734  302
        division   0.7794  434
  #      division   0.9402  590
  #      division   1.0779  770
  #      division   1.1792  974
  #      outer_grid  974
        outer_grid  434
  ################################################################################
  #
  #  Definition of "minimal" basis
  #
  ################################################################################
  #     valence basis states
      valence      3  s   2.
      valence      3  p   5.
  #     ion occupancy
      ion_occ      3  s   1.
      ion_occ      3  p   4.
  ################################################################################
  #
  #  Suggested additional basis functions. For production calculations,
  #  uncomment them one after another (the most important basis functions are
  #  listed first).
  #
  #  Constructed for dimers: 1.65 A, 2.0 A, 2.5 A, 3.25 A, 4.0 A
  #
  ################################################################################
  #  "First tier" - improvements: -429.57 meV to -15.03 meV
       ionic 3 d auto
       hydro 2 p 1.9
       hydro 4 f 7.4
       ionic 3 s auto
       hydro 5 g 10.4
  #  "Second tier" - improvements: -7.84 meV to -0.48 meV
       hydro 3 d 3.3
  #     hydro 5 f 9.8
  #     hydro 1 s 0.75
  #     hydro 5 g 11.2
  #     hydro 4 p 10.4
  #  "Third tier" - improvements: -1.00 meV to -0.12 meV
  #     hydro 4 d 12.8
  #     hydro 4 f 4.6
  #     hydro 4 d 10.8
  #     hydro 2 s 1.8
  #     hydro 3 p 3
  #  Further functions that fell out - improvements: -0.10 meV and below
  #     hydro 5 f 14.4
  #     hydro 4 s 12.8
  #     hydro 3 d 11.6
  #     hydro 4 s 4.1
  ################################################################################
  #
  # For methods that use the localized form of the "resolution of identity" for
  # the two-electron Coulomb operator (RI_method LVL), particularly Hartree-Fock and
  # hybrid density functional calculations, the highest accuracy can be obtained by
  # uncommenting the line beginning with "for_aux"  below, thus adding an extra g radial
  # function to the construction of the product basis set for the expansion.
  # See Ref. New J. Phys. 17, 093020 (2015) for more information, particularly Figs. 1 and 6.
  #
  ################################################################################
  #
  # for_aux hydro 5 g 6.0
  
  -----------------------------------------------------------------------
  Completed first pass over input file control.in .
  -----------------------------------------------------------------------
  
  
  -----------------------------------------------------------------------
  Parsing geometry.in (first pass over file, find array dimensions only).
  The contents of geometry.in will be repeated verbatim below
  unless switched off by setting 'verbatim_writeout .false.' .
  in the first line of geometry.in .
  -----------------------------------------------------------------------
  
  # z-displaced Hydrogen 0.1 Angstrom
   atom      -0.00000000      0.00000000      1.39423621 Cl
   atom       0.00000000      0.00000000      0.00576379 H
  
  
  -----------------------------------------------------------------------
  Completed first pass over input file geometry.in .
  -----------------------------------------------------------------------
  

  Basic array size parameters:
  | Number of species                 :        2
  | Number of atoms                   :        2
  | Max. basis fn. angular momentum   :        4
  | Max. atomic/ionic basis occupied n:        3
  | Max. number of basis fn. types    :        3
  | Max. radial fns per species/type  :        6
  | Max. logarithmic grid size        :     1362
  | Max. radial integration grid size :       91
  | Max. angular integration grid size:      434
  | Max. angular grid division number :        8
  | Radial grid for Hartree potential :     1362
  | Number of spin channels           :        1

------------------------------------------------------------
          Reading file control.in.
------------------------------------------------------------
  XC: Using PBE gradient-corrected functionals.
  Spin treatment: No spin polarisation.
  Non-relativistic treatment of kinetic energy.
  Charge =   0.000000E+00: Neutral system requested explicitly.
  Forces will be computed.
  Occupation type: Gaussian broadening, width =   0.100000E-01 eV.
  Using pulay charge density mixing.
  Pulay mixing - number of memorized iterations:   10
  Charge density mixing - mixing parameter:     0.5000
  Convergence accuracy of self-consistent charge density:  0.1000E-07
  Convergence accuracy of sum of eigenvalues:  0.1000E-05
  Convergence accuracy of total energy:  0.1000E-07
  Maximum number of s.-c. iterations  :   100

  Solvent effects will be calculated by using MPB method.
  ################################################################################################
   MPB solvent effects have been requested. Please read the
   following publications (and cite them) for a correct use and also check the Manual (!):
   ---------------------------------------------------------------------------------------------------
   Ringe, S., Oberhofer, H., Hille, C., Matera, S., Reuter, K., Function-Space oriented Solution Scheme for the
   Size-Modified Poisson-Boltzmann Equation in Full-Potential DFT, JCTC 2016, 12, 4052-4066.
   DOI: 10.1021/acs.jctc.6b00435
   Ringe, S., Oberhofer, H., Reuter, K., Transferable ionic parameters for first-principles
   Poisson-Boltzmann solvation calculations: Neutral solutes in
   aqueous monovalent salt solutions, JCP 2017, 13, 134103.
   DOI: 10.1063/1.4978850
   ---------------------------------------------------------------------------------------------------
 
  | Reading configuration options for the MPB solver 
  | Using self-consistent calculation of dispersion/Pauli-
    repulsion/cavity creation free energy. Could lead to worse convergence of SCF and
    is not always needed, see Ringe,Oberhofer,Hille,Matera,Reuter, JCTC, 2016.
  | The temperature of the pseudoatomiccharges is set to:
    | T_mpb =    300.00000000  K
  | The following parameters are used inthe MPB method to model a smooth dielectric function:
    | eps_infinity =     78.36000000
    | n_min =      0.00010000  e/bohr**3
    | n_max =      0.00500000  e/bohr**3
  | A z:z electrolyt will be incorporated with
    | concentration: c_mpb =      0.00000000  mol/L
    | charge: z_mpb =  1
    | size: a_mpb =      5.00000000  Ang
    | d_alpha_ion =      0.50000000
    | xi_alpha_ion =      1.00000000
  | The linear PB equation is solved by multipole expansion up to
    | Using maximum angular momentum for SPE multipole expansion of l_max =  6
    | and in the far field l_max =  6
  | tau_merm =   0.100000E-09
  | The dielectric function will be updated in each SCF step.
  | The exclusion function will be updated in each SCF step.
  | The dielectric function dependence on the electron density is added to the Kohn-Sham Hamiltonian.
  | The exclusion function dependence on the electron density is added to the Kohn-Sham Hamiltonian.
  | Forces (from MPB scheme) will be computed.
  | Giving concentration a finite value due to numerical issues, c_mpb =   0.100000E-29
  | Switching from MPBE to LPBE solver which is faster and more stable for c = 0M (no ion) case.
  | Using LPB-DFT method.
  | Using iterative/relaxation SC-LPBE solver.
  | volume fraction of ions, phi_zero_mpb =      0.00000000 a.u.
 
  Reading configuration options for species H                   .
  | Found nuclear charge :   1.0000
  | Found atomic mass :    1.00794000000000      amu
  | Found l_max for Hartree potential  :   6
  | Found cutoff potl. onset [A], width [A], scale factor :    4.00000    2.00000    1.00000
  | Threshold for basis-dependent cutoff potential is   0.100000E-03
  | Found data for basic radial integration grid :    24 points, outermost radius =    7.000 A
  | Found multiplier for basic radial grid :   2
  | Found angular grid specification: user-specified.
  | Specified grid contains     6 separate shells.
  | Check grid settings after all constraints further below.
  | Found free-atom valence shell :  1 s   1.000
  | Found free-ion valence shell :  1 s   0.500
  | Found hydrogenic basis function :  2 s   2.100
  | Found hydrogenic basis function :  2 p   3.500
  | Found hydrogenic basis function :  1 s   0.850
  | Found hydrogenic basis function :  2 p   3.700
  | Found hydrogenic basis function :  2 s   1.200
  | Found hydrogenic basis function :  3 d   7.000
  Species H                   : Missing cutoff potential type.
  Defaulting to exp(1/x)/(1-x)^2 type cutoff potential.
  Species H : No 'logarithmic' tag. Using default grid for free atom:
  | Default logarithmic grid data [bohr] : 0.1000E-03 0.1000E+03 0.1012E+01
  Species H : On-site basis accuracy parameter (for Gram-Schmidt orthonormalisation) not specified.
  Using default value basis_acc =  0.1000000E-03.
  Species H                   : Using default innermost maximum threshold i_radial=  2 for radial functions.
  Species H                   : Default cutoff onset for free atom density etc. : 0.40000000E+01 AA.
  Species H                   : Basic radial grid will be enhanced according to radial_multiplier =   2, to contain    49 grid points.
 
  Reading configuration options for species Cl                  .
  | Found nuclear charge :  17.0000
  | Found atomic mass :    35.4530000000000      amu
  | Found l_max for Hartree potential  :   6
  | Found cutoff potl. onset [A], width [A], scale factor :    4.00000    2.00000    1.00000
  | Threshold for basis-dependent cutoff potential is   0.100000E-03
  | Found data for basic radial integration grid :    45 points, outermost radius =    7.000 A
  | Found multiplier for basic radial grid :   2
  | Found angular grid specification: user-specified.
  | Specified grid contains     5 separate shells.
  | Check grid settings after all constraints further below.
  | Found free-atom valence shell :  3 s   2.000
  | Found free-atom valence shell :  3 p   5.000
  | Found free-ion valence shell :  3 s   1.000
  | Found free-ion valence shell :  3 p   4.000
  | Found ionic basis function :  3 d , default cutoff radius.
  | Found hydrogenic basis function :  2 p   1.900
  | Found hydrogenic basis function :  4 f   7.400
  | Found ionic basis function :  3 s , default cutoff radius.
  | Found hydrogenic basis function :  5 g  10.400
  | Found hydrogenic basis function :  3 d   3.300
  Species Cl                  : Missing cutoff potential type.
  Defaulting to exp(1/x)/(1-x)^2 type cutoff potential.
  Species Cl: No 'logarithmic' tag. Using default grid for free atom:
  | Default logarithmic grid data [bohr] : 0.1000E-03 0.1000E+03 0.1012E+01
  | Will include ionic basis functions of  2.0-fold positive Cl                   ion.
  Species Cl: On-site basis accuracy parameter (for Gram-Schmidt orthonormalisation) not specified.
  Using default value basis_acc =  0.1000000E-03.
  Species Cl                  : Using default innermost maximum threshold i_radial=  2 for radial functions.
  Species Cl                  : Default cutoff onset for free atom density etc. : 0.40000000E+01 AA.
  Species Cl                  : Basic radial grid will be enhanced according to radial_multiplier =   2, to contain    91 grid points.
 
  Finished reading input file 'control.in'. Consistency checks are next.
 
  MPI_IN_PLACE appears to work with this MPI implementation.
  | Keeping use_mpi_in_place .true. (see manual).
  Target number of points in a grid batch is not set. Defaulting to  100
  Method for grid partitioning is not set. Defaulting to parallel hash+maxmin partitioning.
  Batch size limit is not set. Defaulting to    200
  By default, will store active basis functions for each batch.
  If in need of memory, prune_basis_once .false. can be used to disable this option.
  communication_type for Hartree potential was not specified.
  Defaulting to calc_hartree .
  Pulay mixer: Number of initial linear mixing iterations not set.
  Defaulting to    0 iterations.
  Work space size for distributed Hartree potential not set.
  Defaulting to   0.200000E+03 MB.
  Algorithm-dependent basis array size parameters:
  | n_max_pulay                         :       10
  Presetting      1001 iterations before the initial mixing cycle
  is restarted anyway using the sc_init_iter criterion / keyword.
  Presetting a factor      1.000 between actual scf density residual
  and density convergence criterion sc_accuracy_rho below which sc_init_iter
  takes no effect.
  Geometry relaxation not requested: no relaxation will be performed.
  Force calculation: scf convergence accuracy of forces not set.
  Defaulting to 'sc_accuracy_forces not_checked'.
  Handling of forces: Unphysical translation and rotation will be removed from forces.
  No accuracy limit for integral partition fn. given. Defaulting to  0.1000E-14.
  No threshold value for u(r) in integrations given. Defaulting to  0.1000E-05.
  No accuracy for occupation numbers given. Defaulting to  0.1000E-12.
  No threshold value for occupation numbers given. Defaulting to  0.0000E+00.
  No accuracy for fermi level given. Defaulting to  0.1000E-19.
  Maximum # of iterations to find E_F not set. Defaulting to  200.
  Preferred method for the eigenvalue solver ('KS_method') not specified in 'control.in'.
  Calling BLACS routine to test compilation state
  Since ScaLAPACK support is enabled, defaulting to ELPA (via ELSI).
  Will not use alltoall communication since running on < 1024 CPUs.
  Threshold for basis singularities not set.
  Default threshold for basis singularities:  0.1000E-04
  partition_type (choice of integration weights) for integrals was not specified.
  | Using a version of the partition function of Stratmann and coworkers ('stratmann_sparse').
  | At each grid point, the set of atoms used to build the partition table is smoothly restricted to
  | only those atoms whose free-atom density would be non-zero at that grid point.
  Partitioning for Hartree potential was not defined. Using partition_type for integrals.
  | Adjusted default value of keyword multip_moments_threshold to:       0.10000000E-11
  | This value may affect high angular momentum components of the Hartree potential in periodic systems.
  No q(lm)/r^(l+1) cutoff set for long-range Hartree potential.
  | Using default value of  0.100000E-09 .
  | Verify using the multipole_threshold keyword.
  Defaulting to new monopole extrapolation.
  Density update method: automatic selection selected.
  Charge integration errors on the 3D integration grid will be compensated
  by explicit normalization and distribution of residual charges.
  Use the "compensate_multipole_errors" flag to change this behaviour.
------------------------------------------------------------


------------------------------------------------------------
          Reading geometry description geometry.in.
------------------------------------------------------------
 * Attention. You are trying to treat an element beyond Ne (Z=10) without
 * accounting for relativity. This will lead to slight deviations from the true
 * physics of the system. Check your results if in doubt.
  Input structure read successfully.
  The structure contains        2 atoms,  and a total of         18.000 electrons.

  Input geometry:
  | No unit cell requested.
  | Atomic structure:
  |       Atom                x [A]            y [A]            z [A]
  |    1: Species Cl            0.00000000        0.00000000        1.39423621
  |    2: Species H             0.00000000        0.00000000        0.00576379
  | The smallest distance between any two atoms is         1.38847242 AA.
  | The first atom of this pair is atom number                      1 .
  | The second atom of this pair is atom number                     2 .

  Number of empty states per atom not set in control.in - providing a guess from actual geometry.
  | Total number of empty states used during s.c.f. cycle:        5
  If you use a very high smearing, use empty_states (per atom!) in control.in to increase this value.

  Structure-dependent array size parameters: 
  | Maximum number of distinct radial functions  :       18
  | Maximum number of basis functions            :       54
  | Number of Kohn-Sham states (occupied + empty):       14
------------------------------------------------------------

------------------------------------------------------------
          Preparing all fixed parts of the calculation.
------------------------------------------------------------
  Determining machine precision:
    2.225073858507201E-308
  Setting up grids for atomic and cluster calculations.

  Creating wave function, potential, and density for free atoms.

  Species: H

  List of occupied orbitals and eigenvalues:
    n    l              occ      energy [Ha]    energy [eV]
    1    0           1.0000        -0.238382        -6.4867


  Species: Cl

  List of occupied orbitals and eigenvalues:
    n    l              occ      energy [Ha]    energy [eV]
    1    0           2.0000      -100.710795     -2740.4802
    2    0           2.0000        -9.222997      -250.9705
    3    0           2.0000        -0.754245       -20.5241
    2    1           6.0000        -7.039872      -191.5647
    3    1           5.0000        -0.316221        -8.6048

  Creating fixed part of basis set: Ionic, confined, hydrogenic.
 
  H                    hydrogenic:
 
  List of hydrogenic basis orbitals: 
    n    l      effective z      eigenvalue [eV]  inner max. [A]     outer max. [A]     outer radius [A]   
    2    0         2.100000       -14.9965           0.193243           1.317208           5.373006
    2    1         3.500000       -41.6672           0.602369           0.602369           4.056063
    1    0         0.850000        -9.8292           0.624871           0.624871           5.373006
    2    1         3.700000       -46.5653           0.573622           0.573622           3.910002
    2    0         1.200000        -4.5995           0.334980           2.228188           5.505995
    3    2         7.000000       -74.0753           0.680699           0.680699           3.769201
 
 
  Cl                   ion:

  List of free ionic orbitals and eigenvalues:
    n    l      energy [Ha]    energy [eV]
    1    0      -101.807232     -2770.3157
    2    0       -10.290876      -280.0290
    3    0        -1.664625       -45.2967
    2    1        -8.110237      -220.6908
    3    1        -1.183915       -32.2160


  List of ionic basis orbitals and eigenvalues:
    n    l      energy [Ha]    energy [eV]    outer radius [A]
    3    2        -0.529392       -14.4055       5.389057
    3    0        -1.664620       -45.2966       3.780461

 
  Cl                   hydrogenic:
 
  List of hydrogenic basis orbitals: 
    n    l      effective z      eigenvalue [eV]  inner max. [A]     outer max. [A]     outer radius [A]   
    2    1         1.900000       -12.2741           1.113321           1.113321           5.389057
    4    3         7.400000       -46.5653           1.140877           1.140877           4.886961
    5    4        10.400000       -58.8635           1.273568           1.273568           4.886961
    3    2         3.300000       -16.4532           1.439178           1.439178           5.455343
 

  Adding cutoff potential to free-atom effective potential.
  Creating atomic-like basis functions for current effective potential.

  Species H                   :

  List of atomic basis orbitals and eigenvalues:
    n    l      energy [Ha]    energy [eV]    outer radius [A]
    1    0        -0.238382        -6.4867       5.373006


  Species Cl                  :

  List of atomic basis orbitals and eigenvalues:
    n    l      energy [Ha]    energy [eV]    outer radius [A]
    1    0      -100.710795     -2740.4802       0.642251
    2    0        -9.222997      -250.9705       2.128190
    3    0        -0.754245       -20.5241       5.194994
    2    1        -7.039872      -191.5647       2.346844
    3    1        -0.316221        -8.6048       5.323577

  Assembling full basis from fixed parts.
  | Species H :   atomic orbital   1 s accepted.
  | Species H :    hydro orbital   2 s accepted.
  | Species H :    hydro orbital   1 s accepted.
  | Species H :    hydro orbital   2 s accepted.
  | Species H :    hydro orbital   2 p accepted.
  | Species H :    hydro orbital   2 p accepted.
  | Species H :    hydro orbital   3 d accepted.
  | Species Cl :   atomic orbital   1 s accepted.
  | Species Cl :   atomic orbital   2 s accepted.
  | Species Cl :    ionic orbital   3 s accepted.
  | Species Cl :   atomic orbital   3 s accepted.
  | Species Cl :   atomic orbital   2 p accepted.
  | Species Cl :   atomic orbital   3 p accepted.
  | Species Cl :    hydro orbital   2 p accepted.
  | Species Cl :    ionic orbital   3 d accepted.
  | Species Cl :    hydro orbital   3 d accepted.
  | Species Cl :    hydro orbital   4 f accepted.
  | Species Cl :    hydro orbital   5 g accepted.
 
  Basis size parameters after reduction:
  | Total number of radial functions:       18
  | Total number of basis functions :       54
 
  Per-task memory consumption for arrays in subroutine allocate_ext:
  |           4.709456MB.
  Testing on-site integration grid accuracy.
  |  Species  Function  <phi|h_atom|phi> (log., in eV)  <phi|h_atom|phi> (rad., in eV)
           1        1                 -6.4869821809                 -6.4870742227
           1        2                 13.5044133542                 13.5041049177
           1        3                 32.7854418792                 32.7779770519
           1        4                 33.7995553101                 33.7152624900 ***
           1        5                 28.8558651799                 28.8558652046
           1        6                 59.6361831893                 59.6362535845
           1        7                 60.2733718049                 60.2733715484
           2        8              -2740.4801671239              -2740.4801157382
           2        9               -250.9705040601               -250.9705032686
           2       10                -20.2716828483                -20.2716826058
           2       11                  9.0161300763                  9.0161279811
           2       12               -191.5646602865               -191.5646600866
           2       13                 -8.6049187757                 -8.6049181482
           2       14                  7.6458046205                  7.6458222050
           2       15                  6.9765726554                  6.9765744580
           2       16                 16.6546700653                 16.6546956455
           2       17                 28.0343243803                 28.0343233722
           2       18                 45.0370063056                 45.0370052035
 * Note: Onsite integrals marked "***" above are less accurate than
 * onsite_accuracy_threshold =    0.03000 eV. Usually, this is harmless.
 * When in doubt, tighten the "radial" and/or "radial_multiplier" flags to check.

  Preparing densities etc. for the partition functions (integrals / Hartree potential).

  Preparations completed.
  max(cpu_time)          :      0.185 s.
  Wall clock time (cpu1) :      0.185 s.
------------------------------------------------------------

------------------------------------------------------------
          Begin self-consistency loop: Initialization.

          Date     :  20190817, Time     :  153807.021
------------------------------------------------------------

  Initializing index lists of integration centers etc. from given atomic structure:
  | Number of centers in hartree potential         :         2
  | Number of centers in hartree multipole         :         2
  | Number of centers in electron density summation:         2
  | Number of centers in basis integrals           :         2
  | Number of centers in integrals                 :         2
  | Number of centers in hamiltonian               :         2
  * Using 8 tasks for Scalapack Eigenvalue solver.
  Detailed listing of tasks and assigned k-points:
  (for non-periodic systems, the "k-point" denotes an internal label only)
   Task     0 k-point     1 on co1631
   Task     1 k-point     1 on co1631
   Task     2 k-point     1 on co1631
   Task     3 k-point     1 on co1631
   Task     4 k-point     1 on co1631
   Task     5 k-point     1 on co1631
   Task     6 k-point     1 on co1631
   Task     7 k-point     1 on co1631
  Tasks:     8 split into      4 X      2 BLACS grid
  Calculating block size based on n_basis =           54  max_nprow =            4  max_npcol =            2
  ScaLAPACK block size set to:            8
  Allocating        0.004 MB for ovlp
  Allocating        0.004 MB for ham
  Allocating        0.004 MB for eigenvec
  Required Scalapack workspace - INTEGER:            1  REAL:             1
  Partitioning the integration grid into batches with parallel hashing+maxmin method.
  | Number of batches:      547
  | Maximal batch size:     135
  | Minimal batch size:      50
  | Average batch size:      72.797
  | Standard deviation of batch sizes:      19.150

  Integration load balanced across     8 MPI tasks.
  Work distribution over tasks is as follows:
  Task     0 has       5016 integration points.
  Task     1 has       4956 integration points.
  Task     2 has       4982 integration points.
  Task     3 has       4954 integration points.
  Task     4 has       4982 integration points.
  Task     5 has       5000 integration points.
  Task     6 has       4931 integration points.
  Task     7 has       4999 integration points.
  Initializing partition tables, free-atom densities, potentials, etc. across the integration grid (initialize_grid_storage).
  | initialize_grid_storage: Actual outermost partition radius vs. multipole_radius_free
  | (-- VB: in principle, multipole_radius_free should be larger, hence this output)
  | Species        1: Confinement radius =              6.000000000000000 AA, multipole_radius_free =              6.071692442739658 AA.
  | Species        1: outer_partition_radius set to              6.071692442739658 AA .
  | Species        2: Confinement radius =              6.000000000000000 AA, multipole_radius_free =              6.015836048499353 AA.
  | Species        2: outer_partition_radius set to              6.015836048499353 AA .
  | The sparse table of interatomic distances needs          0.04 kbyte instead of         0.03 kbyte of memory.
  | Using the partition_type stratmann_smoother will reduce your memory usage.
  | Net number of integration points:    39820
  | of which are non-zero points    :    37915
  Renormalizing the initial density to the exact electron count on the 3D integration grid.
  | Initial density: Formal number of electrons (from input files) :      18.0000000000
  | Integrated number of electrons on 3D grid     :      17.9999997588
  | Charge integration error                      :      -0.0000002412
  | Normalization factor for density and gradient :       1.0000000134
  Renormalizing the free-atom superposition density to the exact electron count on the 3D integration grid.
  | Formal number of electrons (from input files) :      18.0000000000
  | Integrated number of electrons on 3D grid     :      17.9999997588
  | Charge integration error                      :      -0.0000002412
  | Normalization factor for density and gradient :       1.0000000134
  Obtaining max. number of non-zero basis functions in each batch (get_n_compute_maxes).
  | Maximal number of non-zero basis functions:       54 in task     0
  | Maximal number of non-zero basis functions:       54 in task     1
  | Maximal number of non-zero basis functions:       54 in task     2
  | Maximal number of non-zero basis functions:       54 in task     3
  | Maximal number of non-zero basis functions:       54 in task     4
  | Maximal number of non-zero basis functions:       54 in task     5
  | Maximal number of non-zero basis functions:       54 in task     6
  | Maximal number of non-zero basis functions:       54 in task     7
  Selecting the method for density update.
  Loop over occupied states selected for charge density update.
  Allocating        0.006 MB for KS_eigenvector
  Integrating Hamiltonian matrix: batch-based integration.
  Time summed over all CPUs for integration: real work        0.151 s, elapsed        0.159 s
  Integrating overlap matrix.
  Time summed over all CPUs for integration: real work        0.046 s, elapsed        0.047 s
  Deallocating overlap matrix.

  Updating Kohn-Sham eigenvalues and eigenvectors using ELSI and the ELPA eigensolver.
  Overlap matrix is not singular
  | Lowest and highest eigenvalues :  0.4307E-02,  0.1996E+01
  Finished singularity check of overlap matrix
  | Time :     0.025 s
  Starting ELPA eigensolver
  Finished Cholesky decomposition
  | Time :     0.002 s
  Finished transformation to standard eigenproblem
  | Time :     0.003 s
  Finished solving standard eigenproblem
  | Time :     0.001 s
  Finished back-transformation of eigenvectors
  | Time :     0.000 s

  Obtaining occupation numbers and chemical potential using ELSI.
  | Chemical potential (Fermi level):    -6.01989519 eV
  Writing Kohn-Sham eigenvalues.

  State    Occupation    Eigenvalue [Ha]    Eigenvalue [eV]
      1       2.00000        -100.722476        -2740.79802
      2       2.00000          -9.235902         -251.32167
      3       2.00000          -7.054066         -191.95091
      4       2.00000          -7.051872         -191.89121
      5       2.00000          -7.051872         -191.89121
      6       2.00000          -0.801670          -21.81455
      7       2.00000          -0.446874          -12.16006
      8       2.00000          -0.332801           -9.05597
      9       2.00000          -0.332801           -9.05597
     10       0.00000          -0.077291           -2.10319
     11       0.00000           0.029888            0.81329
     12       0.00000           0.140548            3.82452
     13       0.00000           0.140548            3.82452
     14       0.00000           0.172895            4.70472

  Highest occupied state (VBM) at     -9.05596954 eV
  | Occupation number:      2.00000000

  Lowest unoccupied state (CBM) at    -2.10319351 eV
  | Occupation number:      0.00000000

  Overall HOMO-LUMO gap:      6.95277603 eV.
  | Actual lmax for multipole expansion to solve the SPE needed for the MPBE solver
   | species H                   :    6
   | species Cl                  :    6
  | Actual lmax used in the far field
  Calculating total energy contributions from superposition of free atom densities.

  Total energy components:
  | Sum of eigenvalues            :        -266.06066824 Ha       -7239.87914379 eV
  | XC energy correction          :         -28.30665565 Ha        -770.26329087 eV
  | XC potential correction       :          36.59750988 Ha         995.86891301 eV
  | Free-atom electrostatic energy:        -202.87673360 Ha       -5520.55680418 eV
  | Hartree energy correction     :           0.00000000 Ha           0.00000000 eV
  | Entropy correction            :           0.00000000 Ha           0.00000000 eV
  | ---------------------------
  | Total energy                  :        -460.64654762 Ha      -12534.83032583 eV
  | Total energy, T -> 0          :        -460.64654762 Ha      -12534.83032583 eV  <-- do not rely on this value for anything but (periodic) metals
  | Electronic free energy        :        -460.64654762 Ha      -12534.83032583 eV

  Derived energy quantities:
  | Kinetic energy                :         459.82250842 Ha       12512.40707849 eV
  | Electrostatic energy          :        -892.16240039 Ha      -24276.97411344 eV
  | Energy correction for multipole
  | error in Hartree potential    :           0.00000000 Ha           0.00000000 eV
  | Sum of eigenvalues per atom                           :       -3619.93957190 eV
  | Total energy (T->0) per atom                          :       -6267.41516291 eV  <-- do not rely on this value for anything but (periodic) metals
  | Electronic free energy per atom                       :       -6267.41516291 eV

  MPBE Solvation Additional Free Energies:
  | Free Energy in Electrolyte          :        -460.64654762 Ha      -12534.83032583 eV
  | Surface Area of Cavity            :           0.00000000 a.u.
  | Volume of Cavity             :           0.00000000 a.u.
  | Nonelectrostatic Free Energy             :           0.00000000 Ha
  | Additional Nonelstatic LPBE Solvation Energy:          0.00000000 Ha
  Initialize hartree_potential_storage
  Max. number of atoms included in rho_multipole:            2

  End scf initialization - timings             :  max(cpu_time)    wall_clock(cpu1)
  | Time for scf. initialization               :        0.088 s           0.116 s
  | Boundary condition initialization          :        0.000 s           0.000 s
  | Integration                                :        0.023 s           0.027 s
  | Solution of K.-S. eqns.                    :        0.029 s           0.031 s
  | Grid partitioning                          :        0.012 s           0.016 s
  | Preloading free-atom quantities on grid    :        0.015 s           0.022 s
  | Free-atom superposition energy             :        0.004 s           0.003 s
  | Total energy evaluation                    :        0.000 s           0.001 s

  Partial memory accounting:
  | Current value for overall tracked memory usage:
  |   Minimum:        0.022 MB (on task 7)
  |   Maximum:        0.029 MB (on task 0)
  |   Average:        0.026 MB
  | Peak value for overall tracked memory usage:
  |   Minimum:        0.224 MB (on task 7 after allocating wave)
  |   Maximum:        0.252 MB (on task 4 after allocating grid_partition)
  |   Average:        0.231 MB
  | Largest tracked array allocation so far:
  |   Minimum:        0.075 MB (all_coords on task 3)
  |   Maximum:        0.162 MB (all_coords on task 4)
  |   Average:        0.114 MB
  Note:  These values currently only include a subset of arrays which are explicitly tracked.
  The "true" memory usage will be greater.
------------------------------------------------------------

------------------------------------------------------------
          Begin self-consistency iteration #    1

  Date     :  20190817, Time     :  153807.137
------------------------------------------------------------
  Evaluating new KS density.
  Integration grid: deviation in total charge (<rho> - N_e) =   7.105427E-15
  Pulay mixing of updated and previous charge densities.
  Renormalizing the density to the exact electron count on the 3D integration grid.
  | Formal number of electrons (from input files) :      18.0000000000
  | Integrated number of electrons on 3D grid     :      18.0000000000
  | Charge integration error                      :      -0.0000000000
  | Normalization factor for density and gradient :       1.0000000000

  Evaluating partitioned Hartree potential by multipole expansion.
  | Original multipole sum: apparent total charge =  -0.105647E-13
  | Sum of charges compensated after spline to logarithmic grids =   0.367257E-06
  | Analytical far-field extrapolation by fixed multipoles:
  | Hartree multipole sum: apparent total charge =  -0.105401E-13
  Summing up the Hartree potential.
  Time summed over all CPUs for potential: real work        0.052 s, elapsed        0.052 s
  | RMS charge density error from multipole expansion :   0.742263E-03

  Integrating Hamiltonian matrix: batch-based integration.
  Time summed over all CPUs for integration: real work        0.107 s, elapsed        0.110 s

  Updating Kohn-Sham eigenvalues and eigenvectors using ELSI and the ELPA eigensolver.
  Starting ELPA eigensolver
  Finished transformation to standard eigenproblem
  | Time :     0.001 s
  Finished solving standard eigenproblem
  | Time :     0.018 s
  Finished back-transformation of eigenvectors
  | Time :     0.000 s

  Obtaining occupation numbers and chemical potential using ELSI.
  | Chemical potential (Fermi level):    -5.55370927 eV
  Writing Kohn-Sham eigenvalues.

  State    Occupation    Eigenvalue [Ha]    Eigenvalue [eV]
      1       2.00000        -100.654362        -2738.94456
      2       2.00000          -9.176097         -249.69431
      3       2.00000          -6.996641         -190.38829
      4       2.00000          -6.989583         -190.19624
      5       2.00000          -6.989583         -190.19624
      6       2.00000          -0.763945          -20.78799
      7       2.00000          -0.423198          -11.51580
      8       2.00000          -0.296830           -8.07715
      9       2.00000          -0.296830           -8.07715
     10       0.00000          -0.065904           -1.79334
     11       0.00000           0.037219            1.01278
     12       0.00000           0.157018            4.27268
     13       0.00000           0.157018            4.27268
     14       0.00000           0.189828            5.16547

  Highest occupied state (VBM) at     -8.07715379 eV
  | Occupation number:      2.00000000

  Lowest unoccupied state (CBM) at    -1.79334305 eV
  | Occupation number:      0.00000000

  Overall HOMO-LUMO gap:      6.28381074 eV.

  Total energy components:
  | Sum of eigenvalues            :        -265.17414014 Ha       -7215.75548688 eV
  | XC energy correction          :         -28.36691510 Ha        -771.90303393 eV
  | XC potential correction       :          36.67644812 Ha         998.01693185 eV
  | Free-atom electrostatic energy:        -202.87673360 Ha       -5520.55680418 eV
  | Hartree energy correction     :          -0.89884437 Ha         -24.45879976 eV
  | Entropy correction            :           0.00000000 Ha           0.00000000 eV
  | ---------------------------
  | Total energy                  :        -460.64018510 Ha      -12534.65719290 eV
  | Total energy, T -> 0          :        -460.64018510 Ha      -12534.65719290 eV  <-- do not rely on this value for anything but (periodic) metals
  | Electronic free energy        :        -460.64018510 Ha      -12534.65719290 eV

  Derived energy quantities:
  | Kinetic energy                :         460.16828118 Ha       12521.81603388 eV
  | Electrostatic energy          :        -892.44155118 Ha      -24284.57019285 eV
  | Energy correction for multipole
  | error in Hartree potential    :          -0.00066633 Ha          -0.01813189 eV
  | Sum of eigenvalues per atom                           :       -3607.87774344 eV
  | Total energy (T->0) per atom                          :       -6267.32859645 eV  <-- do not rely on this value for anything but (periodic) metals
  | Electronic free energy per atom                       :       -6267.32859645 eV

  MPBE Solvation Additional Free Energies:
  | Free Energy in Electrolyte          :        -460.64018510 Ha      -12534.65719290 eV
  | Surface Area of Cavity            :           0.00000000 a.u.
  | Volume of Cavity             :           0.00000000 a.u.
  | Nonelectrostatic Free Energy             :           0.00000000 Ha
  | Additional Nonelstatic LPBE Solvation Energy:          0.00000000 Ha

  Self-consistency convergence accuracy:
  | Change of charge density      :  0.1070E+00
  | Change of sum of eigenvalues  :  0.2412E+02 eV
  | Change of total energy        :  0.1731E+00 eV

  End self-consistency iteration #     1       :  max(cpu_time)    wall_clock(cpu1)
  | Time for this iteration                    :        0.055 s           0.055 s
  | Charge density update                      :        0.011 s           0.011 s
  | Density mixing                             :        0.001 s           0.001 s
  | Hartree multipole update                   :        0.002 s           0.002 s
  | Hartree multipole summation                :        0.007 s           0.007 s
  | Integration                                :        0.014 s           0.014 s
  | Solution of K.-S. eqns.                    :        0.019 s           0.019 s
  | Total energy evaluation                    :        0.000 s           0.000 s

  Partial memory accounting:
  | Current value for overall tracked memory usage:
  |   Minimum:        0.022 MB (on task 7)
  |   Maximum:        0.029 MB (on task 0)
  |   Average:        0.026 MB
  | Peak value for overall tracked memory usage:
  |   Minimum:        0.245 MB (on task 7 after allocating gradient_basis_wave)
  |   Maximum:        0.252 MB (on task 4 after allocating grid_partition)
  |   Average:        0.249 MB
  | Largest tracked array allocation so far:
  |   Minimum:        0.167 MB (gradient_basis_wave on task 0)
  |   Maximum:        0.167 MB (gradient_basis_wave on task 0)
  |   Average:        0.167 MB
  Note:  These values currently only include a subset of arrays which are explicitly tracked.
  The "true" memory usage will be greater.
------------------------------------------------------------

------------------------------------------------------------
          Begin self-consistency iteration #    2

  Date     :  20190817, Time     :  153807.192
------------------------------------------------------------
  Evaluating new KS density.
  Integration grid: deviation in total charge (<rho> - N_e) =   2.131628E-14
  Pulay mixing of updated and previous charge densities.
  Renormalizing the density to the exact electron count on the 3D integration grid.
  | Formal number of electrons (from input files) :      18.0000000000
  | Integrated number of electrons on 3D grid     :      18.0000000000
  | Charge integration error                      :      -0.0000000000
  | Normalization factor for density and gradient :       1.0000000000

  Evaluating partitioned Hartree potential by multipole expansion.
  | Original multipole sum: apparent total charge =  -0.143036E-13
  | Sum of charges compensated after spline to logarithmic grids =   0.279606E-06
  | Analytical far-field extrapolation by fixed multipoles:
  | Hartree multipole sum: apparent total charge =  -0.144512E-13
  Starting LPBE Solver
  * WARNING: Multipole expansion of preconditioned residual
  * extends too far at atom    1
  * WARNING: Multipole expansion of preconditioned residual
  * extends too far at atom    2

   |SCLPBE Initialization finished.

   |Solving LPBE...
 --------------------------

   |Solving LPB equation with step:    1
  |Current RMSD:      1.521E+01
   |Solving LPB equation with step:    2
  |Current RMSD:      5.950E+00
   |Solving LPB equation with step:    3
  |Current RMSD:      9.613E-01
   |Solving LPB equation with step:    4
  |Current RMSD:      3.320E-01
   |Solving LPB equation with step:    5
  |Current RMSD:      2.116E-01
   |Solving LPB equation with step:    6
  |Current RMSD:      5.553E-02
   |Solving LPB equation with step:    7
  |Current RMSD:      1.192E-02
   |Solving LPB equation with step:    8
  |Current RMSD:      1.684E-02
   |Solving LPB equation with step:    9
  |Current RMSD:      7.463E-03
   |Solving LPB equation with step:   10
  |Current RMSD:      2.967E-03
   |Solving LPB equation with step:   11
  |Current RMSD:      4.403E-03
   |Solving LPB equation with step:   12
  |Current RMSD:      2.096E-03
   |Solving LPB equation with step:   13
  |Current RMSD:      7.398E-04
   |Solving LPB equation with step:   14
  |Current RMSD:      1.258E-03
   |Solving LPB equation with step:   15
  |Current RMSD:      6.801E-04
   |Solving LPB equation with step:   16
  |Current RMSD:      2.171E-04
   |Solving LPB equation with step:   17
  |Current RMSD:      3.651E-04
   |Solving LPB equation with step:   18
  |Current RMSD:      2.259E-04
   |Solving LPB equation with step:   19
  |Current RMSD:      6.382E-05
   |Solving LPB equation with step:   20
  |Current RMSD:      9.926E-05
   |Solving LPB equation with step:   21
  |Current RMSD:      7.219E-05
   |Solving LPB equation with step:   22
  |Current RMSD:      2.365E-05
   |Solving LPB equation with step:   23
  |Current RMSD:      2.604E-05
   |Solving LPB equation with step:   24
  |Current RMSD:      2.189E-05
   |Solving LPB equation with step:   25
  |Current RMSD:      8.646E-06
   |Solving LPB equation with step:   26
  |Current RMSD:      6.705E-06
   |Solving LPB equation with step:   27
  |Current RMSD:      6.372E-06
   |Solving LPB equation with step:   28
  |Current RMSD:      2.976E-06
   |Solving LPB equation with step:   29
  |Current RMSD:      1.696E-06
   |Solving LPB equation with step:   30
  |Current RMSD:      1.770E-06
   |Solving LPB equation with step:   31
  |Current RMSD:      9.704E-07
   |Solving LPB equation with step:   32
  |Current RMSD:      4.401E-07
   |Solving LPB equation with step:   33
  |Current RMSD:      4.674E-07
   |Solving LPB equation with step:   34
  |Current RMSD:      2.999E-07
   |Solving LPB equation with step:   35
  |Current RMSD:      1.241E-07
   |Solving LPB equation with step:   36
  |Current RMSD:      1.169E-07
   |Solving LPB equation with step:   37
  |Current RMSD:      8.780E-08
   |Solving LPB equation with step:   38
  |Current RMSD:      3.838E-08
   |Solving LPB equation with step:   39
  |Current RMSD:      2.773E-08
   |Solving LPB equation with step:   40
  |Current RMSD:      2.417E-08
   |Solving LPB equation with step:   41
  |Current RMSD:      1.226E-08
   |Solving LPB equation with step:   42
  |Current RMSD:      6.515E-09
   |Solving LPB equation with step:   43
  |Current RMSD:      6.188E-09
   |Solving LPB equation with step:   44
  |Current RMSD:      3.789E-09
   |Solving LPB equation with step:   45
  |Current RMSD:      1.716E-09
   |Solving LPB equation with step:   46
  |Current RMSD:      1.468E-09
   |Solving LPB equation with step:   47
  |Current RMSD:      1.089E-09
   |Solving LPB equation with step:   48
  |Current RMSD:      5.321E-10
   |Solving LPB equation with step:   49
  |Current RMSD:      3.363E-10
   |Solving LPB equation with step:   50
  |Current RMSD:      2.866E-10
   |Solving LPB equation with step:   51
  |Current RMSD:      1.699E-10
   |Solving LPB equation with step:   52
  |Current RMSD:      8.634E-11
 --------------------------
 |SCLPB STATS:
  |LPBE Total steps:   52
  |Total time:  real work    10.2578425407410       s, elapsed    10.2598683834076       s
 --------------------------
  Summing up the Hartree potential.
  Time summed over all CPUs for potential: real work        0.055 s, elapsed        0.056 s
  | Nonelstat. LPBE Solvation Energy  0.000000E+00
 hartree_delta_energy  0.733168099087508     
 lpb_zero_energy  0.859403044538357     
  | RMS charge density error from multipole expansion :   0.000000E+00

 hartree_delta_energy  0.733168099087508     
 lpb_zero_energy  0.859403044538357     
 hartree_delta_energy  0.733168099087508     
 lpb_zero_energy  0.859403044538357     
 hartree_delta_energy  0.733168099087508     
 lpb_zero_energy  0.859403044538357     
 hartree_delta_energy  0.733168099087508     
 lpb_zero_energy  0.859403044538357     
 hartree_delta_energy  0.733168099087508     
 lpb_zero_energy  0.859403044538357     
 hartree_delta_energy  0.733168099087508     
 lpb_zero_energy  0.859403044538357     
 hartree_delta_energy  0.733168099087508     
 lpb_zero_energy  0.859403044538357     
  Integrating Hamiltonian matrix: batch-based integration.
  Time summed over all CPUs for integration: real work        0.116 s, elapsed        0.121 s

  Updating Kohn-Sham eigenvalues and eigenvectors using ELSI and the ELPA eigensolver.
  Starting ELPA eigensolver
  Finished transformation to standard eigenproblem
  | Time :     0.000 s
  Finished solving standard eigenproblem
  | Time :     0.001 s
  Finished back-transformation of eigenvectors
  | Time :     0.000 s

  Obtaining occupation numbers and chemical potential using ELSI.
  | Chemical potential (Fermi level):    -5.48239691 eV
  Highest occupied state (VBM) at     -8.02015361 eV
  | Occupation number:      2.00000000

  Lowest unoccupied state (CBM) at    -1.13017023 eV
  | Occupation number:      0.00000000

  Overall HOMO-LUMO gap:      6.88998338 eV.

  Checking to see if s.c.f. parameters should be adjusted.

  Total energy components:
  | Sum of eigenvalues            :        -265.27676422 Ha       -7218.54803012 eV
  | XC energy correction          :         -28.35983017 Ha        -771.71024319 eV
  | XC potential correction       :          36.66668941 Ha         997.75138387 eV
  | Free-atom electrostatic energy:        -202.87673360 Ha       -5520.55680418 eV
  | Hartree energy correction     :          -0.79628557 Ha         -21.66803287 eV
  | Entropy correction            :           0.00000000 Ha           0.00000000 eV
  | ---------------------------
  | Total energy                  :        -460.64557942 Ha      -12534.80397979 eV
  | Total energy, T -> 0          :        -460.64557942 Ha      -12534.80397979 eV  <-- do not rely on this value for anything but (periodic) metals
  | Electronic free energy        :        -460.64557942 Ha      -12534.80397979 eV

  Derived energy quantities:
  | Kinetic energy                :         459.94315518 Ha       12515.76229711 eV
  | Electrostatic energy          :        -892.22890443 Ha      -24278.78378040 eV
  | Energy correction for multipole
  | error in Hartree potential    :          -0.00169328 Ha          -0.04607657 eV
  | Sum of eigenvalues per atom                           :       -3609.27401506 eV
  | Total energy (T->0) per atom                          :       -6267.40198989 eV  <-- do not rely on this value for anything but (periodic) metals
  | Electronic free energy per atom                       :       -6267.40198989 eV

  MPBE Solvation Additional Free Energies:
  | Free Energy in Electrolyte          :        -460.64187369 Ha      -12534.70314167 eV
  | Surface Area of Cavity            :         268.08619429 a.u.
  | Volume of Cavity             :         412.23641227 a.u.
  | Nonelectrostatic Free Energy             :           0.00370573 Ha
  | Additional Nonelstatic LPBE Solvation Energy:          0.00000000 Ha

  Self-consistency convergence accuracy:
  | Change of charge density      :  0.5486E-01
  | Change of sum of eigenvalues  : -0.2793E+01 eV
  | Change of total energy        : -0.1468E+00 eV

  End self-consistency iteration #     2       :  max(cpu_time)    wall_clock(cpu1)
  | Time for this iteration                    :        1.323 s           1.334 s
  | Charge density update                      :        0.012 s           0.012 s
  | Density mixing                             :        0.001 s           0.001 s
  | Hartree multipole update                   :        0.002 s           0.002 s
  | Hartree multipole summation                :        1.290 s           1.301 s
  | Integration                                :        0.016 s           0.016 s
  | Solution of K.-S. eqns.                    :        0.001 s           0.002 s
  | Total energy evaluation                    :        0.000 s           0.000 s

  Partial memory accounting:
  | Current value for overall tracked memory usage:
  |   Minimum:        0.023 MB (on task 7)
  |   Maximum:        0.029 MB (on task 0)
  |   Average:        0.027 MB
  | Peak value for overall tracked memory usage:
  |   Minimum:        0.245 MB (on task 7 after allocating gradient_basis_wave)
  |   Maximum:        0.252 MB (on task 4 after allocating grid_partition)
  |   Average:        0.249 MB
  | Largest tracked array allocation so far:
  |   Minimum:        0.167 MB (gradient_basis_wave on task 0)
  |   Maximum:        0.167 MB (gradient_basis_wave on task 0)
  |   Average:        0.167 MB
  Note:  These values currently only include a subset of arrays which are explicitly tracked.
  The "true" memory usage will be greater.
------------------------------------------------------------

------------------------------------------------------------
          Begin self-consistency iteration #    3

  Date     :  20190817, Time     :  153808.526
------------------------------------------------------------
  Evaluating new KS density.
  Integration grid: deviation in total charge (<rho> - N_e) =   0.000000E+00
  Pulay mixing of updated and previous charge densities.
  Renormalizing the density to the exact electron count on the 3D integration grid.
  | Formal number of electrons (from input files) :      18.0000000000
  | Integrated number of electrons on 3D grid     :      18.0000000000
  | Charge integration error                      :      -0.0000000000
  | Normalization factor for density and gradient :       1.0000000000

  Evaluating partitioned Hartree potential by multipole expansion.
  | Original multipole sum: apparent total charge =  -0.244747E-13
  | Sum of charges compensated after spline to logarithmic grids =   0.435638E-06
  | Analytical far-field extrapolation by fixed multipoles:
  | Hartree multipole sum: apparent total charge =  -0.245977E-13
  Starting LPBE Solver

   |SCLPBE Initialization finished.

   |Solving LPBE...
 --------------------------

   |Solving LPB equation with step:    1
  |Current RMSD:      5.659E-01
   |Solving LPB equation with step:    2
  |Current RMSD:      8.481E-01
   |Solving LPB equation with step:    3
  |Current RMSD:      1.451E-01
   |Solving LPB equation with step:    4
  |Current RMSD:      1.421E-01
   |Solving LPB equation with step:    5
  |Current RMSD:      3.375E-02
   |Solving LPB equation with step:    6
  |Current RMSD:      1.227E-02
   |Solving LPB equation with step:    7
  |Current RMSD:      1.221E-02
   |Solving LPB equation with step:    8
  |Current RMSD:      6.963E-03
   |Solving LPB equation with step:    9
  |Current RMSD:      3.487E-03
   |Solving LPB equation with step:   10
  |Current RMSD:      1.293E-03
   |Solving LPB equation with step:   11
  |Current RMSD:      7.836E-04
   |Solving LPB equation with step:   12
  |Current RMSD:      8.379E-04
   |Solving LPB equation with step:   13
  |Current RMSD:      4.015E-04
   |Solving LPB equation with step:   14
  |Current RMSD:      8.732E-05
   |Solving LPB equation with step:   15
  |Current RMSD:      1.834E-04
   |Solving LPB equation with step:   16
  |Current RMSD:      1.090E-04
   |Solving LPB equation with step:   17
  |Current RMSD:      2.985E-05
   |Solving LPB equation with step:   18
  |Current RMSD:      4.860E-05
   |Solving LPB equation with step:   19
  |Current RMSD:      3.187E-05
   |Solving LPB equation with step:   20
  |Current RMSD:      1.056E-05
   |Solving LPB equation with step:   21
  |Current RMSD:      1.295E-05
   |Solving LPB equation with step:   22
  |Current RMSD:      8.935E-06
   |Solving LPB equation with step:   23
  |Current RMSD:      3.560E-06
   |Solving LPB equation with step:   24
  |Current RMSD:      3.769E-06
   |Solving LPB equation with step:   25
  |Current RMSD:      2.509E-06
   |Solving LPB equation with step:   26
  |Current RMSD:      8.961E-07
   |Solving LPB equation with step:   27
  |Current RMSD:      1.097E-06
   |Solving LPB equation with step:   28
  |Current RMSD:      7.757E-07
   |Solving LPB equation with step:   29
  |Current RMSD:      2.092E-07
   |Solving LPB equation with step:   30
  |Current RMSD:      2.886E-07
   |Solving LPB equation with step:   31
  |Current RMSD:      2.424E-07
   |Solving LPB equation with step:   32
  |Current RMSD:      6.788E-08
   |Solving LPB equation with step:   33
  |Current RMSD:      6.789E-08
   |Solving LPB equation with step:   34
  |Current RMSD:      7.281E-08
   |Solving LPB equation with step:   35
  |Current RMSD:      2.733E-08
   |Solving LPB equation with step:   36
  |Current RMSD:      1.436E-08
   |Solving LPB equation with step:   37
  |Current RMSD:      2.068E-08
   |Solving LPB equation with step:   38
  |Current RMSD:      1.029E-08
   |Solving LPB equation with step:   39
  |Current RMSD:      3.263E-09
   |Solving LPB equation with step:   40
  |Current RMSD:      5.545E-09
   |Solving LPB equation with step:   41
  |Current RMSD:      3.487E-09
   |Solving LPB equation with step:   42
  |Current RMSD:      1.126E-09
   |Solving LPB equation with step:   43
  |Current RMSD:      1.435E-09
   |Solving LPB equation with step:   44
  |Current RMSD:      1.080E-09
   |Solving LPB equation with step:   45
  |Current RMSD:      4.357E-10
   |Solving LPB equation with step:   46
  |Current RMSD:      3.776E-10
   |Solving LPB equation with step:   47
  |Current RMSD:      3.141E-10
   |Solving LPB equation with step:   48
  |Current RMSD:      1.506E-10
   |Solving LPB equation with step:   49
  |Current RMSD:      1.051E-10
   |Solving LPB equation with step:   50
  |Current RMSD:      8.947E-11
 --------------------------
 |SCLPB STATS:
  |LPBE Total steps:   50
  |Total time:  real work    9.51636266708374       s, elapsed    9.51682186126709       s
 --------------------------
  Summing up the Hartree potential.
  Time summed over all CPUs for potential: real work        0.054 s, elapsed        0.054 s
  | Nonelstat. LPBE Solvation Energy  0.000000E+00
 hartree_delta_energy  0.859634453148079     
 lpb_zero_energy  0.992009334798143     
  | RMS charge density error from multipole expansion :   0.000000E+00
 hartree_delta_energy  0.859634453148079     
 lpb_zero_energy  0.992009334798143     
 hartree_delta_energy  0.859634453148079     
 lpb_zero_energy  0.992009334798143     
 hartree_delta_energy  0.859634453148079     
 lpb_zero_energy  0.992009334798143     
 hartree_delta_energy  0.859634453148079     
 lpb_zero_energy  0.992009334798143     
 hartree_delta_energy  0.859634453148079     
 lpb_zero_energy  0.992009334798143     
 hartree_delta_energy  0.859634453148079     
 lpb_zero_energy  0.992009334798143     
 hartree_delta_energy  0.859634453148079     
 lpb_zero_energy  0.992009334798143     

  Integrating Hamiltonian matrix: batch-based integration.
  Time summed over all CPUs for integration: real work        0.118 s, elapsed        0.123 s

  Updating Kohn-Sham eigenvalues and eigenvectors using ELSI and the ELPA eigensolver.
  Starting ELPA eigensolver
  Finished transformation to standard eigenproblem
  | Time :     0.001 s
  Finished solving standard eigenproblem
  | Time :     0.000 s
  Finished back-transformation of eigenvectors
  | Time :     0.000 s

  Obtaining occupation numbers and chemical potential using ELSI.
  | Chemical potential (Fermi level):    -5.40171740 eV
  Highest occupied state (VBM) at     -7.86217293 eV
  | Occupation number:      2.00000000

  Lowest unoccupied state (CBM) at    -0.91021004 eV
  | Occupation number:      0.00000000

  Overall HOMO-LUMO gap:      6.95196289 eV.

  Total energy components:
  | Sum of eigenvalues            :        -265.14931926 Ha       -7215.08007625 eV
  | XC energy correction          :         -28.36824583 Ha        -771.93924500 eV
  | XC potential correction       :          36.67772979 Ha         998.05180804 eV
  | Free-atom electrostatic energy:        -202.87673360 Ha       -5520.55680418 eV
  | Hartree energy correction     :          -0.92582189 Ha         -25.19289554 eV
  | Entropy correction            :           0.00000000 Ha           0.00000000 eV
  | ---------------------------
  | Total energy                  :        -460.64598246 Ha      -12534.81494719 eV
  | Total energy, T -> 0          :        -460.64598246 Ha      -12534.81494719 eV  <-- do not rely on this value for anything but (periodic) metals
  | Electronic free energy        :        -460.64598246 Ha      -12534.81494719 eV

  Derived energy quantities:
  | Kinetic energy                :         459.95546303 Ha       12516.12269178 eV
  | Electrostatic energy          :        -892.23319966 Ha      -24278.90065971 eV
  | Energy correction for multipole
  | error in Hartree potential    :          -0.00230592 Ha          -0.06274718 eV
  | Sum of eigenvalues per atom                           :       -3607.54003813 eV
  | Total energy (T->0) per atom                          :       -6267.40747360 eV  <-- do not rely on this value for anything but (periodic) metals
  | Electronic free energy per atom                       :       -6267.40747360 eV

  MPBE Solvation Additional Free Energies:
  | Free Energy in Electrolyte          :        -460.64229651 Ha      -12534.71464722 eV
  | Surface Area of Cavity            :         265.07644158 a.u.
  | Volume of Cavity             :         405.77346756 a.u.
  | Nonelectrostatic Free Energy             :           0.00368596 Ha
  | Additional Nonelstatic LPBE Solvation Energy:          0.00000000 Ha

  Self-consistency convergence accuracy:
  | Change of charge density      :  0.2100E-01
  | Change of sum of eigenvalues  :  0.3468E+01 eV
  | Change of total energy        : -0.1097E-01 eV

  End self-consistency iteration #     3       :  max(cpu_time)    wall_clock(cpu1)
  | Time for this iteration                    :        1.230 s           1.231 s
  | Charge density update                      :        0.012 s           0.012 s
  | Density mixing                             :        0.001 s           0.001 s
  | Hartree multipole update                   :        0.002 s           0.002 s
  | Hartree multipole summation                :        1.196 s           1.196 s
  | Integration                                :        0.016 s           0.016 s
  | Solution of K.-S. eqns.                    :        0.001 s           0.001 s
  | Total energy evaluation                    :        0.000 s           0.001 s

  Partial memory accounting:
  | Current value for overall tracked memory usage:
  |   Minimum:        0.023 MB (on task 7)
  |   Maximum:        0.030 MB (on task 0)
  |   Average:        0.027 MB
  | Peak value for overall tracked memory usage:
  |   Minimum:        0.245 MB (on task 7 after allocating gradient_basis_wave)
  |   Maximum:        0.252 MB (on task 4 after allocating grid_partition)
  |   Average:        0.250 MB
  | Largest tracked array allocation so far:
  |   Minimum:        0.167 MB (gradient_basis_wave on task 0)
  |   Maximum:        0.167 MB (gradient_basis_wave on task 0)
  |   Average:        0.167 MB
  Note:  These values currently only include a subset of arrays which are explicitly tracked.
  The "true" memory usage will be greater.
------------------------------------------------------------

------------------------------------------------------------
          Begin self-consistency iteration #    4

  Date     :  20190817, Time     :  153809.757
------------------------------------------------------------
  Evaluating new KS density.
  Integration grid: deviation in total charge (<rho> - N_e) =   0.000000E+00
  Pulay mixing of updated and previous charge densities.
  Renormalizing the density to the exact electron count on the 3D integration grid.
  | Formal number of electrons (from input files) :      18.0000000000
  | Integrated number of electrons on 3D grid     :      18.0000000000
  | Charge integration error                      :       0.0000000000
  | Normalization factor for density and gradient :       1.0000000000

  Evaluating partitioned Hartree potential by multipole expansion.
  | Original multipole sum: apparent total charge =   0.974070E-14
  | Sum of charges compensated after spline to logarithmic grids =   0.529386E-06
  | Analytical far-field extrapolation by fixed multipoles:
  | Hartree multipole sum: apparent total charge =   0.102573E-13
  Starting LPBE Solver

   |SCLPBE Initialization finished.

   |Solving LPBE...
 --------------------------

   |Solving LPB equation with step:    1
  |Current RMSD:      3.438E-01
   |Solving LPB equation with step:    2
  |Current RMSD:      5.117E-01
   |Solving LPB equation with step:    3
  |Current RMSD:      8.492E-02
   |Solving LPB equation with step:    4
  |Current RMSD:      8.512E-02
   |Solving LPB equation with step:    5
  |Current RMSD:      2.341E-02
   |Solving LPB equation with step:    6
  |Current RMSD:      9.564E-03
   |Solving LPB equation with step:    7
  |Current RMSD:      7.171E-03
   |Solving LPB equation with step:    8
  |Current RMSD:      5.053E-03
   |Solving LPB equation with step:    9
  |Current RMSD:      3.050E-03
   |Solving LPB equation with step:   10
  |Current RMSD:      7.869E-04
   |Solving LPB equation with step:   11
  |Current RMSD:      7.624E-04
   |Solving LPB equation with step:   12
  |Current RMSD:      8.043E-04
   |Solving LPB equation with step:   13
  |Current RMSD:      3.086E-04
   |Solving LPB equation with step:   14
  |Current RMSD:      1.648E-04
   |Solving LPB equation with step:   15
  |Current RMSD:      2.046E-04
   |Solving LPB equation with step:   16
  |Current RMSD:      9.259E-05
   |Solving LPB equation with step:   17
  |Current RMSD:      4.730E-05
   |Solving LPB equation with step:   18
  |Current RMSD:      5.718E-05
   |Solving LPB equation with step:   19
  |Current RMSD:      2.865E-05
   |Solving LPB equation with step:   20
  |Current RMSD:      1.388E-05
   |Solving LPB equation with step:   21
  |Current RMSD:      1.608E-05
   |Solving LPB equation with step:   22
  |Current RMSD:      8.470E-06
   |Solving LPB equation with step:   23
  |Current RMSD:      3.991E-06
   |Solving LPB equation with step:   24
  |Current RMSD:      4.683E-06
   |Solving LPB equation with step:   25
  |Current RMSD:      2.526E-06
   |Solving LPB equation with step:   26
  |Current RMSD:      9.317E-07
   |Solving LPB equation with step:   27
  |Current RMSD:      1.341E-06
   |Solving LPB equation with step:   28
  |Current RMSD:      8.099E-07
   |Solving LPB equation with step:   29
  |Current RMSD:      1.932E-07
   |Solving LPB equation with step:   30
  |Current RMSD:      3.580E-07
   |Solving LPB equation with step:   31
  |Current RMSD:      2.589E-07
   |Solving LPB equation with step:   32
  |Current RMSD:      5.841E-08
   |Solving LPB equation with step:   33
  |Current RMSD:      8.826E-08
   |Solving LPB equation with step:   34
  |Current RMSD:      7.921E-08
   |Solving LPB equation with step:   35
  |Current RMSD:      2.503E-08
   |Solving LPB equation with step:   36
  |Current RMSD:      2.030E-08
   |Solving LPB equation with step:   37
  |Current RMSD:      2.295E-08
   |Solving LPB equation with step:   38
  |Current RMSD:      9.849E-09
   |Solving LPB equation with step:   39
  |Current RMSD:      4.694E-09
   |Solving LPB equation with step:   40
  |Current RMSD:      6.319E-09
   |Solving LPB equation with step:   41
  |Current RMSD:      3.426E-09
   |Solving LPB equation with step:   42
  |Current RMSD:      1.293E-09
   |Solving LPB equation with step:   43
  |Current RMSD:      1.679E-09
   |Solving LPB equation with step:   44
  |Current RMSD:      1.085E-09
   |Solving LPB equation with step:   45
  |Current RMSD:      4.212E-10
   |Solving LPB equation with step:   46
  |Current RMSD:      4.426E-10
   |Solving LPB equation with step:   47
  |Current RMSD:      3.230E-10
   |Solving LPB equation with step:   48
  |Current RMSD:      1.365E-10
   |Solving LPB equation with step:   49
  |Current RMSD:      1.174E-10
   |Solving LPB equation with step:   50
  |Current RMSD:      9.353E-11
  |WARNING: Calculating the MPBE free energy ln-cosh-function as limiting expression,although the limit may not be reached for this particular point, since the alpha-function is very small.
 --------------------------
 |SCLPB STATS:
  |LPBE Total steps:   50
  |Total time:  real work    9.47273421287537       s, elapsed    9.47322130203247       s
 --------------------------
  Summing up the Hartree potential.
  Time summed over all CPUs for potential: real work        0.054 s, elapsed        0.055 s
  | Nonelstat. LPBE Solvation Energy  0.000000E+00
 hartree_delta_energy  0.901616953670299     
 lpb_zero_energy  0.987959929847150     
  | RMS charge density error from multipole expansion :   0.000000E+00

 hartree_delta_energy  0.901616953670299     
 lpb_zero_energy  0.987959929847150     
 hartree_delta_energy  0.901616953670299     
 lpb_zero_energy  0.987959929847150     
 hartree_delta_energy  0.901616953670299     
 lpb_zero_energy  0.987959929847150     
 hartree_delta_energy  0.901616953670299     
 lpb_zero_energy  0.987959929847150     
 hartree_delta_energy  0.901616953670299     
 lpb_zero_energy  0.987959929847150     
 hartree_delta_energy  0.901616953670299     
 lpb_zero_energy  0.987959929847150     
 hartree_delta_energy  0.901616953670299     
 lpb_zero_energy  0.987959929847150     
  Integrating Hamiltonian matrix: batch-based integration.
  Time summed over all CPUs for integration: real work        0.118 s, elapsed        0.123 s

  Updating Kohn-Sham eigenvalues and eigenvectors using ELSI and the ELPA eigensolver.
  Starting ELPA eigensolver
  Finished transformation to standard eigenproblem
  | Time :     0.000 s
  Finished solving standard eigenproblem
  | Time :     0.001 s
  Finished back-transformation of eigenvectors
  | Time :     0.000 s

  Obtaining occupation numbers and chemical potential using ELSI.
  | Chemical potential (Fermi level):    -5.37147413 eV
  Highest occupied state (VBM) at     -7.82348512 eV
  | Occupation number:      2.00000000

  Lowest unoccupied state (CBM) at    -0.77680186 eV
  | Occupation number:      0.00000000

  Overall HOMO-LUMO gap:      7.04668326 eV.

  Total energy components:
  | Sum of eigenvalues            :        -265.12999430 Ha       -7214.55421728 eV
  | XC energy correction          :         -28.36831314 Ha        -771.94107642 eV
  | XC potential correction       :          36.67785682 Ha         998.05526446 eV
  | Free-atom electrostatic energy:        -202.87673360 Ha       -5520.55680418 eV
  | Hartree energy correction     :          -0.94478844 Ha         -25.70900156 eV
  | Entropy correction            :           0.00000000 Ha           0.00000000 eV
  | ---------------------------
  | Total energy                  :        -460.64621904 Ha      -12534.82138490 eV
  | Total energy, T -> 0          :        -460.64621904 Ha      -12534.82138490 eV  <-- do not rely on this value for anything but (periodic) metals
  | Electronic free energy        :        -460.64621904 Ha      -12534.82138490 eV

  Derived energy quantities:
  | Kinetic energy                :         459.93292071 Ha       12515.52709961 eV
  | Electrostatic energy          :        -892.21082662 Ha      -24278.29185817 eV
  | Energy correction for multipole
  | error in Hartree potential    :          -0.00262737 Ha          -0.07149438 eV
  | Sum of eigenvalues per atom                           :       -3607.27710864 eV
  | Total energy (T->0) per atom                          :       -6267.41069245 eV  <-- do not rely on this value for anything but (periodic) metals
[...]
  |   Minimum:        0.246 MB (on task 7 after allocating gradient_basis_wave)
  |   Maximum:        0.252 MB (on task 4 after allocating grid_partition)
  |   Average:        0.250 MB
  | Largest tracked array allocation so far:
  |   Minimum:        0.167 MB (gradient_basis_wave on task 0)
  |   Maximum:        0.167 MB (gradient_basis_wave on task 0)
  |   Average:        0.167 MB
  Note:  These values currently only include a subset of arrays which are explicitly tracked.
  The "true" memory usage will be greater.
------------------------------------------------------------

------------------------------------------------------------
          Begin self-consistency iteration #   16

  Date     :  20190817, Time     :  153820.028
------------------------------------------------------------
  Evaluating new KS density and force components.
  Integration grid: deviation in total charge (<rho> - N_e) =   1.065814E-14
  Pulay mixing of updated and previous charge densities.
  Renormalizing the density to the exact electron count on the 3D integration grid.
  | Formal number of electrons (from input files) :      18.0000000000
  | Integrated number of electrons on 3D grid     :      18.0000000000
  | Charge integration error                      :      -0.0000000000
  | Normalization factor for density and gradient :       1.0000000000

  Evaluating partitioned Hartree potential by multipole expansion.
  | Original multipole sum: apparent total charge =  -0.117577E-13
  | Sum of charges compensated after spline to logarithmic grids =   0.616594E-06
  | Analytical far-field extrapolation by fixed multipoles:
  | Hartree multipole sum: apparent total charge =  -0.114625E-13
  Starting LPBE Solver

   |SCLPBE Initialization finished.

   |Solving LPBE...
 --------------------------

   |Solving LPB equation with step:    1
  |Current RMSD:      2.272E-08
   |Solving LPB equation with step:    2
  |Current RMSD:      3.451E-08
   |Solving LPB equation with step:    3
  |Current RMSD:      6.482E-09
   |Solving LPB equation with step:    4
  |Current RMSD:      5.881E-09
   |Solving LPB equation with step:    5
  |Current RMSD:      1.705E-09
   |Solving LPB equation with step:    6
  |Current RMSD:      8.072E-10
   |Solving LPB equation with step:    7
  |Current RMSD:      5.286E-10
   |Solving LPB equation with step:    8
  |Current RMSD:      4.292E-10
   |Solving LPB equation with step:    9
  |Current RMSD:      2.591E-10
   |Solving LPB equation with step:   10
  |Current RMSD:      5.393E-11
 --------------------------
 |SCLPB STATS:
  |LPBE Total steps:   10
  |Total time:  real work    1.89832448959351       s, elapsed    1.89879989624023       s
 --------------------------
  Summing up the Hartree potential.
  Time summed over all CPUs for potential: real work        0.159 s, elapsed        0.165 s
  | Nonelstat. LPBE Solvation Energy  0.000000E+00
 hartree_delta_energy  0.945771220938872     
 lpb_zero_energy  0.998782435998317     
  | RMS charge density error from multipole expansion :   0.000000E+00

 hartree_delta_energy  0.945771220938872     
 lpb_zero_energy  0.998782435998317     
 hartree_delta_energy  0.945771220938872     
 lpb_zero_energy  0.998782435998317     
 hartree_delta_energy  0.945771220938872     
 lpb_zero_energy  0.998782435998317     
 hartree_delta_energy  0.945771220938872     
 lpb_zero_energy  0.998782435998317     
 hartree_delta_energy  0.945771220938872     
 lpb_zero_energy  0.998782435998317     
 hartree_delta_energy  0.945771220938872     
 lpb_zero_energy  0.998782435998317     
 hartree_delta_energy  0.945771220938872     
 lpb_zero_energy  0.998782435998317     
  Integrating Hamiltonian matrix: batch-based integration.
  Time summed over all CPUs for integration: real work        0.112 s, elapsed        0.117 s

  Updating Kohn-Sham eigenvalues and eigenvectors using ELSI and the ELPA eigensolver.
  Starting ELPA eigensolver
  Finished transformation to standard eigenproblem
  | Time :     0.000 s
  Finished solving standard eigenproblem
  | Time :     0.001 s
  Finished back-transformation of eigenvectors
  | Time :     0.000 s

  Obtaining occupation numbers and chemical potential using ELSI.
  | Chemical potential (Fermi level):    -5.34364220 eV
  Highest occupied state (VBM) at     -7.78210458 eV
  | Occupation number:      2.00000000

  Lowest unoccupied state (CBM) at    -0.60488540 eV
  | Occupation number:      0.00000000

  Overall HOMO-LUMO gap:      7.17721918 eV.

  Total energy components:
  | Sum of eigenvalues            :        -265.10198407 Ha       -7213.79202018 eV
  | XC energy correction          :         -28.36860955 Ha        -771.94914215 eV
  | XC potential correction       :          36.67830858 Ha         998.06755762 eV
  | Free-atom electrostatic energy:        -202.87673360 Ha       -5520.55680418 eV
  | Hartree energy correction     :          -0.97227683 Ha         -26.45699862 eV
  | Entropy correction            :           0.00000000 Ha           0.00000000 eV
  | ---------------------------
  | Total energy                  :        -460.64631984 Ha      -12534.82412762 eV
  | Total energy, T -> 0          :        -460.64631984 Ha      -12534.82412762 eV  <-- do not rely on this value for anything but (periodic) metals
  | Electronic free energy        :        -460.64631984 Ha      -12534.82412762 eV

  Derived energy quantities:
  | Kinetic energy                :         459.91692598 Ha       12515.11303088 eV
  | Electrostatic energy          :        -892.19463626 Ha      -24277.85129624 eV
  | Energy correction for multipole
  | error in Hartree potential    :          -0.00286513 Ha          -0.07796426 eV
  | Sum of eigenvalues per atom                           :       -3606.89601009 eV
  | Total energy (T->0) per atom                          :       -6267.41206381 eV  <-- do not rely on this value for anything but (periodic) metals
  | Electronic free energy per atom                       :       -6267.41206381 eV

  MPBE Solvation Additional Free Energies:
  | Free Energy in Electrolyte          :        -460.64264333 Ha      -12534.72408466 eV
  | Surface Area of Cavity            :         263.95236260 a.u.
  | Volume of Cavity             :         403.53276169 a.u.
  | Nonelectrostatic Free Energy             :           0.00367651 Ha
  | Additional Nonelstatic LPBE Solvation Energy:          0.00000000 Ha

  atomic forces [eV/Ang]:
  -----------------------
  atom #    1
   Hellmann-Feynman              : -0.267623E-12 -0.380714E-11  0.242328E+02
   Ionic forces                  :  0.000000E+00  0.000000E+00  0.000000E+00
   Multipole                     :  0.870633E-12 -0.696843E-12  0.557465E+00
   Pulay + GGA + MPB, Gnonmf     : -0.135101E-11 -0.115244E-11 -0.268723E+02
   ----------------------------------------------------------------
   Total forces(   1)            : -0.747998E-12 -0.565642E-11 -0.208196E+01
  atom #    2
   Hellmann-Feynman              :  0.133428E-13  0.188743E-13  0.203915E+01
   Ionic forces                  :  0.000000E+00  0.000000E+00  0.000000E+00
   Multipole                     : -0.860670E-15  0.216056E-14  0.648578E-03
   Pulay + GGA + MPB, Gnonmf     : -0.525929E-13 -0.688184E-13  0.453711E-01
   ----------------------------------------------------------------
   Total forces(   2)            : -0.401108E-13 -0.477836E-13  0.208516E+01


  Self-consistency convergence accuracy:
  | Change of charge density      :  0.2630E-09
  | Change of sum of eigenvalues  : -0.7939E-07 eV
  | Change of total energy        : -0.2475E-10 eV
  | Change of forces              :  0.1759E+02 eV/A

  Writing Kohn-Sham eigenvalues.

  State    Occupation    Eigenvalue [Ha]    Eigenvalue [eV]
      1       2.00000        -100.664069        -2739.20868
      2       2.00000          -9.178122         -249.74940
      3       2.00000          -7.000942         -190.50533
      4       2.00000          -6.991537         -190.24940
      5       2.00000          -6.991537         -190.24940
      6       2.00000          -0.750041          -20.40965
      7       2.00000          -0.402770          -10.95994
      8       2.00000          -0.285987           -7.78210
      9       2.00000          -0.285987           -7.78210
     10       0.00000          -0.022229           -0.60489
     11       0.00000           0.048799            1.32788
     12       0.00000           0.172637            4.69770
     13       0.00000           0.172637            4.69770
     14       0.00000           0.197616            5.37740

  Highest occupied state (VBM) at     -7.78210458 eV
  | Occupation number:      2.00000000

  Lowest unoccupied state (CBM) at    -0.60488540 eV
  | Occupation number:      0.00000000

  Overall HOMO-LUMO gap:      7.17721918 eV.

  Self-consistency cycle converged.

  End self-consistency iteration #    16       :  max(cpu_time)    wall_clock(cpu1)
  | Time for this iteration                    :        0.321 s           0.350 s
  | Charge density & force component update    :        0.042 s           0.071 s
  | Density mixing                             :        0.002 s           0.002 s
  | Hartree multipole update                   :        0.002 s           0.001 s
  | Hartree multipole summation                :        0.258 s           0.259 s
  | Integration                                :        0.015 s           0.015 s
  | Solution of K.-S. eqns.                    :        0.001 s           0.001 s
  | Total energy evaluation                    :        0.000 s           0.000 s

  Partial memory accounting:
  | Current value for overall tracked memory usage:
  |   Minimum:        0.023 MB (on task 7)
  |   Maximum:        0.030 MB (on task 0)
  |   Average:        0.027 MB
  | Peak value for overall tracked memory usage:
  |   Minimum:        0.635 MB (on task 7 after allocating hessian_basis_wave)
  |   Maximum:        0.642 MB (on task 0 after allocating hessian_basis_wave)
  |   Average:        0.639 MB
  | Largest tracked array allocation so far:
  |   Minimum:        0.334 MB (hessian_basis_wave on task 0)
  |   Maximum:        0.334 MB (hessian_basis_wave on task 0)
  |   Average:        0.334 MB
  Note:  These values currently only include a subset of arrays which are explicitly tracked.
  The "true" memory usage will be greater.
------------------------------------------------------------
  Removing unitary transformations (pure translations, rotations) from forces on atoms.
  Atomic forces before filtering:
  | Net force on center of mass :  -0.788109E-12 -0.570421E-11  0.320167E-02 eV/A
  | Net torque on center of mass:   0.389372E-11 -0.491441E-12  0.000000E+00 eV
  Atomic forces after filtering:
  | Net force on center of mass :  -0.243389E-27 -0.129808E-26 -0.356812E-15 eV/A
  | Net torque on center of mass:   0.901171E-27 -0.563232E-28  0.000000E+00 eV

  Energy and forces in a compact form:
  | Total energy uncorrected      :         -0.125348241276240E+05 eV
  | Total energy corrected        :         -0.125348241276240E+05 eV  <-- do not rely on this value for anything but (periodic) metals
  | Electronic free energy        :         -0.125348241276240E+05 eV
  Total atomic forces (unitary forces cleaned) [eV/Ang]:
  |    1         -0.162259424656531E-27         -0.129807539725224E-26         -0.208356396992276E+01
  |    2         -0.811297123282653E-28          0.000000000000000E+00          0.208356396992276E+01

  ------------------------------------ 
  Start decomposition of the XC Energy 
  ------------------------------------ 
  X and C from original XC functional choice 
  Hartree-Fock Energy :          0.000000000 Ha              0.000000000 eV
  X Energy            :        -27.683273162 Ha           -753.300190236 eV
  C Energy            :         -0.685336386 Ha            -18.648951915 eV
  Total XC Energy     :        -28.368609548 Ha           -771.949142152 eV
  ------------------------------------ 
  LDA X and C from self-consistent density 
  X Energy LDA        :        -25.677762514 Ha           -698.727468877 eV
  C Energy LDA        :         -1.378052662 Ha            -37.498720834 eV
  ------------------------------------ 
  End decomposition of the XC Energy 
  ------------------------------------ 

------------------------------------------------------------
  |------------------------------------------------------
  | Final ELSI Output
  |------------------------------------------------------
  |
  | Physical Properties
  |   Number of electrons       :        0.18000000E+02
  |   Number of spins           :                     1
  |   Number of k-points        :                     1
  |   Number of states          :                    14
  |
  | Matrix Properties
  |   Matrix format             :           BLACS_DENSE
  |   Number of basis functions :                    54
  |   Matrix sparsity           :        0.75994513E+00
  |
  | Computational Details
  |   Parallel mode             :            MULTI_PROC
  |   Number of MPI tasks       :                     8
  |   Solver requested          :                  ELPA
  |   Number of ELSI calls      :                    17
  |
  |------------------------------------------------------
  | ELSI Project (c)  elsi-interchange.org
  |------------------------------------------------------

------------------------------------------------------------------------------
  Final output of selected total energy values:

  The following output summarizes some interesting total energy values
  at the end of a run (AFTER all relaxation, molecular dynamics, etc.).

  | Total energy of the DFT / Hartree-Fock s.c.f. calculation      :         -12534.824127624 eV
  | Final zero-broadening corrected energy (caution - metals only) :         -12534.824127624 eV
  | For reference only, the value of 1 Hartree used in FHI-aims is :             27.211384500 eV

  Before relying on these values, please be sure to understand exactly which
  total energy value is referred to by a given number. Different objects may
  all carry the same name 'total energy'. Definitions:

  Total energy of the DFT / Hartree-Fock s.c.f. calculation:
  | Note that this energy does not include ANY quantities calculated after the
  | s.c.f. cycle, in particular not ANY RPA, MP2, etc. many-body perturbation terms.

  Final zero-broadening corrected energy:
  | For metallic systems only, a broadening of the occupation numbers at the Fermi
  | level can be extrapolated back to zero broadening by an electron-gas inspired
  | formula. For all systems that are not real metals, this value can be
  | meaningless and should be avoided.

------------------------------------------------------------------------------
  Methods described in the following list of references were used in this FHI-aims run.
  If you publish the results, please make sure to cite these reference if they apply.
  FHI-aims is an academic code, and for our developers (often, Ph.D. students
  and postdocs), scientific credit in the community is essential.
  Thank you for helping us!

  For any use of FHI-aims, please cite:

    Volker Blum, Ralf Gehrke, Felix Hanke, Paula Havu, Ville Havu,
    Xinguo Ren, Karsten Reuter, and Matthias Scheffler
    'Ab initio molecular simulations with numeric atom-centered orbitals'
    Computer Physics Communications 180, 2175-2196 (2009)
    http://dx.doi.org/10.1016/j.cpc.2009.06.022


  For the SMPB implicit solvation architecture used in your run, please cite:

    S. Ringe, H. Oberhofer, C. Hille, S. Matera, K. Reuter,
    'Function-Space-Based Solution Scheme for the Size-Modified '
    'Poisson-Boltzmann Equation in Full-Potential DFT'
    Journal of Chemical Theory and Computation 12, 4052-4066 (2016).
    http://dx.doi.org/10.1021/acs.jctc.6b00435

  For the SMPB ionic parameters used in your run, please cite:
    S. Ringe, H. Oberhofer, K. Reuter,
    'Transferable ionic parameters for first-principles Poisson-Boltzmann'
    'solvation calculations: Neutral solutes in aqueous monovalent'
    'salt solutions'
    Journal of Chemical Physics 146, 134103 (2017).


  The ELSI infrastructure was used in your run to solve the Kohn-Sham electronic structure.
  Please check out http://elsi-interchange.org to learn more.
  If scalability is important for your project, please acknowledge ELSI by citing:

    V. W-z. Yu, F. Corsetti, A. Garcia, W. P. Huhn, M. Jacquelin, W. Jia,
    B. Lange, L. Lin, J. Lu, W. Mi, A. Seifitokaldani, A. Vazquez-Mayagoitia,
    C. Yang, H. Yang, and V. Blum
    'ELSI: A unified software interface for Kohn-Sham electronic structure solvers'
    Computer Physics Communications 222, 267-285 (2018).
    http://dx.doi.org/10.1016/j.cpc.2017.09.007


  For the real-space grid partitioning and parallelization used in this calculation, please cite:

    Ville Havu, Volker Blum, Paula Havu, and Matthias Scheffler,
    'Efficient O(N) integration for all-electron electronic structure calculation'
    'using numerically tabulated basis functions'
    Journal of Computational Physics 228, 8367-8379 (2009).
    http://dx.doi.org/10.1016/j.jcp.2009.08.008

  Of course, there are many other important community references, e.g., those cited in the
  above references. Our list is limited to references that describe implementations in the
  FHI-aims code. The reason is purely practical (length of this list) - please credit others as well.

------------------------------------------------------------
          Leaving FHI-aims.
          Date     :  20190817, Time     :  153820.385

          Computational steps:
          | Number of self-consistency cycles          :           16
          | Number of SCF (re)initializations          :            1

          Detailed time accounting                     :  max(cpu_time)    wall_clock(cpu1)
          | Total time                                 :       13.520 s          13.618 s
          | Preparation time                           :        0.185 s           0.185 s
          | Boundary condition initalization           :        0.000 s           0.000 s
          | Grid partitioning                          :        0.012 s           0.016 s
          | Preloading free-atom quantities on grid    :        0.015 s           0.022 s
          | Free-atom superposition energy             :        0.004 s           0.003 s
          | Total time for integrations                :        0.278 s           0.282 s
          | Total time for solution of K.-S. equations :        0.068 s           0.071 s
          | Total time for density & force components  :        0.201 s           0.228 s
          | Total time for mixing                      :        0.025 s           0.026 s
          | Total time for Hartree multipole update    :        0.030 s           0.030 s
          | Total time for Hartree multipole sum       :       12.634 s          12.649 s
          | Total time for total energy evaluation     :        0.003 s           0.004 s

          Partial memory accounting:
          | Residual value for overall tracked memory usage across tasks:     0.000000 MB (should be 0.000000 MB)
          | Peak values for overall tracked memory usage:
          |   Minimum:        0.635 MB (on task 7 after allocating hessian_basis_wave)
          |   Maximum:        0.642 MB (on task 0 after allocating hessian_basis_wave)
          |   Average:        0.639 MB
          | Largest tracked array allocation:
          |   Minimum:        0.334 MB (hessian_basis_wave on task 0)
          |   Maximum:        0.334 MB (hessian_basis_wave on task 0)
          |   Average:        0.334 MB
          Note:  These values currently only include a subset of arrays which are explicitly tracked.
          The "true" memory usage will be greater.

          Have a nice day.
------------------------------------------------------------
