  MPI-parallelism will be employed.
------------------------------------------------------------
          Invoking FHI-aims ...
          Version 180101-
          Git rev. (modified): fa29f3a Merge branch master of fhiaims.rzberlin.mp[...]
          Compiled on 2018/01/19 at 14:47:46 on host theobook132.

          When using FHI-aims, please cite the following reference:

          Volker Blum, Ralf Gehrke, Felix Hanke, Paula Havu,
          Ville Havu, Xinguo Ren, Karsten Reuter, and Matthias Scheffler,
          'Ab Initio Molecular Simulations with Numeric Atom-Centered Orbitals',
          Computer Physics Communications 180, 2175-2196 (2009)

          For any questions about FHI-aims, please visit the aimsclub website
          with its forums and wiki. Contributions to both the forums and the
          wiki are warmly encouraged - they are for you, and everyone is welcome there.

------------------------------------------------------------



  Date     :  20180215, Time     :  214525.082
  Time zero on CPU 1             :   0.640000000000000E-01  s.
  Internal wall clock time zero  :           287963125.082  s.

  FHI-aims created a unique identifier for this run for later identification
  aims_uuid : 31033568-E296-4FBE-ADC7-D868F21C9DCE

  Using        8 parallel tasks.
  Task        0 on host theobook132 reporting.
  Task        1 on host theobook132 reporting.
  Task        2 on host theobook132 reporting.
  Task        3 on host theobook132 reporting.
  Task        4 on host theobook132 reporting.
  Task        5 on host theobook132 reporting.
  Task        6 on host theobook132 reporting.
  Task        7 on host theobook132 reporting.

  Performing system and environment tests:
  *** Environment variable OMP_NUM_THREADS is not set
  *** For performance reasons you might want to set it to 1
  | Stacksize not measured: no C compiler
  | Checking for scalapack...
  | No scalapack compiled in.

  Obtaining array dimensions for all initial allocations:
  
  -----------------------------------------------------------------------
  Parsing control.in (first pass over file, find array dimensions only).
  The contents of control.in will be repeated verbatim below
  unless switched off by setting 'verbatim_writeout .false.' .
  in the first line of control.in .
  -----------------------------------------------------------------------
  
  ################################################################################
  #
  #		Control.in generated by mkcontrol
  #
  ################################################################################
  xc			pbe
  vdw_correction_hirshfeld
  relativistic		none
  sc_accuracy_rho		1E-5
  sc_accuracy_eev		1E-3
  sc_accuracy_etot	1E-6
  sc_iter_limit		1000	
  
  compute_forces .true.
  final_forces_cleaned .true.
  
  ################################################################################
  #
  #  FHI-aims code project
  #  VB, Fritz-Haber Institut, 2009
  #
  #  Suggested "light" defaults for H atom (to be pasted into control.in file)
  #  Be sure to double-check any results obtained with these settings for post-processing,
  #  e.g., with the "tight" defaults and larger basis sets.
  #
  ################################################################################
    species        H
  #     global species definitions
      nucleus             1
      mass                1.00794
  #
      l_hartree           4
  #
      cut_pot             3.5  1.5  1.0
      basis_dep_cutoff    1e-4
  #
      radial_base         24 5.0
      radial_multiplier   1
      angular_grids       specified
        division   0.2421   50
        division   0.3822  110
        division   0.4799  194
        division   0.5341  302
  #      division   0.5626  434
  #      division   0.5922  590
  #      division   0.6542  770
  #      division   0.6868 1202
  #      outer_grid  770
        outer_grid  302
  ################################################################################
  #
  #  Definition of "minimal" basis
  #
  ################################################################################
  #     valence basis states
      valence      1  s   1.
  #     ion occupancy
      ion_occ      1  s   0.5
  ################################################################################
  #
  #  Suggested additional basis functions. For production calculations,
  #  uncomment them one after another (the most important basis functions are
  #  listed first).
  #
  #  Basis constructed for dimers: 0.5 A, 0.7 A, 1.0 A, 1.5 A, 2.5 A
  #
  ################################################################################
  #  "First tier" - improvements: -1014.90 meV to -62.69 meV
       hydro 2 s 2.1
       hydro 2 p 3.5
  #  "Second tier" - improvements: -12.89 meV to -1.83 meV
  #     hydro 1 s 0.85
  #     hydro 2 p 3.7
  #     hydro 2 s 1.2
  #     hydro 3 d 7
  #  "Third tier" - improvements: -0.25 meV to -0.12 meV
  #     hydro 4 f 11.2
  #     hydro 3 p 4.8
  #     hydro 4 d 9
  #     hydro 3 s 3.2
  
  ################################################################################
  #
  #  FHI-aims code project
  #  VB, Fritz-Haber Institut, 2009
  #
  #  Suggested "light" defaults for C atom (to be pasted into control.in file)
  #  Be sure to double-check any results obtained with these settings forpost-processing,
  #  e.g., with the "tight" defaults and larger basis sets.
  #
  ################################################################################
    species        C
  #     global species definitions
      nucleus             6
      mass                12.0107
  #
      l_hartree           4
  #
      cut_pot             3.5  1.5  1.0
      basis_dep_cutoff    1e-4
  #
      radial_base         34 5.0
      radial_multiplier   1
      angular_grids specified
        division   0.3326   50
        division   0.5710  110
        division   0.7727  194
        division   0.8772  302
  #      division   0.9334  434
  #      division   0.9625  590
  #      division   0.9924  770
  #      division   1.0230  974
  #      division   1.4589 1202
  #     outer_grid  974
       outer_grid 302
  ################################################################################
  #
  #  Definition of "minimal" basis
  #
  ################################################################################
  #     valence basis states
      valence      2  s   2.
      valence      2  p   2.
  #     ion occupancy
      ion_occ      2  s   1.
      ion_occ      2  p   1.
  ################################################################################
  #
  #  Suggested additional basis functions. For production calculations,
  #  uncomment them one after another (the most important basis functions are
  #  listed first).
  #
  #  Constructed for dimers: 1.0 A, 1.25 A, 1.5 A, 2.0 A, 3.0 A
  #
  ################################################################################
  #  "First tier" - improvements: -1214.57 meV to -155.61 meV
       hydro 2 p 1.7
       hydro 3 d 6
       hydro 2 s 4.9
  #  "Second tier" - improvements: -67.75 meV to -5.23 meV
  #     hydro 4 f 9.8
  #     hydro 3 p 5.2
  #     hydro 3 s 4.3
  #     hydro 5 g 14.4
  #     hydro 3 d 6.2
  #  "Third tier" - improvements: -2.43 meV to -0.60 meV
  #     hydro 2 p 5.6
  #     hydro 2 s 1.4
  #     hydro 3 d 4.9
  #     hydro 4 f 11.2
  #  "Fourth tier" - improvements: -0.39 meV to -0.18 meV
  #     hydro 2 p 2.1
  #     hydro 5 g 16.4
  #     hydro 4 d 13.2
  #     hydro 3 s 13.6
  #     hydro 4 f 17.6
  #  Further basis functions - improvements: -0.08 meV and below
  #     hydro 3 s 2
  #     hydro 3 p 6
  #     hydro 4 d 20
  
  -----------------------------------------------------------------------
  Completed first pass over input file control.in .
  -----------------------------------------------------------------------
  
  
  -----------------------------------------------------------------------
  Parsing geometry.in (first pass over file, find array dimensions only).
  The contents of geometry.in will be repeated verbatim below
  unless switched off by setting 'verbatim_writeout .false.' .
  in the first line of geometry.in .
  -----------------------------------------------------------------------
  
  #=======================================#
  # iterations/iteration0037/aims-chain-node-0.87185/geometry.in
  #=======================================#
  atom -0.5282157538710456 -1.5002635290851511 -0.4035867659997168 C
  atom -0.2227989786263183 -0.6336820718413684 0.7822891431949395 C
  atom 0.2227989786517912 0.6336820718042223 0.7822891432182468 C
  atom 0.5282157538640999 1.5002635291027784 -0.4035867659451285 C
  atom -0.3663313739887712 -0.9906685493710324 -1.3621202649888067 H
  atom -1.5753618397350864 -1.8424627463590755 -0.3781095258388151 H
  atom 0.0959931132775240 -2.4084751808503468 -0.3963575387057140 H
  atom -0.3874946575697357 -1.1038995123789008 1.7578849521836413 H
  atom 0.3874946576108810 1.1038995122999029 1.7578849522244293 H
  atom 0.3663313740767897 0.9906685493900196 -1.3621202649512074 H
  atom -0.0959931133808311 2.4084751808031748 -0.3963575386636841 H
  atom 1.5753618396906843 1.8424627464857797 -0.3781095257281926 H
  
  -----------------------------------------------------------------------
  Completed first pass over input file geometry.in .
  -----------------------------------------------------------------------
  

  Basic array size parameters:
  | Number of species                 :        2
  | Number of atoms                   :       12
  | Max. basis fn. angular momentum   :        2
  | Max. atomic/ionic basis occupied n:        2
  | Max. number of basis fn. types    :        2
  | Max. radial fns per species/type  :        3
  | Max. logarithmic grid size        :     1277
  | Max. radial integration grid size :       34
  | Max. angular integration grid size:      302
  | Max. angular grid division number :        8
  | Radial grid for Hartree potential :     1277
  | Number of spin channels           :        1

------------------------------------------------------------
          Reading file control.in.
------------------------------------------------------------
  XC: Using PBE gradient-corrected functionals.
  Non-relativistic treatment of kinetic energy.
  Convergence accuracy of self-consistent charge density:  0.1000E-04
  Convergence accuracy of sum of eigenvalues:  0.1000E-02
  Convergence accuracy of total energy:  0.1000E-05
  Maximum number of s.-c. iterations  :  1000
  Forces will be computed.
  Cleaning forces before final output.
 
  Reading configuration options for species H                   .
  | Found nuclear charge :   1.0000
  | Found atomic mass :    1.00794000000000      amu
  | Found l_max for Hartree potential  :   4
  | Found cutoff potl. onset [A], width [A], scale factor :    3.50000    1.50000    1.00000
  | Threshold for basis-dependent cutoff potential is   0.100000E-03
  | Found data for basic radial integration grid :    24 points, outermost radius =    5.000 A
  | Found multiplier for basic radial grid :   1
  | Found angular grid specification: user-specified.
  | Specified grid contains     5 separate shells.
  | Check grid settings after all constraints further below.
  | Found free-atom valence shell :  1 s   1.000
  | No ionic wave fns used. Skipping ion_occ.
  | Found hydrogenic basis function :  2 s   2.100
  | Found hydrogenic basis function :  2 p   3.500
  Species H                   : Missing cutoff potential type.
  Defaulting to exp(1/x)/(1-x)^2 type cutoff potential.
  Species H : No 'logarithmic' tag. Using default grid for free atom:
  | Default logarithmic grid data [bohr] : 0.1000E-03 0.1000E+03 0.1012E+01
  Species H : On-site basis accuracy parameter (for Gram-Schmidt orthonormalisation) not specified.
  Using default value basis_acc =  0.1000000E-03.
  Species H                   : Using default innermost maximum threshold i_radial=  2 for radial functions.
  Species H                   : Default cutoff onset for free atom density etc. : 0.35000000E+01 AA.
  Species H                   : Basic radial grid will be enhanced according to radial_multiplier =   1, to contain    24 grid points.
 
  Reading configuration options for species C                   .
  | Found nuclear charge :   6.0000
  | Found atomic mass :    12.0107000000000      amu
  | Found l_max for Hartree potential  :   4
  | Found cutoff potl. onset [A], width [A], scale factor :    3.50000    1.50000    1.00000
  | Threshold for basis-dependent cutoff potential is   0.100000E-03
  | Found data for basic radial integration grid :    34 points, outermost radius =    5.000 A
  | Found multiplier for basic radial grid :   1
  | Found angular grid specification: user-specified.
  | Specified grid contains     5 separate shells.
  | Check grid settings after all constraints further below.
  | Found free-atom valence shell :  2 s   2.000
  | Found free-atom valence shell :  2 p   2.000
  | No ionic wave fns used. Skipping ion_occ.
  | No ionic wave fns used. Skipping ion_occ.
  | Found hydrogenic basis function :  2 p   1.700
  | Found hydrogenic basis function :  3 d   6.000
  | Found hydrogenic basis function :  2 s   4.900
  Species C                   : Missing cutoff potential type.
  Defaulting to exp(1/x)/(1-x)^2 type cutoff potential.
  Species C : No 'logarithmic' tag. Using default grid for free atom:
  | Default logarithmic grid data [bohr] : 0.1000E-03 0.1000E+03 0.1012E+01
  Species C : On-site basis accuracy parameter (for Gram-Schmidt orthonormalisation) not specified.
  Using default value basis_acc =  0.1000000E-03.
  Species C                   : Using default innermost maximum threshold i_radial=  2 for radial functions.
  Species C                   : Default cutoff onset for free atom density etc. : 0.35000000E+01 AA.
  Species C                   : Basic radial grid will be enhanced according to radial_multiplier =   1, to contain    34 grid points.
 
  Finished reading input file 'control.in'. Consistency checks are next.
 
  MPI_IN_PLACE appears to work with this MPI implementation.
  | Keeping use_mpi_in_place .true. (see manual).
  Target number of points in a grid batch is not set. Defaulting to  100
  Method for grid partitioning is not set. Defaulting to parallel hash+maxmin partitioning.
  Batch size limit is not set. Defaulting to    200
  By default, will store active basis functions for each batch.
  If in need of memory, prune_basis_once .false. can be used to disable this option.
  communication_type for Hartree potential was not specified.
  Defaulting to calc_hartree .
  Defaulting to Pulay charge density mixer.
  Pulay mixer: Number of relevant iterations not set.
  Defaulting to    8 iterations.
  Pulay mixer: Number of initial linear mixing iterations not set.
  Defaulting to    0 iterations.
  Work space size for distributed Hartree potential not set.
  Defaulting to   0.200000E+03 MB.
  Mixing parameter for charge density mixing has not been set.
  Using default: charge_mix_param =     0.0500.
  The mixing parameter will be adjusted in iteration number     2 of the first full s.c.f. cycle only.
  Algorithm-dependent basis array size parameters:
  | n_max_pulay                         :        8
  Presetting        40 iterations before the initial mixing cycle
  is restarted anyway using the sc_init_iter criterion / keyword.
  Presetting a factor      1.000 between actual scf density residual
  and density convergence criterion sc_accuracy_rho below which sc_init_iter
  takes no effect.
  Geometry relaxation not requested: no relaxation will be performed.
  Force calculation: scf convergence accuracy of forces not set.
  Defaulting to 'sc_accuracy_forces not_checked'.
  Handling of forces: Unphysical translation and rotation will be removed from forces.
  No accuracy limit for integral partition fn. given. Defaulting to  0.1000E-14.
  No threshold value for u(r) in integrations given. Defaulting to  0.1000E-05.
  No occupation type (smearing scheme) given. Defaulting to Gaussian broadening, width =  0.1000E-01 eV.
  The width will be adjusted in iteration number     2 of the first full s.c.f. cycle only.
  S.C.F. convergence parameters will be adjusted in iteration number     2 of the first full s.c.f. cycle only.
  No accuracy for occupation numbers given. Defaulting to  0.1000E-12.
  No threshold value for occupation numbers given. Defaulting to  0.0000E+00.
  No accuracy for fermi level given. Defaulting to  0.1000E-19.
  Maximum # of iterations to find E_F not set. Defaulting to  200.
  Preferred method for the eigenvalue solver ('KS_method') not specified in 'control.in'.
  Calling BLACS routine to test compilation state
  The best choice would be 'elsi', but your version of FHI-aims is compiled without ScaLAPACK support.
  Defaulting to 'lapack_fast' instead (serial solution, time will not improve with more CPUs).
  Will not use alltoall communication since running on < 1024 CPUs.
  Threshold for basis singularities not set.
  Default threshold for basis singularities:  0.1000E-04
  partition_type (choice of integration weights) for integrals was not specified.
  | Using a version of the partition function of Stratmann and coworkers ('stratmann_smoother').
  | At each grid point, the set of atoms used to build the partition table is smoothly restricted to
  | only those atoms whose free-atom density would be non-zero at that grid point.
  Partitioning for Hartree potential was not defined. Using partition_type for integrals.
  | Adjusted default value of keyword multip_moments_threshold to:       0.10000000E-11
  | This value may affect high angular momentum components of the Hartree potential in periodic systems.
  Spin handling was not defined in control.in. Defaulting to unpolarized case.
  No q(lm)/r^(l+1) cutoff set for long-range Hartree potential.
  | Using default value of  0.100000E-09 .
  | Verify using the multipole_threshold keyword.
  Defaulting to new monopole extrapolation.
  Density update method: automatic selection selected.
------------------------------------------------------------


------------------------------------------------------------
          Reading geometry description geometry.in.
------------------------------------------------------------
  Input structure read successfully.
  The structure contains       12 atoms,  and a total of         32.000 electrons.

  Input geometry:
  | No unit cell requested.
  | Atomic structure:
  |       Atom                x [A]            y [A]            z [A]
  |    1: Species C            -0.52821575       -1.50026353       -0.40358677
  |    2: Species C            -0.22279898       -0.63368207        0.78228914
  |    3: Species C             0.22279898        0.63368207        0.78228914
  |    4: Species C             0.52821575        1.50026353       -0.40358677
  |    5: Species H            -0.36633137       -0.99066855       -1.36212026
  |    6: Species H            -1.57536184       -1.84246275       -0.37810953
  |    7: Species H             0.09599311       -2.40847518       -0.39635754
  |    8: Species H            -0.38749466       -1.10389951        1.75788495
  |    9: Species H             0.38749466        1.10389951        1.75788495
  |   10: Species H             0.36633137        0.99066855       -1.36212026
  |   11: Species H            -0.09599311        2.40847518       -0.39635754
  |   12: Species H             1.57536184        1.84246275       -0.37810953
  |

  | The smallest distance between any two atoms is         1.09545255 AA.
  |
  | The first atom of this pair is atom number                      3 .
  | The second atom of this pair is atom number                     9 .

  Number of empty states per atom not set in control.in - providing a guess from actual geometry.
  | Total number of empty states used during s.c.f. cycle:       24
  If you use a very high smearing, use empty_states (per atom!) in control.in to increase this value.

  Structure-dependent array size parameters: 
  | Maximum number of distinct radial functions  :        9
  | Maximum number of basis functions            :       96
  | Number of Kohn-Sham states (occupied + empty):       40
------------------------------------------------------------

------------------------------------------------------------
          Preparing all fixed parts of the calculation.
------------------------------------------------------------
  Determining machine precision:
    2.225073858507201E-308
  Setting up grids for atomic and cluster calculations.

  Creating wave function, potential, and density for free atoms.

  Species: H

  List of occupied orbitals and eigenvalues:
    n    l              occ      energy [Ha]    energy [eV]
    1    0           1.0000        -0.237589        -6.4651


  Species: C

  List of occupied orbitals and eigenvalues:
    n    l              occ      energy [Ha]    energy [eV]
    1    0           2.0000       -10.038835      -273.1706
    2    0           2.0000        -0.502696       -13.6791
    2    1           2.0000        -0.191971        -5.2238

  Creating fixed part of basis set: Ionic, confined, hydrogenic.
 
  H                    hydrogenic:
 
  List of hydrogenic basis orbitals: 
    n    l      effective z      eigenvalue [eV]  inner max. [A]     outer max. [A]     outer radius [A]   
    2    0         2.100000       -14.9728           0.193243           1.317208           4.583499
    2    1         3.500000       -41.6669           0.602369           0.602369           3.723403
 
 
  C                    hydrogenic:
 
  List of hydrogenic basis orbitals: 
    n    l      effective z      eigenvalue [eV]  inner max. [A]     outer max. [A]     outer radius [A]   
    2    1         1.700000        -9.7616           1.230570           1.230570           4.607917
    3    2         6.000000       -54.4224           0.792453           0.792453           3.883070
    2    0         4.900000       -81.6679           0.082559           0.562749           3.078220
 

  Adding cutoff potential to free-atom effective potential.
  Creating atomic-like basis functions for current effective potential.

  Species H                   :

  List of atomic basis orbitals and eigenvalues:
    n    l      energy [Ha]    energy [eV]    outer radius [A]
    1    0        -0.237589        -6.4651       4.527807


  Species C                   :

  List of atomic basis orbitals and eigenvalues:
    n    l      energy [Ha]    energy [eV]    outer radius [A]
    1    0       -10.038835      -273.1706       1.934409
    2    0        -0.502696       -13.6791       4.496620
    2    1        -0.191971        -5.2238       4.551928

  Assembling full basis from fixed parts.
  | Species H :   atomic orbital   1 s accepted.
  | Species H :    hydro orbital   2 s accepted.
  | Species H :    hydro orbital   2 p accepted.
  | Species C :   atomic orbital   1 s accepted.
  | Species C :    hydro orbital   2 s accepted.
  | Species C :   atomic orbital   2 s accepted.
  | Species C :   atomic orbital   2 p accepted.
  | Species C :    hydro orbital   2 p accepted.
  | Species C :    hydro orbital   3 d accepted.
 
  Basis size parameters after reduction:
  | Total number of radial functions:        9
  | Total number of basis functions :       96
 
  Per-task memory consumption for arrays in subroutine allocate_ext:
  |           2.209696MB.
  Testing on-site integration grid accuracy.
  |  Species  Function  <phi|h_atom|phi> (log., in eV)  <phi|h_atom|phi> (rad., in eV)
           1        1                 -6.4663192853                 -6.4651273558
           1        2                 13.7111246313                 13.7170609718
           1        3                 25.2673269279                 25.2674696378
           2        4               -273.1705927641               -273.1705631568
           2        5                -10.7109323383                -10.7107120029
           2        6                 17.4381822266                 17.4352413244
           2        7                 -5.2255326521                 -5.2270484734
           2        8                  8.6835629259                  8.6603288385
           2        9                 27.4952418996                 27.4953360207

  Preparing densities etc. for the partition functions (integrals / Hartree potential).

  Preparations completed.
  max(cpu_time)          :      0.128 s.
  Wall clock time (cpu1) :      0.134 s.
------------------------------------------------------------

------------------------------------------------------------
          Begin self-consistency loop: Initialization.

          Date     :  20180215, Time     :  214525.225
------------------------------------------------------------

  Initializing index lists of integration centers etc. from given atomic structure:
  | Number of centers in hartree potential         :        12
  | Number of centers in hartree multipole         :        12
  | Number of centers in electron density summation:        12
  | Number of centers in basis integrals           :        12
  | Number of centers in integrals                 :        12
  | Number of centers in hamiltonian               :        12
  Partitioning the integration grid into batches with parallel hashing+maxmin method.
  | Number of batches:      734
  | Maximal batch size:     192
  | Minimal batch size:      62
  | Average batch size:      83.030
  | Standard deviation of batch sizes:      18.808

  Integration load balanced across     8 MPI tasks.
  Work distribution over tasks is as follows:
  Task     0 has       7650 integration points.
  Task     1 has       7598 integration points.
  Task     2 has       7598 integration points.
  Task     3 has       7621 integration points.
  Task     4 has       7622 integration points.
  Task     5 has       7585 integration points.
  Task     6 has       7633 integration points.
  Task     7 has       7637 integration points.
  Initializing partition tables, free-atom densities, potentials, etc. across the integration grid (initialize_grid_storage).
  | initialize_grid_storage: Actual outermost partition radius vs. multipole_radius_free
  | (-- VB: in principle, multipole_radius_free should be larger, hence this output)
  | Species        1: Confinement radius =              4.999999999999999 AA, multipole_radius_free =              5.054417573612229 AA.
  | Species        1: outer_partition_radius set to              5.054417573612229 AA .
  | Species        2: Confinement radius =              4.999999999999999 AA, multipole_radius_free =              5.019602836301480 AA.
  | Species        2: outer_partition_radius set to              5.019602836301480 AA .
  | Original list of interatomic distances with          12 x         12 entries is created.
  | Net number of integration points:    60944
  | of which are non-zero points    :    52328
  Renormalizing the initial density to the exact electron count on the 3D integration grid.
  | Initial density: Formal number of electrons (from input files) :      32.0000000000
  | Integrated number of electrons on 3D grid     :      31.9999504040
  | Charge integration error                      :      -0.0000495960
  | Normalization factor for density and gradient :       1.0000015499
  Obtaining max. number of non-zero basis functions in each batch (get_n_compute_maxes).
  | Maximal number of non-zero basis functions:       96 in task     0
  | Maximal number of non-zero basis functions:       96 in task     1
  | Maximal number of non-zero basis functions:       96 in task     2
  | Maximal number of non-zero basis functions:       96 in task     3
  | Maximal number of non-zero basis functions:       96 in task     4
  | Maximal number of non-zero basis functions:       96 in task     5
  | Maximal number of non-zero basis functions:       96 in task     6
  | Maximal number of non-zero basis functions:       96 in task     7
  Selecting the method for density update.
  Loop over occupied states selected for charge density update.
  Allocating        0.031 MB for KS_eigenvector
  Integrating Hamiltonian matrix: batch-based integration.
  Time summed over all CPUs for integration: real work        1.475 s, elapsed        1.731 s
  Integrating overlap matrix.
  Time summed over all CPUs for integration: real work        0.544 s, elapsed        0.742 s

  Updating Kohn-Sham eigenvalues, eigenvectors, occupation numbers, and Fermi level.
  Solving generalized eigenproblem
  Updating Kohn-Sham eigenvalues and eigenfunctions.
  Transforming overlap matrix and checking for singularities.
  Overlap matrix is nonsingular:
  | Lowest eigenvalue:  0.299027E-02
  Solving real generalised eigenvalue problem by standard LAPACK (fast)

  Obtaining occupation numbers and chemical potential using ELSI.
  | Chemical potential (Fermi level):    -8.52775759eV
  Writing Kohn-Sham eigenvalues.

  State    Occupation    Eigenvalue [Ha]    Eigenvalue [eV]
      1       2.00000         -10.166757         -276.65153
      2       2.00000         -10.166757         -276.65153
      3       2.00000         -10.151225         -276.22890
      4       2.00000         -10.150588         -276.21155
      5       2.00000          -0.927359          -25.23471
      6       2.00000          -0.850870          -23.15334
      7       2.00000          -0.795376          -21.64329
      8       2.00000          -0.656404          -17.86167
      9       2.00000          -0.611691          -16.64495
     10       2.00000          -0.574124          -15.62270
     11       2.00000          -0.546967          -14.88372
     12       2.00000          -0.533589          -14.51970
     13       2.00000          -0.526054          -14.31467
     14       2.00000          -0.503400          -13.69821
     15       2.00000          -0.478758          -13.02768
     16       2.00000          -0.385651          -10.49411
     17       0.00000          -0.177013           -4.81676
     18       0.00000          -0.047729           -1.29877
     19       0.00000          -0.032804           -0.89264
     20       0.00000          -0.002723           -0.07409
     21       0.00000           0.003850            0.10476
     22       0.00000           0.015643            0.42568
     23       0.00000           0.026926            0.73269
     24       0.00000           0.030269            0.82365
     25       0.00000           0.033890            0.92219
     26       0.00000           0.058274            1.58571
     27       0.00000           0.132398            3.60272
     28       0.00000           0.164734            4.48264
     29       0.00000           0.188926            5.14093
     30       0.00000           0.204852            5.57432
     31       0.00000           0.238676            6.49469
     32       0.00000           0.279956            7.61799
     33       0.00000           0.280283            7.62689
     34       0.00000           0.299077            8.13829
     35       0.00000           0.302534            8.23238
     36       0.00000           0.315740            8.59171
     37       0.00000           0.404511           11.00731
     38       0.00000           0.445114           12.11217
     39       0.00000           0.508521           13.83757
     40       0.00000           0.521642           14.19460

  Highest occupied state (VBM) at    -10.49410870 eV
  | Occupation number:      2.00000000

  Lowest unoccupied state (CBM) at    -4.81676182 eV
  | Occupation number:      0.00000000

  Overall HOMO-LUMO gap:      5.67734689 eV.
  Calculating total energy contributions from superposition of free atom densities.

  Total energy components:
  | Sum of eigenvalues            :         -96.05114050 Ha       -2613.68451585 eV
  | XC energy correction          :         -23.66202589 Ha        -643.87648462 eV
  | XC potential correction       :          30.39623721 Ha         827.12369795 eV
  | Free-atom electrostatic energy:         -68.00926416 Ha       -1850.62623658 eV
  | Hartree energy correction     :           0.00000000 Ha           0.00000000 eV
  | vdW energy correction         :           0.00000000 Ha           0.00000000 eV
  | Entropy correction            :           0.00000000 Ha           0.00000000 eV
  | ---------------------------
  | Total energy                  :        -157.32619335 Ha       -4281.06353909 eV
  | Total energy, T -> 0          :        -157.32619335 Ha       -4281.06353909 eV  <-- do not rely on this value for anything but (periodic) metals
  | Electronic free energy        :        -157.32619335 Ha       -4281.06353909 eV

  Derived energy quantities:
  | Kinetic energy                :         154.19747526 Ha        4195.92678836 eV
  | Electrostatic energy          :        -287.86164272 Ha       -7833.11384283 eV
  | Energy correction for multipole
  | error in Hartree potential    :           0.00000000 Ha           0.00000000 eV
  | Sum of eigenvalues per atom                           :        -217.80704299 eV
  | Total energy (T->0) per atom                          :        -356.75529492 eV  <-- do not rely on this value for anything but (periodic) metals
  | Electronic free energy per atom                       :        -356.75529492 eV
  Initialize hartree_potential_storage
  Max. number of atoms included in rho_multipole:           12

  End scf initialization - timings             :  max(cpu_time)    wall_clock(cpu1)
  | Time for scf. initialization               :        0.508 s           0.509 s
  | Boundary condition initialization          :        0.000 s           0.000 s
  | Integration                                :        0.320 s           0.322 s
  | Solution of K.-S. eqns.                    :        0.012 s           0.013 s
  | Grid partitioning                          :        0.068 s           0.065 s
  | Preloading free-atom quantities on grid    :        0.004 s           0.003 s
  | Free-atom superposition energy             :        0.024 s           0.023 s
  | Total energy evaluation                    :        0.000 s           0.001 s

  Partial memory accounting:
  | Current value for overall tracked memory usage on task 0  :           0.179 MB
  | Peak value for overall tracked memory usage on task 0     :           0.624 MB after allocating wave
  | Largest tracked array allocation on task 0 so far         :           0.147 MB  when allocating H_times_psi
  Note:  These values currently only include a subset of arrays which are explicitly tracked.
  The "true" memory usage will be greater.
------------------------------------------------------------

------------------------------------------------------------
          Begin self-consistency iteration #    1

  Date     :  20180215, Time     :  214525.735
------------------------------------------------------------
  Evaluating new KS density.
  Integration grid: deviation in total charge (<rho> - N_e) =  -3.552714E-15
  Pulay mixing of updated and previous charge densities.

  Evaluating partitioned Hartree potential by multipole expansion.
  | Analytical far-field extrapolation by fixed multipoles:
  | Hartree multipole sum: apparent total charge =  -0.800473E-04
  Summing up the Hartree potential.
  Time summed over all CPUs for potential: real work        1.302 s, elapsed        1.441 s
  | RMS charge density error from multipole expansion :   0.135055E-02

  Integrating Hamiltonian matrix: batch-based integration.
  Time summed over all CPUs for integration: real work        1.498 s, elapsed        1.780 s

  Updating Kohn-Sham eigenvalues, eigenvectors, occupation numbers, and Fermi level.
  Solving generalized eigenproblem
  Updating Kohn-Sham eigenvalues and eigenfunctions.
  Solving real generalised eigenvalue problem by standard LAPACK (fast)

  Obtaining occupation numbers and chemical potential using ELSI.
  | Chemical potential (Fermi level):    -8.12641137eV
  Writing Kohn-Sham eigenvalues.

  State    Occupation    Eigenvalue [Ha]    Eigenvalue [eV]
      1       2.00000         -10.131965         -275.70479
      2       2.00000         -10.131965         -275.70479
      3       2.00000         -10.121808         -275.42840
      4       2.00000         -10.121170         -275.41104
      5       2.00000          -0.907081          -24.68293
      6       2.00000          -0.831934          -22.63806
      7       2.00000          -0.776124          -21.11942
      8       2.00000          -0.639430          -17.39979
      9       2.00000          -0.594741          -16.18374
     10       2.00000          -0.554087          -15.07747
     11       2.00000          -0.530475          -14.43495
     12       2.00000          -0.517222          -14.07432
     13       2.00000          -0.508596          -13.83960
     14       2.00000          -0.486805          -13.24664
     15       2.00000          -0.461640          -12.56188
     16       2.00000          -0.368558          -10.02897
     17       0.00000          -0.160512           -4.36776
     18       0.00000          -0.038807           -1.05600
     19       0.00000          -0.023500           -0.63946
     20       0.00000           0.005870            0.15972
     21       0.00000           0.020293            0.55220
     22       0.00000           0.025543            0.69507
     23       0.00000           0.038222            1.04007
     24       0.00000           0.040172            1.09313
     25       0.00000           0.044333            1.20636
     26       0.00000           0.069516            1.89163
     27       0.00000           0.145416            3.95697
     28       0.00000           0.174405            4.74580
     29       0.00000           0.201019            5.47000
     30       0.00000           0.215232            5.85677
     31       0.00000           0.252150            6.86136
     32       0.00000           0.290433            7.90309
     33       0.00000           0.291077            7.92060
     34       0.00000           0.309335            8.41743
     35       0.00000           0.319803            8.70228
     36       0.00000           0.325444            8.85580
     37       0.00000           0.416076           11.32199
     38       0.00000           0.457716           12.45507
     39       0.00000           0.519313           14.13122
     40       0.00000           0.534692           14.54972

  Highest occupied state (VBM) at    -10.02897150 eV
  | Occupation number:      2.00000000

  Lowest unoccupied state (CBM) at    -4.36775939 eV
  | Occupation number:      0.00000000

  Overall HOMO-LUMO gap:      5.66121211 eV.

  Total energy components:
  | Sum of eigenvalues            :         -95.36720033 Ha       -2595.07355691 eV
  | XC energy correction          :         -23.72231405 Ha        -645.51700887 eV
  | XC potential correction       :          30.47436607 Ha         829.24969248 eV
  | Free-atom electrostatic energy:         -68.00926416 Ha       -1850.62623658 eV
  | Hartree energy correction     :          -0.65268885 Ha         -17.76056728 eV
  | vdW energy correction         :           0.00000000 Ha           0.00000000 eV
  | Entropy correction            :           0.00000000 Ha           0.00000000 eV
  | ---------------------------
  | Total energy                  :        -157.27710132 Ha       -4279.72767716 eV
  | Total energy, T -> 0          :        -157.27710132 Ha       -4279.72767716 eV  <-- do not rely on this value for anything but (periodic) metals
  | Electronic free energy        :        -157.27710132 Ha       -4279.72767716 eV

  Derived energy quantities:
  | Kinetic energy                :         154.52433951 Ha        4204.82121703 eV
  | Electrostatic energy          :        -288.07912678 Ha       -7839.03188533 eV
  | Energy correction for multipole
  | error in Hartree potential    :           0.00233721 Ha           0.06359876 eV
  | Sum of eigenvalues per atom                           :        -216.25612974 eV
  | Total energy (T->0) per atom                          :        -356.64397310 eV  <-- do not rely on this value for anything but (periodic) metals
  | Electronic free energy per atom                       :        -356.64397310 eV

  Self-consistency convergence accuracy:
  | Change of charge density      :  0.4877E+00
  | Change of sum of eigenvalues  :  0.1861E+02 eV
  | Change of total energy        :  0.1336E+01 eV

  End self-consistency iteration #     1       :  max(cpu_time)    wall_clock(cpu1)
  | Time for this iteration                    :        0.652 s           0.649 s
  | Charge density update                      :        0.212 s           0.211 s
  | Density mixing                             :        0.004 s           0.002 s
  | Hartree multipole update                   :        0.016 s           0.015 s
  | Hartree multipole summation                :        0.188 s           0.186 s
  | Integration                                :        0.228 s           0.230 s
  | Solution of K.-S. eqns.                    :        0.004 s           0.002 s
  | Total energy evaluation                    :        0.000 s           0.000 s

  Partial memory accounting:
  | Current value for overall tracked memory usage on task 0  :           0.179 MB
  | Peak value for overall tracked memory usage on task 0     :           0.769 MB after allocating gradient_basis_wave
  | Largest tracked array allocation on task 0 so far         :           0.442 MB  when allocating gradient_basis_wave
  Note:  These values currently only include a subset of arrays which are explicitly tracked.
  The "true" memory usage will be greater.
------------------------------------------------------------

------------------------------------------------------------
          Begin self-consistency iteration #    2

  Date     :  20180215, Time     :  214526.385
------------------------------------------------------------
  Evaluating new KS density.
  Integration grid: deviation in total charge (<rho> - N_e) =   0.000000E+00
  Pulay mixing of updated and previous charge densities.

  Evaluating partitioned Hartree potential by multipole expansion.
  | Analytical far-field extrapolation by fixed multipoles:
  | Hartree multipole sum: apparent total charge =  -0.345275E-03
  Summing up the Hartree potential.
  Time summed over all CPUs for potential: real work        1.330 s, elapsed        1.419 s
  | RMS charge density error from multipole expansion :   0.132376E-01

  Integrating Hamiltonian matrix: batch-based integration.
  Time summed over all CPUs for integration: real work        1.359 s, elapsed        1.433 s

  Updating Kohn-Sham eigenvalues, eigenvectors, occupation numbers, and Fermi level.
  Solving generalized eigenproblem
  Updating Kohn-Sham eigenvalues and eigenfunctions.
  Solving real generalised eigenvalue problem by standard LAPACK (fast)

  Obtaining occupation numbers and chemical potential using ELSI.
  | Chemical potential (Fermi level):    -4.60059054eV
  Highest occupied state (VBM) at     -6.20732509 eV
  | Occupation number:      2.00000000

  Lowest unoccupied state (CBM) at    -0.70370560 eV
  | Occupation number:      0.00000000

  Overall HOMO-LUMO gap:      5.50361949 eV.

  Checking to see if s.c.f. parameters should be adjusted.
  The system likely has a gap. Increased the default Pulay mixing parameter (charge_mix_param). Value:   0.200000 .
  Kept the default occupation width. Value:   0.010000 eV.

  Total energy components:
  | Sum of eigenvalues            :         -89.67294546 Ha       -2440.12499829 eV
  | XC energy correction          :         -24.27546394 Ha        -660.56898310 eV
  | XC potential correction       :          31.19083622 Ha         848.74583724 eV
  | Free-atom electrostatic energy:         -68.00926416 Ha       -1850.62623658 eV
  | Hartree energy correction     :          -6.30943228 Ha        -171.68838770 eV
  | vdW energy correction         :           0.00000000 Ha           0.00000000 eV
  | Entropy correction            :           0.00000000 Ha           0.00000000 eV
  | ---------------------------
  | Total energy                  :        -157.07626962 Ha       -4274.26276842 eV
  | Total energy, T -> 0          :        -157.07626962 Ha       -4274.26276842 eV  <-- do not rely on this value for anything but (periodic) metals
  | Electronic free energy        :        -157.07626962 Ha       -4274.26276842 eV

  Derived energy quantities:
  | Kinetic energy                :         156.93001023 Ha        4270.28284792 eV
  | Electrostatic energy          :        -289.73081591 Ha       -7883.97663325 eV
  | Energy correction for multipole
  | error in Hartree potential    :           0.02207716 Ha           0.60075012 eV
  | Sum of eigenvalues per atom                           :        -203.34374986 eV
  | Total energy (T->0) per atom                          :        -356.18856404 eV  <-- do not rely on this value for anything but (periodic) metals
  | Electronic free energy per atom                       :        -356.18856404 eV

  Self-consistency convergence accuracy:
  | Change of charge density      :  0.4487E+00
  | Change of sum of eigenvalues  :  0.1549E+03 eV
  | Change of total energy        :  0.5465E+01 eV

  End self-consistency iteration #     2       :  max(cpu_time)    wall_clock(cpu1)
  | Time for this iteration                    :        0.596 s           0.596 s
  | Charge density update                      :        0.200 s           0.201 s
  | Density mixing                             :        0.004 s           0.003 s
  | Hartree multipole update                   :        0.012 s           0.010 s
  | Hartree multipole summation                :        0.192 s           0.193 s
  | Integration                                :        0.188 s           0.185 s
  | Solution of K.-S. eqns.                    :        0.004 s           0.002 s
  | Total energy evaluation                    :        0.004 s           0.001 s

  Partial memory accounting:
  | Current value for overall tracked memory usage on task 0  :           0.180 MB
  | Peak value for overall tracked memory usage on task 0     :           0.769 MB after allocating gradient_basis_wave
  | Largest tracked array allocation on task 0 so far         :           0.442 MB  when allocating gradient_basis_wave
  Note:  These values currently only include a subset of arrays which are explicitly tracked.
  The "true" memory usage will be greater.
------------------------------------------------------------

------------------------------------------------------------
          Begin self-consistency iteration #    3

  Date     :  20180215, Time     :  214526.982
------------------------------------------------------------
  Evaluating new KS density.
  Integration grid: deviation in total charge (<rho> - N_e) =   1.421085E-14
  Pulay mixing of updated and previous charge densities.

  Evaluating partitioned Hartree potential by multipole expansion.
  | Analytical far-field extrapolation by fixed multipoles:
  | Hartree multipole sum: apparent total charge =  -0.332417E-03
  Summing up the Hartree potential.
  Time summed over all CPUs for potential: real work        1.363 s, elapsed        1.663 s
  | RMS charge density error from multipole expansion :   0.164392E-01

  Integrating Hamiltonian matrix: batch-based integration.
  Time summed over all CPUs for integration: real work        1.373 s, elapsed        1.610 s

  Updating Kohn-Sham eigenvalues, eigenvectors, occupation numbers, and Fermi level.
  Solving generalized eigenproblem
  Updating Kohn-Sham eigenvalues and eigenfunctions.
  Solving real generalised eigenvalue problem by standard LAPACK (fast)

  Obtaining occupation numbers and chemical potential using ELSI.
  | Chemical potential (Fermi level):    -5.06772009eV
  Highest occupied state (VBM) at     -6.86489170 eV
  | Occupation number:      2.00000000

  Lowest unoccupied state (CBM) at    -1.34107991 eV
  | Occupation number:      0.00000000

  Overall HOMO-LUMO gap:      5.52381179 eV.

  Total energy components:
  | Sum of eigenvalues            :         -90.63614679 Ha       -2466.33503997 eV
  | XC energy correction          :         -24.23239779 Ha        -659.39709351 eV
  | XC potential correction       :          31.13139878 Ha         847.12846223 eV
  | Free-atom electrostatic energy:         -68.00926416 Ha       -1850.62623658 eV
  | Hartree energy correction     :          -5.32420858 Ha        -144.87908680 eV
  | vdW energy correction         :           0.00000000 Ha           0.00000000 eV
  | Entropy correction            :           0.00000000 Ha           0.00000000 eV
  | ---------------------------
  | Total energy                  :        -157.07061854 Ha       -4274.10899462 eV
  | Total energy, T -> 0          :        -157.07061854 Ha       -4274.10899462 eV  <-- do not rely on this value for anything but (periodic) metals
  | Electronic free energy        :        -157.07061854 Ha       -4274.10899462 eV

  Derived energy quantities:
  | Kinetic energy                :         156.27609522 Ha        4252.48891507 eV
  | Electrostatic energy          :        -289.11431597 Ha       -7867.20081619 eV
  | Energy correction for multipole
  | error in Hartree potential    :           0.02661309 Ha           0.72417890 eV
  | Sum of eigenvalues per atom                           :        -205.52792000 eV
  | Total energy (T->0) per atom                          :        -356.17574955 eV  <-- do not rely on this value for anything but (periodic) metals
  | Electronic free energy per atom                       :        -356.17574955 eV

  Self-consistency convergence accuracy:
  | Change of charge density      :  0.2106E+00
  | Change of sum of eigenvalues  : -0.2621E+02 eV
  | Change of total energy        :  0.1538E+00 eV

  End self-consistency iteration #     3       :  max(cpu_time)    wall_clock(cpu1)
  | Time for this iteration                    :        0.628 s           0.628 s
  | Charge density update                      :        0.180 s           0.180 s
  | Density mixing                             :        0.008 s           0.005 s
  | Hartree multipole update                   :        0.012 s           0.010 s
  | Hartree multipole summation                :        0.216 s           0.215 s
  | Integration                                :        0.208 s           0.208 s
  | Solution of K.-S. eqns.                    :        0.004 s           0.006 s
  | Total energy evaluation                    :        0.000 s           0.003 s

  Partial memory accounting:
  | Current value for overall tracked memory usage on task 0  :           0.180 MB
  | Peak value for overall tracked memory usage on task 0     :           0.770 MB after allocating gradient_basis_wave
  | Largest tracked array allocation on task 0 so far         :           0.442 MB  when allocating gradient_basis_wave
  Note:  These values currently only include a subset of arrays which are explicitly tracked.
  The "true" memory usage will be greater.
------------------------------------------------------------

------------------------------------------------------------
          Begin self-consistency iteration #    4

  Date     :  20180215, Time     :  214527.611
------------------------------------------------------------
  Evaluating new KS density.
  Integration grid: deviation in total charge (<rho> - N_e) =   3.552714E-14
  Pulay mixing of updated and previous charge densities.

  Evaluating partitioned Hartree potential by multipole expansion.
  | Analytical far-field extrapolation by fixed multipoles:
  | Hartree multipole sum: apparent total charge =  -0.406399E-03
  Summing up the Hartree potential.
  Time summed over all CPUs for potential: real work        1.362 s, elapsed        1.686 s
  | RMS charge density error from multipole expansion :   0.221841E-01

  Integrating Hamiltonian matrix: batch-based integration.
  Time summed over all CPUs for integration: real work        1.403 s, elapsed        1.625 s

  Updating Kohn-Sham eigenvalues, eigenvectors, occupation numbers, and Fermi level.
  Solving generalized eigenproblem
  Updating Kohn-Sham eigenvalues and eigenfunctions.
  Solving real generalised eigenvalue problem by standard LAPACK (fast)

  Obtaining occupation numbers and chemical potential using ELSI.
  | Chemical potential (Fermi level):    -4.41740623eV
  Highest occupied state (VBM) at     -6.21105879 eV
  | Occupation number:      2.00000000

  Lowest unoccupied state (CBM) at    -0.71889060 eV
  | Occupation number:      0.00000000

  Overall HOMO-LUMO gap:      5.49216819 eV.

  Total energy components:
  | Sum of eigenvalues            :         -89.71820329 Ha       -2441.35652639 eV
  | XC energy correction          :         -24.37120201 Ha        -663.17414854 eV
  | XC potential correction       :          31.30887266 Ha         851.95777213 eV
  | Free-atom electrostatic energy:         -68.00926416 Ha       -1850.62623658 eV
  | Hartree energy correction     :          -6.27021426 Ha        -170.62121116 eV
  | vdW energy correction         :           0.00000000 Ha           0.00000000 eV
  | Entropy correction            :           0.00000000 Ha           0.00000000 eV
  | ---------------------------
  | Total energy                  :        -157.06001106 Ha       -4273.82035054 eV
  | Total energy, T -> 0          :        -157.06001106 Ha       -4273.82035054 eV  <-- do not rely on this value for anything but (periodic) metals
  | Electronic free energy        :        -157.06001106 Ha       -4273.82035054 eV

  Derived energy quantities:
  | Kinetic energy                :         156.35470410 Ha        4254.62797178 eV
  | Electrostatic energy          :        -289.04351316 Ha       -7865.27417377 eV
  | Energy correction for multipole
  | error in Hartree potential    :           0.03434841 Ha           0.93466778 eV
  | Sum of eigenvalues per atom                           :        -203.44637720 eV
  | Total energy (T->0) per atom                          :        -356.15169588 eV  <-- do not rely on this value for anything but (periodic) metals
  | Electronic free energy per atom                       :        -356.15169588 eV

  Self-consistency convergence accuracy:
  | Change of charge density      :  0.1273E+00
  | Change of sum of eigenvalues  :  0.2498E+02 eV
  | Change of total energy        :  0.2886E+00 eV

  End self-consistency iteration #     4       :  max(cpu_time)    wall_clock(cpu1)
  | Time for this iteration                    :        0.640 s           0.642 s
  | Charge density update                      :        0.188 s           0.187 s
  | Density mixing                             :        0.008 s           0.010 s
  | Hartree multipole update                   :        0.016 s           0.014 s
  | Hartree multipole summation                :        0.220 s           0.218 s
  | Integration                                :        0.212 s           0.210 s
  | Solution of K.-S. eqns.                    :        0.004 s           0.002 s
  | Total energy evaluation                    :        0.000 s           0.001 s

  Partial memory accounting:
  | Current value for overall tracked memory usage on task 0  :           0.180 MB
  | Peak value for overall tracked memory usage on task 0     :           0.770 MB after allocating gradient_basis_wave
  | Largest tracked array allocation on task 0 so far         :           0.442 MB  when allocating gradient_basis_wave
  Note:  These values currently only include a subset of arrays which are explicitly tracked.
  The "true" memory usage will be greater.
------------------------------------------------------------

------------------------------------------------------------
          Begin self-consistency iteration #    5

  Date     :  20180215, Time     :  214528.254
------------------------------------------------------------
  Evaluating new KS density.
  Integration grid: deviation in total charge (<rho> - N_e) =  -1.065814E-14
  Pulay mixing of updated and previous charge densities.

  Evaluating partitioned Hartree potential by multipole expansion.
  | Analytical far-field extrapolation by fixed multipoles:
  | Hartree multipole sum: apparent total charge =  -0.436911E-03
  Summing up the Hartree potential.
  Time summed over all CPUs for potential: real work        1.348 s, elapsed        1.494 s
  | RMS charge density error from multipole expansion :   0.229199E-01

  Integrating Hamiltonian matrix: batch-based integration.
  Time summed over all CPUs for integration: real work        1.351 s, elapsed        1.448 s

  Updating Kohn-Sham eigenvalues, eigenvectors, occupation numbers, and Fermi level.
  Solving generalized eigenproblem
  Updating Kohn-Sham eigenvalues and eigenfunctions.
  Solving real generalised eigenvalue problem by standard LAPACK (fast)

  Obtaining occupation numbers and chemical potential using ELSI.
  | Chemical potential (Fermi level):    -4.20326007eV
  Highest occupied state (VBM) at     -5.94091613 eV
  | Occupation number:      2.00000000

  Lowest unoccupied state (CBM) at    -0.45021104 eV
  | Occupation number:      0.00000000

  Overall HOMO-LUMO gap:      5.49070509 eV.

  Total energy components:
  | Sum of eigenvalues            :         -89.43624640 Ha       -2433.68408903 eV
  | XC energy correction          :         -24.39525932 Ha        -663.82878124 eV
  | XC potential correction       :          31.34009159 Ha         852.80728245 eV
  | Free-atom electrostatic energy:         -68.00926416 Ha       -1850.62623658 eV
  | Hartree energy correction     :          -6.55794769 Ha        -178.45083605 eV
  | vdW energy correction         :           0.00000000 Ha           0.00000000 eV
  | Entropy correction            :           0.00000000 Ha           0.00000000 eV
  | ---------------------------
  | Total energy                  :        -157.05862597 Ha       -4273.78266044 eV
  | Total energy, T -> 0          :        -157.05862597 Ha       -4273.78266044 eV  <-- do not rely on this value for anything but (periodic) metals
  | Electronic free energy        :        -157.05862597 Ha       -4273.78266044 eV

  Derived energy quantities:
  | Kinetic energy                :         156.32802737 Ha        4253.90206083 eV
  | Electrostatic energy          :        -288.99139403 Ha       -7863.85594003 eV
  | Energy correction for multipole
  | error in Hartree potential    :           0.03395635 Ha           0.92399920 eV
  | Sum of eigenvalues per atom                           :        -202.80700742 eV
  | Total energy (T->0) per atom                          :        -356.14855504 eV  <-- do not rely on this value for anything but (periodic) metals
  | Electronic free energy per atom                       :        -356.14855504 eV

  Self-consistency convergence accuracy:
  | Change of charge density      :  0.3411E-01
  | Change of sum of eigenvalues  :  0.7672E+01 eV
  | Change of total energy        :  0.3769E-01 eV

  End self-consistency iteration #     5       :  max(cpu_time)    wall_clock(cpu1)
  | Time for this iteration                    :        0.568 s           0.571 s
  | Charge density update                      :        0.172 s           0.169 s
  | Density mixing                             :        0.008 s           0.008 s
  | Hartree multipole update                   :        0.012 s           0.010 s
  | Hartree multipole summation                :        0.196 s           0.194 s
  | Integration                                :        0.188 s           0.187 s
  | Solution of K.-S. eqns.                    :        0.004 s           0.002 s
  | Total energy evaluation                    :        0.000 s           0.001 s

  Partial memory accounting:
  | Current value for overall tracked memory usage on task 0  :           0.180 MB
  | Peak value for overall tracked memory usage on task 0     :           0.770 MB after allocating gradient_basis_wave
  | Largest tracked array allocation on task 0 so far         :           0.442 MB  when allocating gradient_basis_wave
  Note:  These values currently only include a subset of arrays which are explicitly tracked.
  The "true" memory usage will be greater.
------------------------------------------------------------

------------------------------------------------------------
          Begin self-consistency iteration #    6

  Date     :  20180215, Time     :  214528.826
------------------------------------------------------------
  Evaluating new KS density.
  Integration grid: deviation in total charge (<rho> - N_e) =   1.421085E-14
  Pulay mixing of updated and previous charge densities.

  Evaluating partitioned Hartree potential by multipole expansion.
  | Analytical far-field extrapolation by fixed multipoles:
  | Hartree multipole sum: apparent total charge =  -0.455199E-03
  Summing up the Hartree potential.
  Time summed over all CPUs for potential: real work        1.374 s, elapsed        1.635 s
  | RMS charge density error from multipole expansion :   0.231980E-01

  Integrating Hamiltonian matrix: batch-based integration.
  Time summed over all CPUs for integration: real work        1.326 s, elapsed        1.359 s

  Updating Kohn-Sham eigenvalues, eigenvectors, occupation numbers, and Fermi level.
  Solving generalized eigenproblem
  Updating Kohn-Sham eigenvalues and eigenfunctions.
  Solving real generalised eigenvalue problem by standard LAPACK (fast)

  Obtaining occupation numbers and chemical potential using ELSI.
  | Chemical potential (Fermi level):    -4.12451724eV
  Highest occupied state (VBM) at     -5.86832588 eV
  | Occupation number:      2.00000000

  Lowest unoccupied state (CBM) at    -0.37794717 eV
  | Occupation number:      0.00000000

  Overall HOMO-LUMO gap:      5.49037871 eV.

  Total energy components:
  | Sum of eigenvalues            :         -89.35196044 Ha       -2431.39055126 eV
  | XC energy correction          :         -24.40430691 Ha        -664.07497880 eV
  | XC potential correction       :          31.35181920 Ha         853.12640700 eV
  | Free-atom electrostatic energy:         -68.00926416 Ha       -1850.62623658 eV
  | Hartree energy correction     :          -6.64470140 Ha        -180.81152481 eV
  | vdW energy correction         :           0.00000000 Ha           0.00000000 eV
  | Entropy correction            :           0.00000000 Ha           0.00000000 eV
  | ---------------------------
  | Total energy                  :        -157.05841371 Ha       -4273.77688444 eV
  | Total energy, T -> 0          :        -157.05841371 Ha       -4273.77688444 eV  <-- do not rely on this value for anything but (periodic) metals
  | Electronic free energy        :        -157.05841371 Ha       -4273.77688444 eV

  Derived energy quantities:
  | Kinetic energy                :         156.28209459 Ha        4252.65216626 eV
  | Electrostatic energy          :        -288.93620139 Ha       -7862.35407191 eV
  | Energy correction for multipole
  | error in Hartree potential    :           0.03321506 Ha           0.90382775 eV
  | Sum of eigenvalues per atom                           :        -202.61587927 eV
  | Total energy (T->0) per atom                          :        -356.14807370 eV  <-- do not rely on this value for anything but (periodic) metals
  | Electronic free energy per atom                       :        -356.14807370 eV

  Self-consistency convergence accuracy:
  | Change of charge density      :  0.1526E-01
  | Change of sum of eigenvalues  :  0.2294E+01 eV
  | Change of total energy        :  0.5776E-02 eV

  End self-consistency iteration #     6       :  max(cpu_time)    wall_clock(cpu1)
  | Time for this iteration                    :        0.588 s           0.589 s
  | Charge density update                      :        0.180 s           0.180 s
  | Density mixing                             :        0.008 s           0.009 s
  | Hartree multipole update                   :        0.012 s           0.010 s
  | Hartree multipole summation                :        0.212 s           0.211 s
  | Integration                                :        0.176 s           0.176 s
  | Solution of K.-S. eqns.                    :        0.004 s           0.002 s
  | Total energy evaluation                    :        0.000 s           0.001 s

  Partial memory accounting:
  | Current value for overall tracked memory usage on task 0  :           0.180 MB
  | Peak value for overall tracked memory usage on task 0     :           0.770 MB after allocating gradient_basis_wave
  | Largest tracked array allocation on task 0 so far         :           0.442 MB  when allocating gradient_basis_wave
  Note:  These values currently only include a subset of arrays which are explicitly tracked.
  The "true" memory usage will be greater.
------------------------------------------------------------

------------------------------------------------------------
          Begin self-consistency iteration #    7

  Date     :  20180215, Time     :  214529.416
------------------------------------------------------------
  Evaluating new KS density.
  Integration grid: deviation in total charge (<rho> - N_e) =   1.421085E-14
  Pulay mixing of updated and previous charge densities.

  Evaluating partitioned Hartree potential by multipole expansion.
  | Analytical far-field extrapolation by fixed multipoles:
  | Hartree multipole sum: apparent total charge =  -0.458949E-03
  Summing up the Hartree potential.
  Time summed over all CPUs for potential: real work        1.303 s, elapsed        1.368 s
  | RMS charge density error from multipole expansion :   0.231812E-01

  Integrating Hamiltonian matrix: batch-based integration.
  Time summed over all CPUs for integration: real work        1.347 s, elapsed        1.580 s

  Updating Kohn-Sham eigenvalues, eigenvectors, occupation numbers, and Fermi level.
  Solving generalized eigenproblem
  Updating Kohn-Sham eigenvalues and eigenfunctions.
  Solving real generalised eigenvalue problem by standard LAPACK (fast)

  Obtaining occupation numbers and chemical potential using ELSI.
  | Chemical potential (Fermi level):    -4.10310449eV
  Highest occupied state (VBM) at     -5.84210560 eV
  | Occupation number:      2.00000000

  Lowest unoccupied state (CBM) at    -0.35202435 eV
  | Occupation number:      0.00000000

  Overall HOMO-LUMO gap:      5.49008125 eV.

  Total energy components:
  | Sum of eigenvalues            :         -89.32400902 Ha       -2430.62995458 eV
  | XC energy correction          :         -24.40606276 Ha        -664.12275796 eV
  | XC potential correction       :          31.35415635 Ha         853.19000407 eV
  | Free-atom electrostatic energy:         -68.00926416 Ha       -1850.62623658 eV
  | Hartree energy correction     :          -6.67318922 Ha        -181.58671775 eV
  | vdW energy correction         :           0.00000000 Ha           0.00000000 eV
  | Entropy correction            :           0.00000000 Ha           0.00000000 eV
  | ---------------------------
  | Total energy                  :        -157.05836882 Ha       -4273.77566280 eV
  | Total energy, T -> 0          :        -157.05836882 Ha       -4273.77566280 eV  <-- do not rely on this value for anything but (periodic) metals
  | Electronic free energy        :        -157.05836882 Ha       -4273.77566280 eV

  Derived energy quantities:
  | Kinetic energy                :         156.28181272 Ha        4252.64449626 eV
  | Electrostatic energy          :        -288.93411877 Ha       -7862.29740110 eV
  | Energy correction for multipole
  | error in Hartree potential    :           0.03296886 Ha           0.89712827 eV
  | Sum of eigenvalues per atom                           :        -202.55249622 eV
  | Total energy (T->0) per atom                          :        -356.14797190 eV  <-- do not rely on this value for anything but (periodic) metals
  | Electronic free energy per atom                       :        -356.14797190 eV

  Self-consistency convergence accuracy:
  | Change of charge density      :  0.6998E-02
  | Change of sum of eigenvalues  :  0.7606E+00 eV
  | Change of total energy        :  0.1222E-02 eV

  End self-consistency iteration #     7       :  max(cpu_time)    wall_clock(cpu1)
  | Time for this iteration                    :        0.592 s           0.590 s
  | Charge density update                      :        0.176 s           0.177 s
  | Density mixing                             :        0.012 s           0.011 s
  | Hartree multipole update                   :        0.012 s           0.012 s
  | Hartree multipole summation                :        0.184 s           0.181 s
  | Integration                                :        0.208 s           0.206 s
  | Solution of K.-S. eqns.                    :        0.004 s           0.002 s
  | Total energy evaluation                    :        0.000 s           0.001 s

  Partial memory accounting:
  | Current value for overall tracked memory usage on task 0  :           0.180 MB
  | Peak value for overall tracked memory usage on task 0     :           0.770 MB after allocating gradient_basis_wave
  | Largest tracked array allocation on task 0 so far         :           0.442 MB  when allocating gradient_basis_wave
  Note:  These values currently only include a subset of arrays which are explicitly tracked.
  The "true" memory usage will be greater.
------------------------------------------------------------

------------------------------------------------------------
          Begin self-consistency iteration #    8

  Date     :  20180215, Time     :  214530.007
------------------------------------------------------------
  Evaluating new KS density.
  Integration grid: deviation in total charge (<rho> - N_e) =  -2.486900E-14
  Pulay mixing of updated and previous charge densities.

  Evaluating partitioned Hartree potential by multipole expansion.
  | Analytical far-field extrapolation by fixed multipoles:
  | Hartree multipole sum: apparent total charge =  -0.469008E-03
  Summing up the Hartree potential.
  Time summed over all CPUs for potential: real work        1.320 s, elapsed        1.560 s
  | RMS charge density error from multipole expansion :   0.232342E-01

  Integrating Hamiltonian matrix: batch-based integration.
  Time summed over all CPUs for integration: real work        1.326 s, elapsed        1.403 s

  Updating Kohn-Sham eigenvalues, eigenvectors, occupation numbers, and Fermi level.
  Solving generalized eigenproblem
  Updating Kohn-Sham eigenvalues and eigenfunctions.
  Solving real generalised eigenvalue problem by standard LAPACK (fast)

  Obtaining occupation numbers and chemical potential using ELSI.
  | Chemical potential (Fermi level):    -4.04742087eV
  Highest occupied state (VBM) at     -5.77380190 eV
  | Occupation number:      2.00000000

  Lowest unoccupied state (CBM) at    -0.28573322 eV
  | Occupation number:      0.00000000

  Overall HOMO-LUMO gap:      5.48806868 eV.

  Total energy components:
  | Sum of eigenvalues            :         -89.25230631 Ha       -2428.67882452 eV
  | XC energy correction          :         -24.41262596 Ha        -664.30135152 eV
  | XC potential correction       :          31.36274888 Ha         853.42381872 eV
  | Free-atom electrostatic energy:         -68.00926416 Ha       -1850.62623658 eV
  | Hartree energy correction     :          -6.74686741 Ha        -183.59160327 eV
  | vdW energy correction         :           0.00000000 Ha           0.00000000 eV
  | Entropy correction            :           0.00000000 Ha           0.00000000 eV
  | ---------------------------
  | Total energy                  :        -157.05831495 Ha       -4273.77419716 eV
  | Total energy, T -> 0          :        -157.05831495 Ha       -4273.77419716 eV  <-- do not rely on this value for anything but (periodic) metals
  | Electronic free energy        :        -157.05831495 Ha       -4273.77419716 eV

  Derived energy quantities:
  | Kinetic energy                :         156.28280517 Ha        4252.67150232 eV
  | Electrostatic energy          :        -288.92849417 Ha       -7862.14434796 eV
  | Energy correction for multipole
  | error in Hartree potential    :           0.03253589 Ha           0.88534674 eV
  | Sum of eigenvalues per atom                           :        -202.38990204 eV
  | Total energy (T->0) per atom                          :        -356.14784976 eV  <-- do not rely on this value for anything but (periodic) metals
  | Electronic free energy per atom                       :        -356.14784976 eV

  Self-consistency convergence accuracy:
  | Change of charge density      :  0.5452E-02
  | Change of sum of eigenvalues  :  0.1951E+01 eV
  | Change of total energy        :  0.1466E-02 eV

  End self-consistency iteration #     8       :  max(cpu_time)    wall_clock(cpu1)
  | Time for this iteration                    :        0.624 s           0.628 s
  | Charge density update                      :        0.208 s           0.206 s
  | Density mixing                             :        0.028 s           0.026 s
  | Hartree multipole update                   :        0.012 s           0.010 s
  | Hartree multipole summation                :        0.200 s           0.201 s
  | Integration                                :        0.184 s           0.181 s
  | Solution of K.-S. eqns.                    :        0.004 s           0.003 s
  | Total energy evaluation                    :        0.000 s           0.001 s

  Partial memory accounting:
  | Current value for overall tracked memory usage on task 0  :           0.180 MB
  | Peak value for overall tracked memory usage on task 0     :           0.770 MB after allocating gradient_basis_wave
  | Largest tracked array allocation on task 0 so far         :           0.442 MB  when allocating gradient_basis_wave
  Note:  These values currently only include a subset of arrays which are explicitly tracked.
  The "true" memory usage will be greater.
------------------------------------------------------------

------------------------------------------------------------
          Begin self-consistency iteration #    9

  Date     :  20180215, Time     :  214530.636
------------------------------------------------------------
  Evaluating new KS density.
  Integration grid: deviation in total charge (<rho> - N_e) =   1.421085E-14
  Pulay mixing of updated and previous charge densities.

  Evaluating partitioned Hartree potential by multipole expansion.
  | Analytical far-field extrapolation by fixed multipoles:
  | Hartree multipole sum: apparent total charge =  -0.471281E-03
  Summing up the Hartree potential.
  Time summed over all CPUs for potential: real work        1.294 s, elapsed        1.337 s
  | RMS charge density error from multipole expansion :   0.232467E-01

  Integrating Hamiltonian matrix: batch-based integration.
  Time summed over all CPUs for integration: real work        1.345 s, elapsed        1.403 s

  Updating Kohn-Sham eigenvalues, eigenvectors, occupation numbers, and Fermi level.
  Solving generalized eigenproblem
  Updating Kohn-Sham eigenvalues and eigenfunctions.
  Solving real generalised eigenvalue problem by standard LAPACK (fast)

  Obtaining occupation numbers and chemical potential using ELSI.
  | Chemical potential (Fermi level):    -4.03449199eV
  Highest occupied state (VBM) at     -5.75902350 eV
  | Occupation number:      2.00000000

  Lowest unoccupied state (CBM) at    -0.27163591 eV
  | Occupation number:      0.00000000

  Overall HOMO-LUMO gap:      5.48738760 eV.

  Total energy components:
  | Sum of eigenvalues            :         -89.23485603 Ha       -2428.20397832 eV
  | XC energy correction          :         -24.41443411 Ha        -664.35055388 eV
  | XC potential correction       :          31.36510612 Ha         853.48796250 eV
  | Free-atom electrostatic energy:         -68.00926416 Ha       -1850.62623658 eV
  | Hartree energy correction     :          -6.76486519 Ha        -184.08134776 eV
  | vdW energy correction         :           0.00000000 Ha           0.00000000 eV
  | Entropy correction            :           0.00000000 Ha           0.00000000 eV
  | ---------------------------
  | Total energy                  :        -157.05831337 Ha       -4273.77415404 eV
  | Total energy, T -> 0          :        -157.05831337 Ha       -4273.77415404 eV  <-- do not rely on this value for anything but (periodic) metals
  | Electronic free energy        :        -157.05831337 Ha       -4273.77415404 eV

  Derived energy quantities:
  | Kinetic energy                :         156.28596253 Ha        4252.75741847 eV
  | Electrostatic energy          :        -288.92984180 Ha       -7862.18101863 eV
  | Energy correction for multipole
  | error in Hartree potential    :           0.03246640 Ha           0.88345581 eV
  | Sum of eigenvalues per atom                           :        -202.35033153 eV
  | Total energy (T->0) per atom                          :        -356.14784617 eV  <-- do not rely on this value for anything but (periodic) metals
  | Electronic free energy per atom                       :        -356.14784617 eV

  Self-consistency convergence accuracy:
  | Change of charge density      :  0.1089E-02
  | Change of sum of eigenvalues  :  0.4748E+00 eV
  | Change of total energy        :  0.4312E-04 eV

  End self-consistency iteration #     9       :  max(cpu_time)    wall_clock(cpu1)
  | Time for this iteration                    :        0.552 s           0.549 s
  | Charge density update                      :        0.168 s           0.167 s
  | Density mixing                             :        0.016 s           0.014 s
  | Hartree multipole update                   :        0.012 s           0.010 s
  | Hartree multipole summation                :        0.176 s           0.173 s
  | Integration                                :        0.180 s           0.181 s
  | Solution of K.-S. eqns.                    :        0.004 s           0.002 s
  | Total energy evaluation                    :        0.004 s           0.000 s

  Partial memory accounting:
  | Current value for overall tracked memory usage on task 0  :           0.180 MB
  | Peak value for overall tracked memory usage on task 0     :           0.770 MB after allocating gradient_basis_wave
  | Largest tracked array allocation on task 0 so far         :           0.442 MB  when allocating gradient_basis_wave
  Note:  These values currently only include a subset of arrays which are explicitly tracked.
  The "true" memory usage will be greater.
------------------------------------------------------------

------------------------------------------------------------
          Begin self-consistency iteration #   10

  Date     :  20180215, Time     :  214531.186
------------------------------------------------------------
  Evaluating new KS density.
  Integration grid: deviation in total charge (<rho> - N_e) =   7.105427E-15
  Pulay mixing of updated and previous charge densities.

  Evaluating partitioned Hartree potential by multipole expansion.
  | Analytical far-field extrapolation by fixed multipoles:
  | Hartree multipole sum: apparent total charge =  -0.471232E-03
  Summing up the Hartree potential.
  Time summed over all CPUs for potential: real work        1.300 s, elapsed        1.335 s
  | RMS charge density error from multipole expansion :   0.232483E-01

  Integrating Hamiltonian matrix: batch-based integration.
  Time summed over all CPUs for integration: real work        1.336 s, elapsed        1.366 s

[...]
  |   Hirshfeld dipole moment :      0.08853600
  |   Hirshfeld second moments:      0.10215370       0.00937523      -0.00140533
  |                                  0.00937523       0.09256723      -0.00321858
  |                                 -0.00140533      -0.00321858       0.10969869
  ----------------------------------------------------------------------
  | Atom     8: H
  |   Hirshfeld charge        :      0.03730218
  |   Free atom volume        :      9.95071624
  |   Hirshfeld volume        :      6.40775334
  |   Hirshfeld dipole vector :     -0.01485167      -0.04238345       0.07933146
  |   Hirshfeld dipole moment :      0.09116145
  |   Hirshfeld second moments:      0.09656089       0.00085647       0.00288409
  |                                  0.00085647       0.09872902       0.00829857
  |                                  0.00288409       0.00829857       0.09326349
  ----------------------------------------------------------------------
  | Atom     9: H
  |   Hirshfeld charge        :      0.03730218
  |   Free atom volume        :      9.95071624
  |   Hirshfeld volume        :      6.40775334
  |   Hirshfeld dipole vector :      0.01485167       0.04238345       0.07933146
  |   Hirshfeld dipole moment :      0.09116145
  |   Hirshfeld second moments:      0.09656089       0.00085647      -0.00288409
  |                                  0.00085647       0.09872902      -0.00829857
  |                                 -0.00288409      -0.00829857       0.09326349
  ----------------------------------------------------------------------
  | Atom    10: H
  |   Hirshfeld charge        :      0.04036675
  |   Free atom volume        :      9.95071624
  |   Hirshfeld volume        :      6.39363728
  |   Hirshfeld dipole vector :     -0.01006172      -0.03281717      -0.07793975
  |   Hirshfeld dipole moment :      0.08516342
  |   Hirshfeld second moments:      0.10756562      -0.00684531      -0.00226055
  |                                 -0.00684531       0.09036044      -0.00719231
  |                                 -0.00226055      -0.00719231       0.08995643
  ----------------------------------------------------------------------
  | Atom    11: H
  |   Hirshfeld charge        :      0.04322142
  |   Free atom volume        :      9.95071624
  |   Hirshfeld volume        :      6.13280501
  |   Hirshfeld dipole vector :     -0.04868761       0.07394581      -0.00039620
  |   Hirshfeld dipole moment :      0.08853600
  |   Hirshfeld second moments:      0.10215370       0.00937523       0.00140533
  |                                  0.00937523       0.09256723       0.00321858
  |                                  0.00140533       0.00321858       0.10969869
  ----------------------------------------------------------------------
  | Atom    12: H
  |   Hirshfeld charge        :      0.04325632
  |   Free atom volume        :      9.95071624
  |   Hirshfeld volume        :      6.12911817
  |   Hirshfeld dipole vector :      0.08362666       0.02915170       0.00112966
  |   Hirshfeld dipole moment :      0.08856927
  |   Hirshfeld second moments:      0.08963091      -0.00710606       0.00053652
  |                                 -0.00710606       0.10524748       0.00324966
  |                                  0.00053652       0.00324966       0.10980994
  ----------------------------------------------------------------------


  Total energy components:
  | Sum of eigenvalues            :         -89.23495965 Ha       -2428.20679793 eV
  | XC energy correction          :         -24.41454631 Ha        -664.35360708 eV
  | XC potential correction       :          31.36524720 Ha         853.49180158 eV
  | Free-atom electrostatic energy:         -68.00926416 Ha       -1850.62623658 eV
  | Hartree energy correction     :          -6.76479120 Ha        -184.07933429 eV
  | vdW energy correction         :          -0.00229244 Ha          -0.06238042 eV
  | Entropy correction            :           0.00000000 Ha           0.00000000 eV
  | ---------------------------
  | Total energy                  :        -157.06060655 Ha       -4273.83655472 eV
  | Total energy, T -> 0          :        -157.06060655 Ha       -4273.83655472 eV  <-- do not rely on this value for anything but (periodic) metals
  | Electronic free energy        :        -157.06060655 Ha       -4273.83655472 eV

  Derived energy quantities:
  | Kinetic energy                :         156.28648392 Ha        4252.77160617 eV
  | Electrostatic energy          :        -288.93025173 Ha       -7862.19217338 eV
  | Energy correction for multipole
  | error in Hartree potential    :           0.03247588 Ha           0.88371355 eV
  | Sum of eigenvalues per atom                           :        -202.35056649 eV
  | Total energy (T->0) per atom                          :        -356.15304623 eV  <-- do not rely on this value for anything but (periodic) metals
  | Electronic free energy per atom                       :        -356.15304623 eV

  atomic forces [eV/Ang]:
  -----------------------
  atom #    1
   Hellmann-Feynman              :  0.127247E+00  0.355150E+00  0.382164E+00
   Ionic forces                  :  0.000000E+00  0.000000E+00  0.000000E+00
   Multipole                     : -0.201705E+00 -0.564873E+00 -0.631397E+00
   Pulay + GGA                   :  0.794313E-01  0.222329E+00  0.246050E+00
   Van der Waals                 : -0.474538E-02 -0.132653E-01  0.317101E-02
   ----------------------------------------------------------------
   Total forces(   1)            :  0.228394E-03 -0.659402E-03 -0.122723E-04
  atom #    2
   Hellmann-Feynman              :  0.584788E+00  0.167811E+01  0.123261E+00
   Ionic forces                  :  0.000000E+00  0.000000E+00  0.000000E+00
   Multipole                     :  0.609528E-02  0.566952E-02  0.375279E+00
   Pulay + GGA                   : -0.591103E+00 -0.168500E+01 -0.504127E+00
   Van der Waals                 :  0.249322E-03  0.792666E-03  0.518384E-02
   ----------------------------------------------------------------
   Total forces(   2)            :  0.296354E-04 -0.424466E-03 -0.402508E-03
  atom #    3
   Hellmann-Feynman              : -0.584788E+00 -0.167811E+01  0.123261E+00
   Ionic forces                  :  0.000000E+00  0.000000E+00  0.000000E+00
   Multipole                     : -0.609528E-02 -0.566952E-02  0.375279E+00
   Pulay + GGA                   :  0.591103E+00  0.168500E+01 -0.504127E+00
   Van der Waals                 : -0.249322E-03 -0.792666E-03  0.518384E-02
   ----------------------------------------------------------------
   Total forces(   3)            : -0.296354E-04  0.424466E-03 -0.402508E-03
  atom #    4
   Hellmann-Feynman              : -0.127247E+00 -0.355150E+00  0.382164E+00
   Ionic forces                  :  0.000000E+00  0.000000E+00  0.000000E+00
   Multipole                     :  0.201705E+00  0.564873E+00 -0.631397E+00
   Pulay + GGA                   : -0.794313E-01 -0.222329E+00  0.246050E+00
   Van der Waals                 :  0.474538E-02  0.132653E-01  0.317101E-02
   ----------------------------------------------------------------
   Total forces(   4)            : -0.228394E-03  0.659402E-03 -0.122723E-04
  atom #    5
   Hellmann-Feynman              :  0.358765E-01  0.903855E-01  0.406381E-01
   Ionic forces                  :  0.000000E+00  0.000000E+00  0.000000E+00
   Multipole                     : -0.636198E-02 -0.946882E-02 -0.133866E+00
   Pulay + GGA                   : -0.250178E-01 -0.734710E-01  0.976339E-01
   Van der Waals                 : -0.335516E-02 -0.918381E-02 -0.479704E-02
   ----------------------------------------------------------------
   Total forces(   5)            :  0.114155E-02 -0.173813E-02 -0.391450E-03
  atom #    6
   Hellmann-Feynman              : -0.133676E-01  0.266315E-02  0.432598E-01
   Ionic forces                  :  0.000000E+00  0.000000E+00  0.000000E+00
   Multipole                     : -0.848530E-01 -0.525338E-01 -0.387952E-01
   Pulay + GGA                   :  0.973825E-01  0.457821E-01 -0.144885E-02
   Van der Waals                 :  0.786941E-03  0.409621E-02 -0.328342E-02
   ----------------------------------------------------------------
   Total forces(   6)            : -0.511904E-04  0.762253E-05 -0.267675E-03
  atom #    7
   Hellmann-Feynman              :  0.110471E-01 -0.781267E-02  0.425253E-01
   Ionic forces                  :  0.000000E+00  0.000000E+00  0.000000E+00
   Multipole                     :  0.355613E-01 -0.929473E-01 -0.388265E-01
   Pulay + GGA                   : -0.491023E-01  0.957195E-01  0.747006E-03
   Van der Waals                 :  0.195829E-02  0.381510E-02 -0.324664E-02
   ----------------------------------------------------------------
   Total forces(   7)            : -0.535699E-03 -0.122537E-02  0.119921E-02
  atom #    8
   Hellmann-Feynman              : -0.145261E-01 -0.435202E-01 -0.587359E-01
   Ionic forces                  :  0.000000E+00  0.000000E+00  0.000000E+00
   Multipole                     : -0.613905E-02 -0.163834E-01  0.149628E+00
   Pulay + GGA                   :  0.193140E-01  0.553221E-01 -0.942317E-01
   Van der Waals                 :  0.167656E-02  0.474804E-02  0.297226E-02
   ----------------------------------------------------------------
   Total forces(   8)            :  0.325353E-03  0.166569E-03 -0.367137E-03
  atom #    9
   Hellmann-Feynman              :  0.145261E-01  0.435202E-01 -0.587359E-01
   Ionic forces                  :  0.000000E+00  0.000000E+00  0.000000E+00
   Multipole                     :  0.613905E-02  0.163834E-01  0.149628E+00
   Pulay + GGA                   : -0.193140E-01 -0.553221E-01 -0.942317E-01
   Van der Waals                 : -0.167656E-02 -0.474804E-02  0.297226E-02
   ----------------------------------------------------------------
   Total forces(   9)            : -0.325353E-03 -0.166569E-03 -0.367137E-03
  atom #   10
   Hellmann-Feynman              : -0.358765E-01 -0.903855E-01  0.406381E-01
   Ionic forces                  :  0.000000E+00  0.000000E+00  0.000000E+00
   Multipole                     :  0.636198E-02  0.946882E-02 -0.133866E+00
   Pulay + GGA                   :  0.250178E-01  0.734710E-01  0.976339E-01
   Van der Waals                 :  0.335516E-02  0.918381E-02 -0.479704E-02
   ----------------------------------------------------------------
   Total forces(  10)            : -0.114155E-02  0.173813E-02 -0.391450E-03
  atom #   11
   Hellmann-Feynman              : -0.110471E-01  0.781267E-02  0.425253E-01
   Ionic forces                  :  0.000000E+00  0.000000E+00  0.000000E+00
   Multipole                     : -0.355613E-01  0.929473E-01 -0.388265E-01
   Pulay + GGA                   :  0.491023E-01 -0.957195E-01  0.747006E-03
   Van der Waals                 : -0.195829E-02 -0.381510E-02 -0.324664E-02
   ----------------------------------------------------------------
   Total forces(  11)            :  0.535699E-03  0.122537E-02  0.119921E-02
  atom #   12
   Hellmann-Feynman              :  0.133676E-01 -0.266315E-02  0.432598E-01
   Ionic forces                  :  0.000000E+00  0.000000E+00  0.000000E+00
   Multipole                     :  0.848530E-01  0.525338E-01 -0.387952E-01
   Pulay + GGA                   : -0.973825E-01 -0.457821E-01 -0.144885E-02
   Van der Waals                 : -0.786941E-03 -0.409621E-02 -0.328342E-02
   ----------------------------------------------------------------
   Total forces(  12)            :  0.511904E-04 -0.762254E-05 -0.267675E-03

  Timings for VdW correction (Tkatchenko-Scheffler 2009 or later):
  | CPU time:        0.048 s, Wall clock time:        0.050 s.
  Removing unitary transformations (pure translations, rotations) from forces on atoms.
  Atomic forces before filtering:
  | Net force on center of mass :  -0.237624E-11 -0.385670E-11 -0.483661E-03 eV/A
  | Net torque on center of mass:  -0.271888E-11  0.166223E-11  0.270477E-02 eV
  Atomic forces after filtering:
  | Net force on center of mass :  -0.392006E-18  0.457340E-18  0.174225E-18 eV/A
  | Net torque on center of mass:   0.125040E-17  0.507077E-18  0.276587E-18 eV

  Energy and forces in a compact form:
  | Total energy uncorrected      :         -0.427383655471837E+04 eV
  | Total energy corrected        :         -0.427383655471837E+04 eV  <-- do not rely on this value for anything but (periodic) metals
  | Electronic free energy        :         -0.427383655471837E+04 eV
  Total atomic forces (unitary forces cleaned) [eV/Ang]:
  |   1          0.110100836625680E-03         -0.617753311251059E-03          0.280328504279261E-04
  |   2         -0.203292074496329E-04         -0.406898596711765E-03         -0.362203061401119E-03
  |   3          0.203292074209905E-04          0.406898601624875E-03         -0.362203062259608E-03
  |   4         -0.110100843888184E-03          0.617753309599409E-03          0.280328521918082E-04
  |   5          0.106344031614356E-02         -0.170924911558672E-02         -0.351144462351476E-03
  |   6         -0.196465027266420E-03          0.131836790969911E-03         -0.227369389733254E-03
  |   7         -0.725602800116750E-03         -0.123293457315930E-02          0.123951613819573E-02
  |   8          0.238312702184302E-03          0.197121811894513E-03         -0.326832076481344E-03
  |   9         -0.238312704295329E-03         -0.197121807546743E-03         -0.326832076748183E-03
  |  10         -0.106344031691206E-02          0.170924912564406E-02         -0.351144460237594E-03
  |  11          0.725602815070380E-03          0.123293456466563E-02          0.123951614119554E-02
  |  12          0.196465022483458E-03         -0.131836800142806E-03         -0.227369392798427E-03

  ------------------------------------ 
  Start decomposition of the XC Energy 
  ------------------------------------ 
  X and C from original XC functional choice 
  Hartree-Fock Energy :          0.000000000 Ha              0.000000000 eV
  X Energy            :        -23.397858006 Ha           -636.688110683 eV
  C Energy            :         -1.016688305 Ha            -27.665496397 eV
  Total XC Energy     :        -24.414546312 Ha           -664.353607080 eV
  ------------------------------------ 
  LDA X and C from self-consistent density 
  X Energy LDA        :        -21.151728455 Ha           -575.567815831 eV
  C Energy LDA        :         -1.974712804 Ha            -53.734669375 eV
  ------------------------------------ 
  End decomposition of the XC Energy 
  ------------------------------------ 

------------------------------------------------------------

------------------------------------------------------------------------------
  Final output of selected total energy values:

  The following output summarizes some interesting total energy values
  at the end of a run (AFTER all relaxation, molecular dynamics, etc.).

  | Total energy of the DFT / Hartree-Fock s.c.f. calculation      :          -4273.836554718 eV
  | Final zero-broadening corrected energy (caution - metals only) :          -4273.836554718 eV
  | For reference only, the value of 1 Hartree used in FHI-aims is :             27.211384500 eV

  Before relying on these values, please be sure to understand exactly which
  total energy value is referred to by a given number. Different objects may
  all carry the same name 'total energy'. Definitions:

  Total energy of the DFT / Hartree-Fock s.c.f. calculation:
  | Note that this energy does not include ANY quantities calculated after the
  | s.c.f. cycle, in particular not ANY RPA, MP2, etc. many-body perturbation terms.

  Final zero-broadening corrected energy:
  | For metallic systems only, a broadening of the occupation numbers at the Fermi
  | level can be extrapolated back to zero broadening by an electron-gas inspired
  | formula. For all systems that are not real metals, this value can be
  | meaningless and should be avoided.

------------------------------------------------------------------------------
  Methods described in the following list of references were used in this FHI-aims run.
  If you publish the results, please make sure to cite these reference if they apply.
  FHI-aims is an academic code, and for our developers (often, Ph.D. students
  and postdocs), scientific credit in the community is essential.
  Thank you for helping us!

  For any use of FHI-aims, please cite:

    Volker Blum, Ralf Gehrke, Felix Hanke, Paula Havu, Ville Havu,
    Xinguo Ren, Karsten Reuter, and Matthias Scheffler
    'Ab initio molecular simulations with numeric atom-centered orbitals'
    Computer Physics Communications 180, 2175-2196 (2009)
    http://dx.doi.org/10.1016/j.cpc.2009.06.022


  For the real-space grid partitioning and parallelization used in this calculation, please cite:

    Ville Havu, Volker Blum, Paula Havu, and Matthias Scheffler,
    'Efficient O(N) integration for all-electron electronic structure calculation'
    'using numerically tabulated basis functions'
    Journal of Computational Physics 228, 8367-8379 (2009).
    http://dx.doi.org/10.1016/j.jcp.2009.08.008

  Of course, there are many other important community references, e.g., those cited in the
  above references. Our list is limited to references that describe implementations in the
  FHI-aims code. The reason is purely practical (length of this list) - please credit others as well.

------------------------------------------------------------
          Leaving FHI-aims.
          Date     :  20180215, Time     :  214535.553

          Computational steps:
          | Number of self-consistency cycles          :           15
          | Number of SCF (re)initializations          :            1

          Detailed time accounting                     :  max(cpu_time)    wall_clock(cpu1)
          | Total time                                 :       10.400 s          10.471 s
          | Preparation time                           :        0.128 s           0.134 s
          | Boundary condition initalization           :        0.000 s           0.000 s
          | Grid partitioning                          :        0.068 s           0.065 s
          | Preloading free-atom quantities on grid    :        0.004 s           0.003 s
          | Free-atom superposition energy             :        0.024 s           0.023 s
          | Total time for integrations                :        3.236 s           3.229 s
          | Total time for solution of K.-S. equations :        0.072 s           0.051 s
          | Total time for density & force components  :        3.184 s           3.166 s
          | Total time for mixing                      :        0.188 s           0.174 s
          | Total time for Hartree multipole update    :        0.196 s           0.170 s
          | Total time for Hartree multipole sum       :        3.268 s           3.252 s
          | Total time for total energy evaluation     :        0.012 s           0.018 s
          | Total time for vdW correction              :        0.048 s           0.050 s

          Partial memory accounting:
          | Residual value for overall tracked memory usage across tasks :           0.000 MB (should be 0.000 MB)
          | Peak values for overall tracked memory usage (after allocating hessian_basis_wave):
          |   Minimum:        1.802 MB (on task 1)
          |   Maximum:        1.802 MB (on task 1)
          |   Average:        1.802 MB
          | Largest tracked array allocation (hessian_basis_wave):
          |   Minimum:        0.885 MB (on task 1)
          |   Maximum:        0.885 MB (on task 1)
          |   Average:        0.885 MB
          Note:  These values currently only include a subset of arrays which are explicitly tracked.
          The "true" memory usage will be greater.

          Have a nice day.
------------------------------------------------------------
