  MPI-parallelism will be employed.
------------------------------------------------------------
          Invoking FHI-aims ...

          When using FHI-aims, please cite the following reference:

          Volker Blum, Ralf Gehrke, Felix Hanke, Paula Havu,
          Ville Havu, Xinguo Ren, Karsten Reuter, and Matthias Scheffler,
          'Ab Initio Molecular Simulations with Numeric Atom-Centered Orbitals',
          Computer Physics Communications 180, 2175-2196 (2009)

          For any questions about FHI-aims, please visit the aimsclub website
          with its forums and wiki. Contributions to both the forums and the
          wiki are warmly encouraged - they are for you, and everyone is welcome there.

------------------------------------------------------------



  Date     :  20190817, Time     :  154134.035
  Time zero on CPU 1             :   0.300480000000000E-01  s.
  Internal wall clock time zero  :           335288494.035  s.

  FHI-aims created a unique identifier for this run for later identification
  aims_uuid : 036D67BA-A113-4518-A653-5A9AF47A9184

  Build configuration of the current instance of FHI-aims
  -------------------------------------------------------
  FHI-aims version      : 190813
  Commit number         : 3da7baeb3
  CMake host system     : Linux-4.4.180-94.97-default
  CMake version         : 3.5.2
  Fortran compiler      : /mpcdf/soft/SLE_12_SP3/packages/x86_64/intel_parallel_studio/2018.4/compilers_and_libraries_2018.5.274/linux/mpi/bin64/mpiifort (Intel) version 18.0.5.20180823
  Fortran compiler flags: -O3 -ip -fp-model precise
  C compiler            : /mpcdf/soft/SLE_12_SP3/packages/skylake/intel/18.0.5/bin/icc (Intel) version 18.0.5.20180823
  C compiler flags      : -O3 -ip -fp-model precise
  Architecture          :
  Using MPI
  Using Scalapack
  Using C files
  Using SPGlib
  Using i-PI
  Linking against: /mpcdf/soft/SLE_12_SP3/packages/x86_64/anaconda/3.5.1.0/lib/libmkl_intel_lp64.so
                   /mpcdf/soft/SLE_12_SP3/packages/x86_64/anaconda/3.5.1.0/lib/libmkl_sequential.so
                   /mpcdf/soft/SLE_12_SP3/packages/x86_64/anaconda/3.5.1.0/lib/libmkl_core.so
                   /mpcdf/soft/SLE_12_SP3/packages/x86_64/anaconda/3.5.1.0/lib/libmkl_blacs_intelmpi_lp64.so
                   /mpcdf/soft/SLE_12_SP3/packages/x86_64/anaconda/3.5.1.0/lib/libmkl_scalapack_lp64.so

  Using        8 parallel tasks.
  Task        0 on host co1631 reporting.
  Task        1 on host co1631 reporting.
  Task        2 on host co1631 reporting.
  Task        3 on host co1631 reporting.
  Task        4 on host co1631 reporting.
  Task        5 on host co1631 reporting.
  Task        6 on host co1631 reporting.
  Task        7 on host co1631 reporting.

  Performing system and environment tests:
  | Environment variable OMP_NUM_THREADS correctly set to 1.
  | Maximum stacksize for task 0: unlimited
  | Maximum stacksize for task 1: unlimited
  | Maximum stacksize for task 2: unlimited
  | Maximum stacksize for task 3: unlimited
  | Maximum stacksize for task 4: unlimited
  | Maximum stacksize for task 5: unlimited
  | Maximum stacksize for task 6: unlimited
  | Maximum stacksize for task 7: unlimited
  | Current stacksize for task 0: unlimited
  | Current stacksize for task 1: unlimited
  | Current stacksize for task 2: unlimited
  | Current stacksize for task 3: unlimited
  | Current stacksize for task 4: unlimited
  | Current stacksize for task 5: unlimited
  | Current stacksize for task 6: unlimited
  | Current stacksize for task 7: unlimited
  | Checking for scalapack...
  | Testing pdtran()...
  | All pdtran() tests passed.

  Obtaining array dimensions for all initial allocations:
  
  -----------------------------------------------------------------------
  Parsing control.in (first pass over file, find array dimensions only).
  The contents of control.in will be repeated verbatim below
  unless switched off by setting 'verbatim_writeout .false.' .
  in the first line of control.in .
  -----------------------------------------------------------------------
  
  #
   xc pbe
   k_grid 1 1 1 # Don't use in production
   force_complex_eigenvectors .true. # Don't use in production
   collect_eigenvectors .false.
  #
   KS_method elsi
   elsi_method dm
   elsi_solver omm
   elsi_omm_n_elpa 9
  #
  ################################################################################
  #
  #  FHI-aims code project
  #  VB, Fritz-Haber Institut, 2009
  #
  #  Suggested "light" defaults for Si atom (to be pasted into control.in file)
  #  Be sure to double-check any results obtained with these settings for post-processing,
  #  e.g., with the "tight" defaults and larger basis sets.
  #
  ################################################################################
    species        Si
  #     global species definitions
      nucleus             14
      mass                28.0855
  #
      l_hartree           4
  #
      cut_pot             3.5          1.5  1.0
      basis_dep_cutoff    1e-4
  #
      radial_base         42 5.0
      radial_multiplier   1
      angular_grids       specified
        division   0.5866   50
        division   0.9616  110
        division   1.2249  194
        division   1.3795  302
  #      division   1.4810  434
  #      division   1.5529  590
  #      division   1.6284  770
  #      division   1.7077  974
  #      division   2.4068 1202
  #      outer_grid   974
        outer_grid 302
  ################################################################################
  #
  #  Definition of "minimal" basis
  #
  ################################################################################
  #     valence basis states
      valence      3  s   2.
      valence      3  p   2.
  #     ion occupancy
      ion_occ      3  s   1.
      ion_occ      3  p   1.
  ################################################################################
  #
  #  Suggested additional basis functions. For production calculations,
  #  uncomment them one after another (the most important basis functions are
  #  listed first).
  #
  #  Constructed for dimers: 1.75 A, 2.0 A, 2.25 A, 2.75 A, 3.75 A
  #
  ################################################################################
  #  "First tier" - improvements: -571.96 meV to -37.03 meV
       hydro 3 d 4.2
       hydro 2 p 1.4
  #     hydro 4 f 6.2
       ionic 3 s auto
  #  "Second tier" - improvements: -16.76 meV to -3.03 meV
  #     hydro 3 d 9
  #     hydro 5 g 9.4
  #     hydro 4 p 4
  #     hydro 1 s 0.65
  #  "Third tier" - improvements: -3.89 meV to -0.60 meV
  #     ionic 3 d auto
  #     hydro 3 s 2.6
  #     hydro 4 f 8.4
  #     hydro 3 d 3.4
  #     hydro 3 p 7.8
  #  "Fourth tier" - improvements: -0.33 meV to -0.11 meV
  #     hydro 2 p 1.6
  #     hydro 5 g 10.8
  #     hydro 5 f 11.2
  #     hydro 3 d 1
  #     hydro 4 s 4.5
  #  Further basis functions that fell out of the optimization - noise
  #  level... < -0.08 meV
  #     hydro 4 d 6.6
  #     hydro 5 g 16.4
  #     hydro 4 d 9
  
  -----------------------------------------------------------------------
  Completed first pass over input file control.in .
  -----------------------------------------------------------------------
  
  
  -----------------------------------------------------------------------
  Parsing geometry.in (first pass over file, find array dimensions only).
  The contents of geometry.in will be repeated verbatim below
  unless switched off by setting 'verbatim_writeout .false.' .
  in the first line of geometry.in .
  -----------------------------------------------------------------------
  
  lattice_vector 0.0 2.708 2.708
  lattice_vector 2.708 0.0 2.708
  lattice_vector 2.708 2.708 0.0
  
  atom 0.0 0.0 0.0 Si
  atom 1.354 1.354 1.354 Si
  
  -----------------------------------------------------------------------
  Completed first pass over input file geometry.in .
  -----------------------------------------------------------------------
  

  Basic array size parameters:
  | Number of species                 :        1
  | Number of atoms                   :        2
  | Number of lattice vectors         :        3
  | Max. basis fn. angular momentum   :        2
  | Max. atomic/ionic basis occupied n:        3
  | Max. number of basis fn. types    :        3
  | Max. radial fns per species/type  :        5
  | Max. logarithmic grid size        :     1346
  | Max. radial integration grid size :       42
  | Max. angular integration grid size:      302
  | Max. angular grid division number :        8
  | Radial grid for Hartree potential :     1346
  | Number of spin channels           :        1

------------------------------------------------------------
          Reading file control.in.
------------------------------------------------------------
  XC: Using PBE gradient-corrected functionals.
  Found k-point grid:         1         1         1
  Forcing the eigenvectors in the calculation to be COMPLEX.
  Kohn-Sham electronic structure solved by the ELSI library.
 
  Reading configuration options for species Si                  .
  | Found nuclear charge :  14.0000
  | Found atomic mass :    28.0855000000000      amu
  | Found l_max for Hartree potential  :   4
  | Found cutoff potl. onset [A], width [A], scale factor :    3.50000    1.50000    1.00000
  | Threshold for basis-dependent cutoff potential is   0.100000E-03
  | Found data for basic radial integration grid :    42 points, outermost radius =    5.000 A
  | Found multiplier for basic radial grid :   1
  | Found angular grid specification: user-specified.
  | Specified grid contains     5 separate shells.
  | Check grid settings after all constraints further below.
  | Found free-atom valence shell :  3 s   2.000
  | Found free-atom valence shell :  3 p   2.000
  | Found free-ion valence shell :  3 s   1.000
  | Found free-ion valence shell :  3 p   1.000
  | Found hydrogenic basis function :  3 d   4.200
  | Found hydrogenic basis function :  2 p   1.400
  | Found ionic basis function :  3 s , default cutoff radius.
  Species Si                  : Missing cutoff potential type.
  Defaulting to exp(1/x)/(1-x)^2 type cutoff potential.
  Species Si: No 'logarithmic' tag. Using default grid for free atom:
  | Default logarithmic grid data [bohr] : 0.1000E-03 0.1000E+03 0.1012E+01
  | Will include ionic basis functions of  2.0-fold positive Si                   ion.
  Species Si: On-site basis accuracy parameter (for Gram-Schmidt orthonormalisation) not specified.
  Using default value basis_acc =  0.1000000E-03.
  Species Si                  : Using default innermost maximum threshold i_radial=  2 for radial functions.
  Species Si                  : Default cutoff onset for free atom density etc. : 0.35000000E+01 AA.
  Species Si                  : Basic radial grid will be enhanced according to radial_multiplier =   1, to contain    42 grid points.
 
  Finished reading input file 'control.in'. Consistency checks are next.
 
  MPI_IN_PLACE appears to work with this MPI implementation.
  | Keeping use_mpi_in_place .true. (see manual).
  Target number of points in a grid batch is not set. Defaulting to  100
  Method for grid partitioning is not set. Defaulting to parallel hash+maxmin partitioning.
  Batch size limit is not set. Defaulting to    200
  By default, will store active basis functions for each batch.
  If in need of memory, prune_basis_once .false. can be used to disable this option.
  communication_type for Hartree potential was not specified.
  Defaulting to calc_hartree .
  Defaulting to Pulay charge density mixer.
  Pulay mixer: Number of relevant iterations not set.
  Defaulting to    8 iterations.
  Pulay mixer: Number of initial linear mixing iterations not set.
  Defaulting to    0 iterations.
  Work space size for distributed Hartree potential not set.
  Defaulting to   0.200000E+03 MB.
  Mixing parameter for charge density mixing has not been set.
  Using default: charge_mix_param =     0.0500.
  The mixing parameter will be adjusted in iteration number     2 of the first full s.c.f. cycle only.
  Algorithm-dependent basis array size parameters:
  | n_max_pulay                         :        8
 * Notice: The s.c.f. convergence criterion sc_accuracy_rho was not provided.
 * We used to stop in this case, and ask the user to provide reasonable
 * scf convergence criteria. However, this led some users to employ criteria
 * that led to extremely long run times, e.g., for simple relaxation.
 * We now preset a default value for sc_accuracy_rho if it is not set.
 * You may still wish to check if this setting is too tight or too loose for your needs.
 * Based on n_atoms, FHI-aims chose sc_accuracy_rho =  0.100000E-05 .
  Maximum number of self-consistency iterations not provided.
  Presetting  1000 iterations.
  Presetting      1001 iterations before the initial mixing cycle
  is restarted anyway using the sc_init_iter criterion / keyword.
  Presetting a factor      1.000 between actual scf density residual
  and density convergence criterion sc_accuracy_rho below which sc_init_iter
  takes no effect.
 * No s.c.f. convergence criteria (sc_accuracy_*) were provided in control.in.
 * The run will proceed with a reasonable default guess, but please check whether.
 * the s.c.f. cycles seem to take too much or too little time.
  Calculation of forces was not defined in control.in. No forces will be calculated.
  Geometry relaxation not requested: no relaxation will be performed.
  No accuracy limit for integral partition fn. given. Defaulting to  0.1000E-14.
  No threshold value for u(r) in integrations given. Defaulting to  0.1000E-05.
  No occupation type (smearing scheme) given. Defaulting to Gaussian broadening, width =  0.1000E-01 eV.
  The width will be adjusted in iteration number     2 of the first full s.c.f. cycle only.
  S.C.F. convergence parameters will be adjusted in iteration number     2 of the first full s.c.f. cycle only.
  No accuracy for occupation numbers given. Defaulting to  0.1000E-12.
  No threshold value for occupation numbers given. Defaulting to  0.0000E+00.
  No accuracy for fermi level given. Defaulting to  0.1000E-19.
  Maximum # of iterations to find E_F not set. Defaulting to  200.
  Maximum number of tasks per SMP nodenot specified.
  Presetting   512 tasks.
  Will not use alltoall communication since running on < 1024 CPUs.
  Threshold for basis singularities not set.
  Default threshold for basis singularities:  0.1000E-04
  partition_type (choice of integration weights) for integrals was not specified.
  | Using a version of the partition function of Stratmann and coworkers ('stratmann_sparse').
  | At each grid point, the set of atoms used to build the partition table is smoothly restricted to
  | only those atoms whose free-atom density would be non-zero at that grid point.
  Partitioning for Hartree potential was not defined. Using partition_type for integrals.
  | Adjusted default value of keyword multip_moments_threshold to:       0.10000000E-11
  | This value may affect high angular momentum components of the Hartree potential in periodic systems.
  Spin handling was not defined in control.in. Defaulting to unpolarized case.
  Angular momentum expansion for Kerker preconditioner not set explicitly.
  | Using default value of   0
  No explicit requirement for turning off preconditioner.
  | By default, it will be turned off when the charge convergence reaches
  | sc_accuracy_rho  =   0.100000E-05
  No special mixing parameter while Kerker preconditioner is on.
  Using default: charge_mix_param =     0.0500.
  No q(lm)/r^(l+1) cutoff set for long-range Hartree potential.
  | Using default value of  0.100000E-09 .
  | Verify using the multipole_threshold keyword.
  Defaulting to new monopole extrapolation.
  Density update method: automatic selection selected.
  Using density matrix based charge density update.
 * Warning: with the KS-based density update method, collect_eigenvectors .false. is not possible.
 * The density matrix based density update will be used.
  Using density matrix based charge density update.
  Using packed matrix style: index .
  Defaulting to use time-reversal symmetry for k-point grid.
  Charge integration errors on the 3D integration grid will be compensated
  by explicit normalization and distribution of residual charges.
  Use the "compensate_multipole_errors" flag to change this behaviour.
------------------------------------------------------------


------------------------------------------------------------
          Reading geometry description geometry.in.
------------------------------------------------------------
 * Warning! You did not set the 'relativistic' flag in input file 'control.in'.
 * Since you are not attempting to treat any elements beyond Ca(Z=20), FHI-aims
 * will default to 'relativistic none'.
 * You must ensure that this is really what you want!!
 * For example, DO NOT compute total-energy differences between results from
 * different settings of the 'relativistic' flag.
  Input structure read successfully.
  The structure contains        2 atoms,  and a total of         28.000 electrons.

  Input geometry:
  | Unit cell:
  |        0.00000000        2.70800000        2.70800000
  |        2.70800000        0.00000000        2.70800000
  |        2.70800000        2.70800000        0.00000000
  | Atomic structure:
  |       Atom                x [A]            y [A]            z [A]
  |    1: Species Si            0.00000000        0.00000000        0.00000000
  |    2: Species Si            1.35400000        1.35400000        1.35400000

  Lattice parameters for 3D lattice (in Angstroms) :     3.829690    3.829690    3.829690
  Angle(s) between unit vectors (in degrees)       :    60.000000   60.000000   60.000000

  | The smallest distance between any two atoms is         2.34519679 AA.
  | The first atom of this pair is atom number                      1 .
  | The second atom of this pair is atom number                     2 .
  | Wigner-Seitz cell of the first atom image           0     0     1 .
  | (The Wigner-Seitz cell of the second atom is 0 0 0  by definition.)

  Symmetry information by spglib:
  | Precision set to  0.1E-04
  | Number of Operations  : 48
  | Space group           : 227
  | International         : Fd-3m
  | Schoenflies           : Oh^7

  Quantities derived from the lattice vectors:
  | Reciprocal lattice vector 1: -1.160115  1.160115  1.160115
  | Reciprocal lattice vector 2:  1.160115 -1.160115  1.160115
  | Reciprocal lattice vector 3:  1.160115  1.160115 -1.160115
  | Unit cell volume                               :   0.397170E+02  A^3

  Range separation radius for Ewald summation (hartree_convergence_parameter):      3.87713314 bohr.

  Fractional coordinates:
                         L1                L2                L3
       atom_frac         0.00000000        0.00000000        0.00000000  Si
       atom_frac         0.25000000        0.25000000        0.25000000  Si

  Number of empty states per atom not set in control.in - providing a guess from actual geometry.
  | Total number of empty states used during s.c.f. cycle:        6
  If you use a very high smearing, use empty_states (per atom!) in control.in to increase this value.

  Structure-dependent array size parameters: 
  | Maximum number of distinct radial functions  :        8
  | Maximum number of basis functions            :       36
  | Number of Kohn-Sham states (occupied + empty):       20
------------------------------------------------------------

------------------------------------------------------------
          Preparing all fixed parts of the calculation.
------------------------------------------------------------
  Determining machine precision:
    2.225073858507201E-308
  Setting up grids for atomic and cluster calculations.

  Creating wave function, potential, and density for free atoms.

  Species: Si

  List of occupied orbitals and eigenvalues:
    n    l              occ      energy [Ha]    energy [eV]
    1    0           2.0000       -65.445149     -1780.8531
    2    0           2.0000        -5.090624      -138.5229
    3    0           2.0000        -0.387306       -10.5391
    2    1           6.0000        -3.501074       -95.2691
    3    1           2.0000        -0.141183        -3.8418

  Creating fixed part of basis set: Ionic, confined, hydrogenic.
 
  Si                   ion:

  List of free ionic orbitals and eigenvalues:
    n    l      energy [Ha]    energy [eV]
    1    0       -66.316121     -1804.5535
    2    0        -5.938141      -161.5850
    3    0        -1.071307       -29.1517
    2    1        -4.349847      -118.3654
    3    1        -0.776664       -21.1341


  List of ionic basis orbitals and eigenvalues:
    n    l      energy [Ha]    energy [eV]    outer radius [A]
    3    0        -1.071285       -29.1512       4.214062

 
  Si                   hydrogenic:
 
  List of hydrogenic basis orbitals: 
    n    l      effective z      eigenvalue [eV]  inner max. [A]     outer max. [A]     outer radius [A]   
    3    2         4.200000       -26.6624           1.139231           1.139231           4.534782
    2    1         1.400000        -6.4613           1.472672           1.472672           4.590560
 

  Adding cutoff potential to free-atom effective potential.
  Creating atomic-like basis functions for current effective potential.

  Species Si                  :

  List of atomic basis orbitals and eigenvalues:
    n    l      energy [Ha]    energy [eV]    outer radius [A]
    1    0       -65.445149     -1780.8531       0.789468
    2    0        -5.090624      -138.5229       2.815114
    3    0        -0.387306       -10.5391       4.534782
    2    1        -3.501074       -95.2691       3.259919
    3    1        -0.141183        -3.8418       4.590560

  Assembling full basis from fixed parts.
  | Species Si :   atomic orbital   1 s accepted.
  | Species Si :   atomic orbital   2 s accepted.
  | Species Si :    ionic orbital   3 s accepted.
  | Species Si :   atomic orbital   3 s accepted.
  | Species Si :   atomic orbital   2 p accepted.
  | Species Si :   atomic orbital   3 p accepted.
  | Species Si :    hydro orbital   2 p accepted.
  | Species Si :    hydro orbital   3 d accepted.
 
  Basis size parameters after reduction:
  | Total number of radial functions:        8
  | Total number of basis functions :       36
 
  Per-task memory consumption for arrays in subroutine allocate_ext:
  |           2.068716MB.
  Testing on-site integration grid accuracy.
  |  Species  Function  <phi|h_atom|phi> (log., in eV)  <phi|h_atom|phi> (rad., in eV)
           1        1              -1780.8531022213              -1780.8524015359
           1        2               -138.5229174676               -138.5229135715
           1        3                -10.1805774130                -10.1803744744
           1        4                  5.6277005097                  5.5466643676 ***
           1        5                -95.2690610510                -95.2690610363
           1        6                 -3.8516954565                 -3.8673652321
           1        7                  6.3945271431                  6.2184343262 ***
           1        8                  6.3656980517                  6.3636026281
 * Note: Onsite integrals marked "***" above are less accurate than
 * onsite_accuracy_threshold =    0.03000 eV. Usually, this is harmless.
 * When in doubt, tighten the "radial" and/or "radial_multiplier" flags to check.

  Preparing densities etc. for the partition functions (integrals / Hartree potential).

  Preparations completed.
  max(cpu_time)          :      0.151 s.
  Wall clock time (cpu1) :      0.154 s.
------------------------------------------------------------

------------------------------------------------------------
          Begin self-consistency loop: Initialization.

          Date     :  20190817, Time     :  154134.256
------------------------------------------------------------

  Initializing index lists of integration centers etc. from given atomic structure:
  Mapping all atomic coordinates to central unit cell.

  Initializing the k-points
          Using symmetry for reducing the k-points
  | k-points reduced from:        1 to        1
  | Number of k-points                             :         1
  Forcing the eigenvectors in the calculation to be COMPLEX.
  The eigenvectors in the calculations are COMPLEX.
  | Number of basis functions in the Hamiltonian integrals :      1472
  | Number of basis functions in a single unit cell        :        36
  | Number of centers in hartree potential         :       732
  | Number of centers in hartree multipole         :       318
  | Number of centers in electron density summation:       198
  | Number of centers in basis integrals           :       228
  | Number of centers in integrals                 :       101
  | Number of centers in hamiltonian               :       198
  | Consuming          1 KiB for k_phase.
  | Number of super-cells (origin) [n_cells]                     :        2197
  | Number of super-cells (after PM_index) [n_cells]             :         112
  | Number of super-cells in hamiltonian [n_cells_in_hamiltonian]:         112
  | Size of matrix packed + index [n_hamiltonian_matrix_size] :       43359
  | Estimated reciprocal-space cutoff momentum G_max:         2.40812425 bohr^-1 .
  | Reciprocal lattice points for long-range Hartree potential:      58
  Using simple linear distribution as default method for k-point parallelism.
  * Using 8 tasks for Scalapack Eigenvalue solver.
  Detailed listing of tasks and assigned k-points:
   Task     0 k-point     1 on co1631
   Task     1 k-point     1 on co1631
   Task     2 k-point     1 on co1631
   Task     3 k-point     1 on co1631
   Task     4 k-point     1 on co1631
   Task     5 k-point     1 on co1631
   Task     6 k-point     1 on co1631
   Task     7 k-point     1 on co1631
  K-point:     1 Tasks:     8 split into      4 X      2 BLACS grid
  Calculating block size based on n_basis =           36  max_nprow =            4  max_npcol =            2
  ScaLAPACK block size set to:            8
  Allocating        0.004 MB for ovlp_complex
  Allocating        0.004 MB for ham_complex
  Allocating        0.004 MB for eigenvec_complex
  Required Scalapack workspace - INTEGER:            1  REAL:             1  COMPLEX:            1
  Partitioning the integration grid into batches with parallel hashing+maxmin method.
  | Number of batches:      162
  | Maximal batch size:     117
  | Minimal batch size:      50
  | Average batch size:      69.185
  | Standard deviation of batch sizes:      18.141

  Integration load balanced across     8 MPI tasks.
  Work distribution over tasks is as follows:
  Task     0 has       1391 integration points.
  Task     1 has       1403 integration points.
  Task     2 has       1402 integration points.
  Task     3 has       1369 integration points.
  Task     4 has       1408 integration points.
  Task     5 has       1437 integration points.
  Task     6 has       1407 integration points.
  Task     7 has       1391 integration points.
  Initializing partition tables, free-atom densities, potentials, etc. across the integration grid (initialize_grid_storage).
  | initialize_grid_storage: Actual outermost partition radius vs. multipole_radius_free
  | (-- VB: in principle, multipole_radius_free should be larger, hence this output)
  | Species        1: Confinement radius =              4.999999999999999 AA, multipole_radius_free =              5.000694715736543 AA.
  | Species        1: outer_partition_radius set to              5.000694715736543 AA .
  | The sparse table of interatomic distances needs        255.65 kbyte instead of       415.87 kbyte of memory.
  | Net number of integration points:    11208
  | of which are non-zero points    :     9772
  | Numerical average free-atom electrostatic potential    :    -13.25646756 eV
  Renormalizing the initial density to the exact electron count on the 3D integration grid.
  | Initial density: Formal number of electrons (from input files) :      28.0000000000
  | Integrated number of electrons on 3D grid     :      28.0050696227
  | Charge integration error                      :       0.0050696227
  | Normalization factor for density and gradient :       0.9998189748
  Renormalizing the free-atom superposition density to the exact electron count on the 3D integration grid.
  | Formal number of electrons (from input files) :      28.0000000000
  | Integrated number of electrons on 3D grid     :      28.0050696227
  | Charge integration error                      :       0.0050696227
  | Normalization factor for density and gradient :       0.9998189748
  Obtaining max. number of non-zero basis functions in each batch (get_n_compute_maxes).
  | Maximal number of non-zero basis functions:      460 in task     0
  | Maximal number of non-zero basis functions:      448 in task     1
  | Maximal number of non-zero basis functions:      460 in task     2
  | Maximal number of non-zero basis functions:      461 in task     3
  | Maximal number of non-zero basis functions:      458 in task     4
  | Maximal number of non-zero basis functions:      462 in task     5
  | Maximal number of non-zero basis functions:      464 in task     6
  | Maximal number of non-zero basis functions:      478 in task     7
  Integrating Hamiltonian matrix: batch-based integration.
  Time summed over all CPUs for integration: real work        0.414 s, elapsed        0.429 s
  Integrating overlap matrix.
  Time summed over all CPUs for integration: real work        0.274 s, elapsed        0.291 s
  Decreasing sparse matrix size:
   Tolerance:  9.999999824516700E-014
   Hamiltonian matrix
  | Array has    37037 nonzero elements out of    43359 elements
  | Sparsity factor is 0.146
   Overlap matrix
  | Array has    36108 nonzero elements out of    43359 elements
  | Sparsity factor is 0.167
  New size of hamiltonian matrix:       37295
  Deallocating overlap matrix.

  Updating density matrix using ELSI and the libOMM density matrix solver.
  Starting ELPA eigensolver
  Finished Cholesky decomposition
  | Time :     0.001 s
  Finished transformation to standard eigenproblem
  | Time :     0.001 s
  Finished solving standard eigenproblem
  | Time :     0.001 s
  Finished back-transformation of eigenvectors
  | Time :     0.000 s
  Finished density matrix calculation
  | Time :     0.000 s
  Calculating total energy contributions from superposition of free atom densities.

  Total energy components:
  | Sum of eigenvalues            :        -327.35698675 Ha       -8907.83683508 eV
  | XC energy correction          :         -41.59204513 Ha       -1131.77713217 eV
  | XC potential correction       :          53.71856971 Ha        1461.75665512 eV
  | Free-atom electrostatic energy:        -262.98289714 Ha       -7156.12873093 eV
  | Hartree energy correction     :           0.00000000 Ha           0.00000000 eV
  | Entropy correction            :           0.00000000 Ha           0.00000000 eV
  | ---------------------------
  | Total energy                  :        -578.21335930 Ha      -15733.98604306 eV
  | Total energy, T -> 0          :        -578.21335930 Ha      -15733.98604306 eV  <-- do not rely on this value for anything but (periodic) metals
  | Electronic free energy        :        -578.21335930 Ha      -15733.98604306 eV

  Derived energy quantities:
  | Kinetic energy                :         578.68046154 Ha       15746.69654156 eV
  | Electrostatic energy          :       -1115.30177571 Ha      -30348.90545245 eV
  | Energy correction for multipole
  | error in Hartree potential    :           0.00000000 Ha           0.00000000 eV
  | Sum of eigenvalues per atom                           :       -4453.91841754 eV
  | Total energy (T->0) per atom                          :       -7866.99302153 eV  <-- do not rely on this value for anything but (periodic) metals
  | Electronic free energy per atom                       :       -7866.99302153 eV
  Initialize hartree_potential_storage
  Max. number of atoms included in rho_multipole:            2

  End scf initialization - timings             :  max(cpu_time)    wall_clock(cpu1)
  | Time for scf. initialization               :        0.214 s           0.214 s
  | Boundary condition initialization          :        0.049 s           0.049 s
  | Integration                                :        0.093 s           0.093 s
  | Solution of K.-S. eqns.                    :        0.003 s           0.003 s
  | Grid partitioning                          :        0.018 s           0.018 s
  | Preloading free-atom quantities on grid    :        0.001 s           0.002 s
  | Free-atom superposition energy             :        0.006 s           0.005 s
  | Total energy evaluation                    :        0.000 s           0.001 s

  Partial memory accounting:
  | Current value for overall tracked memory usage:
  |   Minimum:        0.433 MB (on task 3)
  |   Maximum:        0.438 MB (on task 0)
  |   Average:        0.435 MB
  | Peak value for overall tracked memory usage:
  |   Minimum:        3.577 MB (on task 1 after allocating wave)
  |   Maximum:        3.867 MB (on task 7 after allocating wave)
  |   Average:        3.705 MB
  | Largest tracked array allocation so far:
  |   Minimum:        1.531 MB (hamiltonian_shell on task 1)
  |   Maximum:        1.743 MB (hamiltonian_shell on task 7)
  |   Average:        1.625 MB
  Note:  These values currently only include a subset of arrays which are explicitly tracked.
  The "true" memory usage will be greater.
------------------------------------------------------------

------------------------------------------------------------
          Begin self-consistency iteration #    1

  Date     :  20190817, Time     :  154134.470
------------------------------------------------------------
  Evaluating new KS density using the density matrix
  Evaluating density matrix
  Time summed over all CPUs for getting density from density matrix: real work        0.617 s, elapsed        0.641 s
  Integration grid: deviation in total charge (<rho> - N_e) =  -1.421085E-14
  Pulay mixing of updated and previous charge densities.
  Renormalizing the density to the exact electron count on the 3D integration grid.
  | Formal number of electrons (from input files) :      28.0000000000
  | Integrated number of electrons on 3D grid     :      27.9997873667
  | Charge integration error                      :      -0.0002126333
  | Normalization factor for density and gradient :       1.0000075941

  Evaluating partitioned Hartree potential by multipole expansion.
  | Original multipole sum: apparent total charge =  -0.450302E-13
  | Sum of charges compensated after spline to logarithmic grids =  -0.439466E-05
  | Analytical far-field extrapolation by fixed multipoles:
  | Hartree multipole sum: apparent total charge =   0.000000E+00
  Summing up the Hartree potential.
  Time summed over all CPUs for potential: real work        0.563 s, elapsed        0.574 s
  | RMS charge density error from multipole expansion :   0.904212E-03
  | Average real-space part of the electrostatic potential :      0.04412768 eV

  Integrating Hamiltonian matrix: batch-based integration.
  Time summed over all CPUs for integration: real work        0.417 s, elapsed        0.437 s

  Updating density matrix using ELSI and the libOMM density matrix solver.
  Starting ELPA eigensolver
  Finished transformation to standard eigenproblem
  | Time :     0.000 s
  Finished solving standard eigenproblem
  | Time :     0.001 s
  Finished back-transformation of eigenvectors
  | Time :     0.000 s
  Finished density matrix calculation
  | Time :     0.000 s

  Total energy components:
  | Sum of eigenvalues            :        -327.23540698 Ha       -8904.52848124 eV
  | XC energy correction          :         -41.59943741 Ha       -1131.97828626 eV
  | XC potential correction       :          53.72821048 Ha        1462.01899381 eV
  | Free-atom electrostatic energy:        -262.98289714 Ha       -7156.12873093 eV
  | Hartree energy correction     :          -0.11983094 Ha          -3.26076583 eV
  | Entropy correction            :           0.00000000 Ha           0.00000000 eV
  | ---------------------------
  | Total energy                  :        -578.20936198 Ha      -15733.87727046 eV
  | Total energy, T -> 0          :        -578.20936198 Ha      -15733.87727046 eV  <-- do not rely on this value for anything but (periodic) metals
  | Electronic free energy        :        -578.20936198 Ha      -15733.87727046 eV

  Derived energy quantities:
  | Kinetic energy                :         578.71031695 Ha       15747.50894869 eV
  | Electrostatic energy          :       -1115.32024153 Ha      -30349.40793288 eV
  | Energy correction for multipole
  | error in Hartree potential    :           0.00113019 Ha           0.03075413 eV
  | Sum of eigenvalues per atom                           :       -4452.26424062 eV
  | Total energy (T->0) per atom                          :       -7866.93863523 eV  <-- do not rely on this value for anything but (periodic) metals
  | Electronic free energy per atom                       :       -7866.93863523 eV

  Self-consistency convergence accuracy:
  | Change of charge density      :  0.2699E+00
  | Change of sum of eigenvalues  :  0.3308E+01 eV
  | Change of total energy        :  0.1088E+00 eV

  End self-consistency iteration #     1       :  max(cpu_time)    wall_clock(cpu1)
  | Time for this iteration                    :        0.250 s           0.250 s
  | Charge density update                      :        0.081 s           0.081 s
  | Density mixing & preconditioning           :        0.038 s           0.038 s
  | Hartree multipole update                   :        0.001 s           0.001 s
  | Hartree multipole summation                :        0.073 s           0.073 s
  | Integration                                :        0.056 s           0.056 s
  | Solution of K.-S. eqns.                    :        0.001 s           0.001 s
  | Total energy evaluation                    :        0.000 s           0.000 s

  Partial memory accounting:
  | Current value for overall tracked memory usage:
  |   Minimum:        0.433 MB (on task 3)
  |   Maximum:        0.438 MB (on task 0)
  |   Average:        0.435 MB
  | Peak value for overall tracked memory usage:
  |   Minimum:        4.367 MB (on task 1 after allocating gradient_basis_wave)
  |   Maximum:        4.736 MB (on task 7 after allocating gradient_basis_wave)
  |   Average:        4.530 MB
  | Largest tracked array allocation so far:
  |   Minimum:        1.531 MB (hamiltonian_shell on task 1)
  |   Maximum:        1.743 MB (hamiltonian_shell on task 7)
  |   Average:        1.625 MB
  Note:  These values currently only include a subset of arrays which are explicitly tracked.
  The "true" memory usage will be greater.
------------------------------------------------------------

------------------------------------------------------------
          Begin self-consistency iteration #    2

  Date     :  20190817, Time     :  154134.720
------------------------------------------------------------
  Evaluating new KS density using the density matrix
  Evaluating density matrix
  Time summed over all CPUs for getting density from density matrix: real work        0.602 s, elapsed        0.626 s
  Integration grid: deviation in total charge (<rho> - N_e) =  -1.065814E-14
  Pulay mixing of updated and previous charge densities.
  Renormalizing the density to the exact electron count on the 3D integration grid.
  | Formal number of electrons (from input files) :      28.0000000000
  | Integrated number of electrons on 3D grid     :      27.9959124182
  | Charge integration error                      :      -0.0040875818
  | Normalization factor for density and gradient :       1.0001460064

  Evaluating partitioned Hartree potential by multipole expansion.
  | Original multipole sum: apparent total charge =  -0.269796E-13
  | Sum of charges compensated after spline to logarithmic grids =  -0.862877E-04
  | Analytical far-field extrapolation by fixed multipoles:
  | Hartree multipole sum: apparent total charge =   0.000000E+00
  Summing up the Hartree potential.
  Time summed over all CPUs for potential: real work        0.663 s, elapsed        0.674 s
  | RMS charge density error from multipole expansion :   0.178453E-01
  | Average real-space part of the electrostatic potential :      0.86265405 eV

  Integrating Hamiltonian matrix: batch-based integration.
  Time summed over all CPUs for integration: real work        0.416 s, elapsed        0.435 s

  Updating density matrix using ELSI and the libOMM density matrix solver.
  Starting ELPA eigensolver
  Finished transformation to standard eigenproblem
  | Time :     0.000 s
  Finished solving standard eigenproblem
  | Time :     0.001 s
  Finished back-transformation of eigenvectors
  | Time :     0.000 s
  Finished density matrix calculation
  | Time :     0.000 s

  Total energy components:
  | Sum of eigenvalues            :        -324.93454895 Ha       -8841.91894892 eV
  | XC energy correction          :         -41.81832795 Ha       -1137.93460086 eV
  | XC potential correction       :          54.00610765 Ha        1469.58096070 eV
  | Free-atom electrostatic energy:        -262.98289714 Ha       -7156.12873093 eV
  | Hartree energy correction     :          -2.44460014 Ha         -66.52095440 eV
  | Entropy correction            :           0.00000000 Ha           0.00000000 eV
  | ---------------------------
  | Total energy                  :        -578.17426653 Ha      -15732.92227442 eV
  | Total energy, T -> 0          :        -578.17426653 Ha      -15732.92227442 eV  <-- do not rely on this value for anything but (periodic) metals
  | Electronic free energy        :        -578.17426653 Ha      -15732.92227442 eV

  Derived energy quantities:
  | Kinetic energy                :         579.17020528 Ha       15760.02314682 eV
  | Electrostatic energy          :       -1115.52614386 Ha      -30355.01082038 eV
  | Energy correction for multipole
  | error in Hartree potential    :           0.02166710 Ha           0.58959185 eV
  | Sum of eigenvalues per atom                           :       -4420.95947446 eV
  | Total energy (T->0) per atom                          :       -7866.46113721 eV  <-- do not rely on this value for anything but (periodic) metals
  | Electronic free energy per atom                       :       -7866.46113721 eV

  Self-consistency convergence accuracy:
  | Change of charge density      :  0.2562E+00
  | Change of sum of eigenvalues  :  0.6261E+02 eV
  | Change of total energy        :  0.9550E+00 eV

  End self-consistency iteration #     2       :  max(cpu_time)    wall_clock(cpu1)
  | Time for this iteration                    :        0.258 s           0.259 s
  | Charge density update                      :        0.079 s           0.079 s
  | Density mixing & preconditioning           :        0.037 s           0.036 s
  | Hartree multipole update                   :        0.001 s           0.001 s
  | Hartree multipole summation                :        0.086 s           0.086 s
  | Integration                                :        0.055 s           0.055 s
  | Solution of K.-S. eqns.                    :        0.001 s           0.001 s
  | Total energy evaluation                    :        0.000 s           0.000 s

  Partial memory accounting:
  | Current value for overall tracked memory usage:
  |   Minimum:        0.434 MB (on task 3)
  |   Maximum:        0.439 MB (on task 0)
  |   Average:        0.435 MB
  | Peak value for overall tracked memory usage:
  |   Minimum:        4.367 MB (on task 1 after allocating gradient_basis_wave)
  |   Maximum:        4.736 MB (on task 7 after allocating gradient_basis_wave)
  |   Average:        4.530 MB
  | Largest tracked array allocation so far:
  |   Minimum:        1.531 MB (hamiltonian_shell on task 1)
  |   Maximum:        1.743 MB (hamiltonian_shell on task 7)
  |   Average:        1.625 MB
  Note:  These values currently only include a subset of arrays which are explicitly tracked.
  The "true" memory usage will be greater.
------------------------------------------------------------

------------------------------------------------------------
          Begin self-consistency iteration #    3

  Date     :  20190817, Time     :  154134.979
------------------------------------------------------------
  Evaluating new KS density using the density matrix
  Evaluating density matrix
  Time summed over all CPUs for getting density from density matrix: real work        0.598 s, elapsed        0.621 s
  Integration grid: deviation in total charge (<rho> - N_e) =  -7.105427E-15
  Pulay mixing of updated and previous charge densities.
  Renormalizing the density to the exact electron count on the 3D integration grid.
  | Formal number of electrons (from input files) :      28.0000000000
  | Integrated number of electrons on 3D grid     :      27.9979569852
  | Charge integration error                      :      -0.0020430148
  | Normalization factor for density and gradient :       1.0000729701

  Evaluating partitioned Hartree potential by multipole expansion.
  | Original multipole sum: apparent total charge =  -0.227052E-14
  | Sum of charges compensated after spline to logarithmic grids =  -0.878608E-04
  | Analytical far-field extrapolation by fixed multipoles:
  | Hartree multipole sum: apparent total charge =   0.000000E+00
  Summing up the Hartree potential.
  Time summed over all CPUs for potential: real work        0.664 s, elapsed        0.676 s
  | RMS charge density error from multipole expansion :   0.198713E-01
  | Average real-space part of the electrostatic potential :      0.82192321 eV

  Integrating Hamiltonian matrix: batch-based integration.
  Time summed over all CPUs for integration: real work        0.416 s, elapsed        0.434 s

  Updating density matrix using ELSI and the libOMM density matrix solver.
  Starting ELPA eigensolver
  Finished transformation to standard eigenproblem
  | Time :     0.001 s
  Finished solving standard eigenproblem
  | Time :     0.000 s
  Finished back-transformation of eigenvectors
  | Time :     0.000 s
  Finished density matrix calculation
  | Time :     0.000 s

  Total energy components:
  | Sum of eigenvalues            :        -325.27733306 Ha       -8851.24657909 eV
  | XC energy correction          :         -41.78440124 Ha       -1137.01140834 eV
  | XC potential correction       :          53.96306626 Ha        1468.40974471 eV
  | Free-atom electrostatic energy:        -262.98289714 Ha       -7156.12873093 eV
  | Hartree energy correction     :          -2.09248379 Ha         -56.93938105 eV
  | Entropy correction            :           0.00000000 Ha           0.00000000 eV
  | ---------------------------
  | Total energy                  :        -578.17404898 Ha      -15732.91635470 eV
  | Total energy, T -> 0          :        -578.17404898 Ha      -15732.91635470 eV  <-- do not rely on this value for anything but (periodic) metals
  | Electronic free energy        :        -578.17404898 Ha      -15732.91635470 eV

  Derived energy quantities:
  | Kinetic energy                :         578.78306381 Ha       15749.48849139 eV
  | Electrostatic energy          :       -1115.17271154 Ha      -30345.39343775 eV
  | Energy correction for multipole
  | error in Hartree potential    :           0.02340028 Ha           0.63675411 eV
  | Sum of eigenvalues per atom                           :       -4425.62328955 eV
  | Total energy (T->0) per atom                          :       -7866.45817735 eV  <-- do not rely on this value for anything but (periodic) metals
  | Electronic free energy per atom                       :       -7866.45817735 eV

  Self-consistency convergence accuracy:
  | Change of charge density      :  0.2632E-01
  | Change of sum of eigenvalues  : -0.9328E+01 eV
  | Change of total energy        :  0.5920E-02 eV

  End self-consistency iteration #     3       :  max(cpu_time)    wall_clock(cpu1)
  | Time for this iteration                    :        0.258 s           0.259 s
  | Charge density update                      :        0.078 s           0.079 s
  | Density mixing & preconditioning           :        0.037 s           0.036 s
  | Hartree multipole update                   :        0.001 s           0.001 s
  | Hartree multipole summation                :        0.086 s           0.086 s
  | Integration                                :        0.055 s           0.055 s
  | Solution of K.-S. eqns.                    :        0.001 s           0.001 s
  | Total energy evaluation                    :        0.000 s           0.001 s

  Partial memory accounting:
  | Current value for overall tracked memory usage:
  |   Minimum:        0.434 MB (on task 3)
  |   Maximum:        0.439 MB (on task 0)
  |   Average:        0.435 MB
  | Peak value for overall tracked memory usage:
  |   Minimum:        4.367 MB (on task 1 after allocating gradient_basis_wave)
  |   Maximum:        4.737 MB (on task 7 after allocating gradient_basis_wave)
  |   Average:        4.531 MB
  | Largest tracked array allocation so far:
  |   Minimum:        1.531 MB (hamiltonian_shell on task 1)
  |   Maximum:        1.743 MB (hamiltonian_shell on task 7)
  |   Average:        1.625 MB
  Note:  These values currently only include a subset of arrays which are explicitly tracked.
  The "true" memory usage will be greater.
------------------------------------------------------------

------------------------------------------------------------
          Begin self-consistency iteration #    4

  Date     :  20190817, Time     :  154135.238
------------------------------------------------------------
  Evaluating new KS density using the density matrix
  Evaluating density matrix
  Time summed over all CPUs for getting density from density matrix: real work        0.599 s, elapsed        0.622 s
  Integration grid: deviation in total charge (<rho> - N_e) =  -7.105427E-15
  Pulay mixing of updated and previous charge densities.
  Renormalizing the density to the exact electron count on the 3D integration grid.
  | Formal number of electrons (from input files) :      28.0000000000
  | Integrated number of electrons on 3D grid     :      27.9993235207
  | Charge integration error                      :      -0.0006764793
  | Normalization factor for density and gradient :       1.0000241606

  Evaluating partitioned Hartree potential by multipole expansion.
  | Original multipole sum: apparent total charge =   0.462040E-14
  | Sum of charges compensated after spline to logarithmic grids =  -0.922293E-04
  | Analytical far-field extrapolation by fixed multipoles:
  | Hartree multipole sum: apparent total charge =   0.000000E+00
  Summing up the Hartree potential.
  Time summed over all CPUs for potential: real work        0.664 s, elapsed        0.676 s
  | RMS charge density error from multipole expansion :   0.212501E-01
  | Average real-space part of the electrostatic potential :      0.84955953 eV

  Integrating Hamiltonian matrix: batch-based integration.
  Time summed over all CPUs for integration: real work        0.417 s, elapsed        0.436 s

  Updating density matrix using ELSI and the libOMM density matrix solver.
  Starting ELPA eigensolver
  Finished transformation to standard eigenproblem
  | Time :     0.000 s
  Finished solving standard eigenproblem
  | Time :     0.001 s
  Finished back-transformation of eigenvectors
  | Time :     0.000 s
  Finished density matrix calculation
  | Time :     0.000 s

  Total energy components:
  | Sum of eigenvalues            :        -325.26052387 Ha       -8850.78917764 eV
  | XC energy correction          :         -41.78950942 Ha       -1137.15040883 eV
  | XC potential correction       :          53.96930760 Ha        1468.57958042 eV
  | Free-atom electrostatic energy:        -262.98289714 Ha       -7156.12873093 eV
  | Hartree energy correction     :          -2.11035737 Ha         -57.42574592 eV
  | Entropy correction            :           0.00000000 Ha           0.00000000 eV
  | ---------------------------
  | Total energy                  :        -578.17398019 Ha      -15732.91448291 eV
  | Total energy, T -> 0          :        -578.17398019 Ha      -15732.91448291 eV  <-- do not rely on this value for anything but (periodic) metals
  | Electronic free energy        :        -578.17398019 Ha      -15732.91448291 eV

  Derived energy quantities:
  | Kinetic energy                :         578.69313540 Ha       15747.04141497 eV
  | Electrostatic energy          :       -1115.07760618 Ha      -30342.80548905 eV
  | Energy correction for multipole
  | error in Hartree potential    :           0.02485500 Ha           0.67633889 eV
  | Sum of eigenvalues per atom                           :       -4425.39458882 eV
  | Total energy (T->0) per atom                          :       -7866.45724145 eV  <-- do not rely on this value for anything but (periodic) metals
  | Electronic free energy per atom                       :       -7866.45724145 eV

  Self-consistency convergence accuracy:
  | Change of charge density      :  0.1258E-01
  | Change of sum of eigenvalues  :  0.4574E+00 eV
  | Change of total energy        :  0.1872E-02 eV

  End self-consistency iteration #     4       :  max(cpu_time)    wall_clock(cpu1)
  | Time for this iteration                    :        0.258 s           0.258 s
  | Charge density update                      :        0.078 s           0.078 s
  | Density mixing & preconditioning           :        0.036 s           0.037 s
  | Hartree multipole update                   :        0.001 s           0.001 s
  | Hartree multipole summation                :        0.086 s           0.086 s
  | Integration                                :        0.055 s           0.055 s
  | Solution of K.-S. eqns.                    :        0.001 s           0.001 s
  | Total energy evaluation                    :        0.000 s           0.000 s

  Partial memory accounting:
  | Current value for overall tracked memory usage:
  |   Minimum:        0.434 MB (on task 3)
  |   Maximum:        0.439 MB (on task 0)
  |   Average:        0.435 MB
  | Peak value for overall tracked memory usage:
  |   Minimum:        4.367 MB (on task 1 after allocating gradient_basis_wave)
  |   Maximum:        4.737 MB (on task 7 after allocating gradient_basis_wave)
  |   Average:        4.531 MB
  | Largest tracked array allocation so far:
  |   Minimum:        1.531 MB (hamiltonian_shell on task 1)
  |   Maximum:        1.743 MB (hamiltonian_shell on task 7)
  |   Average:        1.625 MB
  Note:  These values currently only include a subset of arrays which are explicitly tracked.
  The "true" memory usage will be greater.
------------------------------------------------------------

------------------------------------------------------------
          Begin self-consistency iteration #    5

  Date     :  20190817, Time     :  154135.496
------------------------------------------------------------
  Evaluating new KS density using the density matrix
  Evaluating density matrix
  Time summed over all CPUs for getting density from density matrix: real work        0.597 s, elapsed        0.620 s
  Integration grid: deviation in total charge (<rho> - N_e) =  -2.486900E-14
  Pulay mixing of updated and previous charge densities.
  Renormalizing the density to the exact electron count on the 3D integration grid.
  | Formal number of electrons (from input files) :      28.0000000000
  | Integrated number of electrons on 3D grid     :      28.0012897580
  | Charge integration error                      :       0.0012897580
  | Normalization factor for density and gradient :       0.9999539393

  Evaluating partitioned Hartree potential by multipole expansion.
  | Original multipole sum: apparent total charge =  -0.259384E-13
  | Sum of charges compensated after spline to logarithmic grids =  -0.927997E-04
  | Analytical far-field extrapolation by fixed multipoles:
  | Hartree multipole sum: apparent total charge =   0.000000E+00
  Summing up the Hartree potential.
  Time summed over all CPUs for potential: real work        0.655 s, elapsed        0.666 s
  | RMS charge density error from multipole expansion :   0.212980E-01
  | Average real-space part of the electrostatic potential :      0.84905452 eV

  Integrating Hamiltonian matrix: batch-based integration.
  Time summed over all CPUs for integration: real work        0.415 s, elapsed        0.433 s

  Updating density matrix using ELSI and the libOMM density matrix solver.
  Starting ELPA eigensolver
  Finished transformation to standard eigenproblem
  | Time :     0.000 s
  Finished solving standard eigenproblem
  | Time :     0.000 s
  Finished back-transformation of eigenvectors
  | Time :     0.000 s
  Finished density matrix calculation
  | Time :     0.000 s

  Total energy components:
  | Sum of eigenvalues            :        -325.26620727 Ha       -8850.94383078 eV
  | XC energy correction          :         -41.79143924 Ha       -1137.20292202 eV
  | XC potential correction       :          53.97139233 Ha        1468.63630857 eV
  | Free-atom electrostatic energy:        -262.98289714 Ha       -7156.12873093 eV
  | Hartree energy correction     :          -2.10481614 Ha         -57.27496118 eV
  | Entropy correction            :           0.00000000 Ha           0.00000000 eV
  | ---------------------------
  | Total energy                  :        -578.17396746 Ha      -15732.91413635 eV
  | Total energy, T -> 0          :        -578.17396746 Ha      -15732.91413635 eV  <-- do not rely on this value for anything but (periodic) metals
  | Electronic free energy        :        -578.17396746 Ha      -15732.91413635 eV

  Derived energy quantities:
  | Kinetic energy                :         578.66771813 Ha       15746.34977565 eV
  | Electrostatic energy          :       -1115.05024634 Ha      -30342.06098997 eV
  | Energy correction for multipole
  | error in Hartree potential    :           0.02502223 Ha           0.68088939 eV
  | Sum of eigenvalues per atom                           :       -4425.47191539 eV
  | Total energy (T->0) per atom                          :       -7866.45706817 eV  <-- do not rely on this value for anything but (periodic) metals
  | Electronic free energy per atom                       :       -7866.45706817 eV

  Self-consistency convergence accuracy:
  | Change of charge density      :  0.4332E-02
  | Change of sum of eigenvalues  : -0.1547E+00 eV
  | Change of total energy        :  0.3466E-03 eV

  End self-consistency iteration #     5       :  max(cpu_time)    wall_clock(cpu1)
  | Time for this iteration                    :        0.256 s           0.257 s
  | Charge density update                      :        0.078 s           0.079 s
  | Density mixing & preconditioning           :        0.036 s           0.036 s
  | Hartree multipole update                   :        0.001 s           0.001 s
  | Hartree multipole summation                :        0.085 s           0.085 s
  | Integration                                :        0.055 s           0.055 s
  | Solution of K.-S. eqns.                    :        0.001 s           0.001 s
  | Total energy evaluation                    :        0.000 s           0.000 s

  Partial memory accounting:
  | Current value for overall tracked memory usage:
  |   Minimum:        0.434 MB (on task 3)
  |   Maximum:        0.439 MB (on task 0)
  |   Average:        0.435 MB
  | Peak value for overall tracked memory usage:
  |   Minimum:        4.367 MB (on task 1 after allocating gradient_basis_wave)
  |   Maximum:        4.737 MB (on task 7 after allocating gradient_basis_wave)
  |   Average:        4.531 MB
  | Largest tracked array allocation so far:
  |   Minimum:        1.531 MB (hamiltonian_shell on task 1)
  |   Maximum:        1.743 MB (hamiltonian_shell on task 7)
  |   Average:        1.625 MB
  Note:  These values currently only include a subset of arrays which are explicitly tracked.
  The "true" memory usage will be greater.
------------------------------------------------------------

------------------------------------------------------------
          Begin self-consistency iteration #    6

  Date     :  20190817, Time     :  154135.753
------------------------------------------------------------
  Evaluating new KS density using the density matrix
  Evaluating density matrix
  Time summed over all CPUs for getting density from density matrix: real work        0.602 s, elapsed        0.625 s
  Integration grid: deviation in total charge (<rho> - N_e) =  -1.421085E-14
  Pulay mixing of updated and previous charge densities.
  Renormalizing the density to the exact electron count on the 3D integration grid.
  | Formal number of electrons (from input files) :      28.0000000000
  | Integrated number of electrons on 3D grid     :      28.0004017648
  | Charge integration error                      :       0.0004017648
  | Normalization factor for density and gradient :       0.9999856515

  Evaluating partitioned Hartree potential by multipole expansion.
  | Original multipole sum: apparent total charge =  -0.148519E-13
  | Sum of charges compensated after spline to logarithmic grids =  -0.923038E-04
  | Analytical far-field extrapolation by fixed multipoles:
  | Hartree multipole sum: apparent total charge =   0.000000E+00
  Summing up the Hartree potential.
  Time summed over all CPUs for potential: real work        0.679 s, elapsed        0.697 s
  | RMS charge density error from multipole expansion :   0.212422E-01
  | Average real-space part of the electrostatic potential :      0.83984669 eV

  Integrating Hamiltonian matrix: batch-based integration.
  Time summed over all CPUs for integration: real work        0.423 s, elapsed        0.438 s

  Updating density matrix using ELSI and the libOMM density matrix solver.
  Starting ELPA eigensolver
  Finished transformation to standard eigenproblem
  | Time :     0.000 s
  Finished solving standard eigenproblem
  | Time :     0.000 s
  Finished back-transformation of eigenvectors
  | Time :     0.000 s
  Finished density matrix calculation
  | Time :     0.000 s

  Total energy components:
  | Sum of eigenvalues            :        -325.30245132 Ha       -8851.93008153 eV
  | XC energy correction          :         -41.78811260 Ha       -1137.11239939 eV
  | XC potential correction       :          53.96708550 Ha        1468.51911399 eV
  | Free-atom electrostatic energy:        -262.98289714 Ha       -7156.12873093 eV
  | Hartree energy correction     :          -2.06754438 Ha         -56.26074515 eV
  | Entropy correction            :           0.00000000 Ha           0.00000000 eV
  | ---------------------------
  | Total energy                  :        -578.17391993 Ha      -15732.91284302 eV
  | Total energy, T -> 0          :        -578.17391993 Ha      -15732.91284302 eV  <-- do not rely on this value for anything but (periodic) metals
  | Electronic free energy        :        -578.17391993 Ha      -15732.91284302 eV

  Derived energy quantities:
  | Kinetic energy                :         578.64311480 Ha       15745.68028506 eV
  | Electrostatic energy          :       -1115.02892213 Ha      -30341.48072869 eV
  | Energy correction for multipole
  | error in Hartree potential    :           0.02496736 Ha           0.67939635 eV
  | Sum of eigenvalues per atom                           :       -4425.96504077 eV
  | Total energy (T->0) per atom                          :       -7866.45642151 eV  <-- do not rely on this value for anything but (periodic) metals
  | Electronic free energy per atom                       :       -7866.45642151 eV

  Self-consistency convergence accuracy:
  | Change of charge density      :  0.3336E-02
  | Change of sum of eigenvalues  : -0.9863E+00 eV
  | Change of total energy        :  0.1293E-02 eV

  End self-consistency iteration #     6       :  max(cpu_time)    wall_clock(cpu1)
  | Time for this iteration                    :        0.265 s           0.266 s
  | Charge density update                      :        0.079 s           0.079 s
  | Density mixing & preconditioning           :        0.040 s           0.040 s
  | Hartree multipole update                   :        0.001 s           0.001 s
  | Hartree multipole summation                :        0.089 s           0.089 s
  | Integration                                :        0.056 s           0.055 s
  | Solution of K.-S. eqns.                    :        0.001 s           0.001 s
  | Total energy evaluation                    :        0.000 s           0.001 s

  Partial memory accounting:
  | Current value for overall tracked memory usage:
  |   Minimum:        0.434 MB (on task 3)
  |   Maximum:        0.439 MB (on task 0)
  |   Average:        0.435 MB
  | Peak value for overall tracked memory usage:
  |   Minimum:        4.367 MB (on task 1 after allocating gradient_basis_wave)
  |   Maximum:        4.737 MB (on task 7 after allocating gradient_basis_wave)
  |   Average:        4.531 MB
  | Largest tracked array allocation so far:
  |   Minimum:        1.531 MB (hamiltonian_shell on task 1)
  |   Maximum:        1.743 MB (hamiltonian_shell on task 7)
  |   Average:        1.625 MB
  Note:  These values currently only include a subset of arrays which are explicitly tracked.
  The "true" memory usage will be greater.
------------------------------------------------------------

------------------------------------------------------------
          Begin self-consistency iteration #    7

  Date     :  20190817, Time     :  154136.019
------------------------------------------------------------
  Evaluating new KS density using the density matrix
  Evaluating density matrix
  Time summed over all CPUs for getting density from density matrix: real work        0.610 s, elapsed        0.630 s
  Integration grid: deviation in total charge (<rho> - N_e) =  -1.776357E-14
  Pulay mixing of updated and previous charge densities.
  Renormalizing the density to the exact electron count on the 3D integration grid.
  | Formal number of electrons (from input files) :      28.0000000000
  | Integrated number of electrons on 3D grid     :      28.0003652262
  | Charge integration error                      :       0.0003652262
  | Normalization factor for density and gradient :       0.9999869564

  Evaluating partitioned Hartree potential by multipole expansion.
  | Original multipole sum: apparent total charge =  -0.363411E-13
  | Sum of charges compensated after spline to logarithmic grids =  -0.921142E-04
  | Analytical far-field extrapolation by fixed multipoles:
  | Hartree multipole sum: apparent total charge =   0.000000E+00
  Summing up the Hartree potential.
  Time summed over all CPUs for potential: real work        0.679 s, elapsed        0.697 s
  | RMS charge density error from multipole expansion :   0.212575E-01
  | Average real-space part of the electrostatic potential :      0.83706978 eV

  Integrating Hamiltonian matrix: batch-based integration.
  Time summed over all CPUs for integration: real work        0.419 s, elapsed        0.437 s

  Updating density matrix using ELSI and the libOMM density matrix solver.
  Starting ELPA eigensolver
  Finished transformation to standard eigenproblem
  | Time :     0.000 s
  Finished solving standard eigenproblem
  | Time :     0.000 s
  Finished back-transformation of eigenvectors
  | Time :     0.000 s
  Finished density matrix calculation
  | Time :     0.001 s

  Total energy components:
  | Sum of eigenvalues            :        -325.30493352 Ha       -8851.99762582 eV
  | XC energy correction          :         -41.78876656 Ha       -1137.13019469 eV
  | XC potential correction       :          53.96798114 Ha        1468.54348541 eV
  | Free-atom electrostatic energy:        -262.98289714 Ha       -7156.12873093 eV
  | Hartree energy correction     :          -2.06528036 Ha         -56.19913803 eV
  | Entropy correction            :           0.00000000 Ha           0.00000000 eV
  | ---------------------------
  | Total energy                  :        -578.17389645 Ha      -15732.91220405 eV
  | Total energy, T -> 0          :        -578.17389645 Ha      -15732.91220405 eV  <-- do not rely on this value for anything but (periodic) metals
  | Electronic free energy        :        -578.17389645 Ha      -15732.91220405 eV

  Derived energy quantities:
  | Kinetic energy                :         578.68635984 Ha       15746.85704244 eV
  | Electrostatic energy          :       -1115.07148972 Ha      -30342.63905180 eV
  | Energy correction for multipole
  | error in Hartree potential    :           0.02501239 Ha           0.68062182 eV
  | Sum of eigenvalues per atom                           :       -4425.99881291 eV
  | Total energy (T->0) per atom                          :       -7866.45610203 eV  <-- do not rely on this value for anything but (periodic) metals
  | Electronic free energy per atom                       :       -7866.45610203 eV

  Self-consistency convergence accuracy:
  | Change of charge density      :  0.2252E-02
  | Change of sum of eigenvalues  : -0.6754E-01 eV
  | Change of total energy        :  0.6390E-03 eV

  End self-consistency iteration #     7       :  max(cpu_time)    wall_clock(cpu1)
  | Time for this iteration                    :        0.266 s           0.266 s
  | Charge density update                      :        0.079 s           0.079 s
  | Density mixing & preconditioning           :        0.040 s           0.041 s
  | Hartree multipole update                   :        0.001 s           0.000 s
  | Hartree multipole summation                :        0.089 s           0.089 s
  | Integration                                :        0.055 s           0.056 s
  | Solution of K.-S. eqns.                    :        0.001 s           0.001 s
  | Total energy evaluation                    :        0.000 s           0.000 s

  Partial memory accounting:
  | Current value for overall tracked memory usage:
  |   Minimum:        0.434 MB (on task 3)
  |   Maximum:        0.439 MB (on task 0)
  |   Average:        0.435 MB
  | Peak value for overall tracked memory usage:
  |   Minimum:        4.367 MB (on task 1 after allocating gradient_basis_wave)
  |   Maximum:        4.737 MB (on task 7 after allocating gradient_basis_wave)
  |   Average:        4.531 MB
  | Largest tracked array allocation so far:
  |   Minimum:        1.531 MB (hamiltonian_shell on task 1)
  |   Maximum:        1.743 MB (hamiltonian_shell on task 7)
  |   Average:        1.625 MB
  Note:  These values currently only include a subset of arrays which are explicitly tracked.
  The "true" memory usage will be greater.
------------------------------------------------------------

------------------------------------------------------------
          Begin self-consistency iteration #    8

  Date     :  20190817, Time     :  154136.285
------------------------------------------------------------
  Evaluating new KS density using the density matrix
  Evaluating density matrix
  Time summed over all CPUs for getting density from density matrix: real work        0.611 s, elapsed        0.631 s
  Integration grid: deviation in total charge (<rho> - N_e) =   1.776357E-14
  Pulay mixing of updated and previous charge densities.
  Renormalizing the density to the exact electron count on the 3D integration grid.
  | Formal number of electrons (from input files) :      28.0000000000
  | Integrated number of electrons on 3D grid     :      28.0000102974
  | Charge integration error                      :       0.0000102974
  | Normalization factor for density and gradient :       0.9999996322

  Evaluating partitioned Hartree potential by multipole expansion.
  | Original multipole sum: apparent total charge =   0.971287E-15
  | Sum of charges compensated after spline to logarithmic grids =  -0.921371E-04
  | Analytical far-field extrapolation by fixed multipoles:
  | Hartree multipole sum: apparent total charge =   0.000000E+00
  Summing up the Hartree potential.
  Time summed over all CPUs for potential: real work        0.676 s, elapsed        0.691 s
  | RMS charge density error from multipole expansion :   0.212673E-01
  | Average real-space part of the electrostatic potential :      0.83699166 eV

  Integrating Hamiltonian matrix: batch-based integration.
  Time summed over all CPUs for integration: real work        0.421 s, elapsed        0.437 s

  Updating density matrix using ELSI and the libOMM density matrix solver.
  Starting ELPA eigensolver
  Finished transformation to standard eigenproblem
  | Time :     0.001 s
  Finished solving standard eigenproblem
  | Time :     0.000 s
  Finished back-transformation of eigenvectors
  | Time :     0.000 s
  Finished density matrix calculation
  | Time :     0.000 s

  Total energy components:
  | Sum of eigenvalues            :        -325.30590114 Ha       -8852.02395617 eV
  | XC energy correction          :         -41.78872056 Ha       -1137.12894296 eV
  | XC potential correction       :          53.96791899 Ha        1468.54179428 eV
  | Free-atom electrostatic energy:        -262.98289714 Ha       -7156.12873093 eV
  | Hartree energy correction     :          -2.06429459 Ha         -56.17231381 eV
  | Entropy correction            :           0.00000000 Ha           0.00000000 eV
  | ---------------------------
  | Total energy                  :        -578.17389444 Ha      -15732.91214960 eV
  | Total energy, T -> 0          :        -578.17389444 Ha      -15732.91214960 eV  <-- do not rely on this value for anything but (periodic) metals
  | Electronic free energy        :        -578.17389444 Ha      -15732.91214960 eV

  Derived energy quantities:
  | Kinetic energy                :         578.68534918 Ha       15746.82954105 eV
  | Electrostatic energy          :       -1115.07052306 Ha      -30342.61274769 eV
  | Energy correction for multipole
  | error in Hartree potential    :           0.02502320 Ha           0.68091587 eV
  | Sum of eigenvalues per atom                           :       -4426.01197809 eV
  | Total energy (T->0) per atom                          :       -7866.45607480 eV  <-- do not rely on this value for anything but (periodic) metals
  | Electronic free energy per atom                       :       -7866.45607480 eV

  Self-consistency convergence accuracy:
  | Change of charge density      :  0.1386E-03
  | Change of sum of eigenvalues  : -0.2633E-01 eV
  | Change of total energy        :  0.5446E-04 eV

  End self-consistency iteration #     8       :  max(cpu_time)    wall_clock(cpu1)
  | Time for this iteration                    :        0.264 s           0.264 s
  | Charge density update                      :        0.080 s           0.080 s
  | Density mixing & preconditioning           :        0.038 s           0.038 s
  | Hartree multipole update                   :        0.001 s           0.001 s
  | Hartree multipole summation                :        0.088 s           0.088 s
  | Integration                                :        0.055 s           0.055 s
  | Solution of K.-S. eqns.                    :        0.001 s           0.002 s
  | Total energy evaluation                    :        0.000 s           0.000 s

  Partial memory accounting:
  | Current value for overall tracked memory usage:
  |   Minimum:        0.434 MB (on task 3)
  |   Maximum:        0.439 MB (on task 0)
  |   Average:        0.435 MB
  | Peak value for overall tracked memory usage:
  |   Minimum:        4.367 MB (on task 1 after allocating gradient_basis_wave)
  |   Maximum:        4.737 MB (on task 7 after allocating gradient_basis_wave)
  |   Average:        4.531 MB
  | Largest tracked array allocation so far:
  |   Minimum:        1.531 MB (hamiltonian_shell on task 1)
  |   Maximum:        1.743 MB (hamiltonian_shell on task 7)
  |   Average:        1.625 MB
  Note:  These values currently only include a subset of arrays which are explicitly tracked.
  The "true" memory usage will be greater.
------------------------------------------------------------

------------------------------------------------------------
          Begin self-consistency iteration #    9

  Date     :  20190817, Time     :  154136.549
------------------------------------------------------------
  Evaluating new KS density using the density matrix
  Evaluating density matrix
  Time summed over all CPUs for getting density from density matrix: real work        0.608 s, elapsed        0.649 s
  Integration grid: deviation in total charge (<rho> - N_e) =  -3.552714E-15
  Pulay mixing of updated and previous charge densities.
  Renormalizing the density to the exact electron count on the 3D integration grid.
  | Formal number of electrons (from input files) :      28.0000000000
  | Integrated number of electrons on 3D grid     :      28.0000136006
  | Charge integration error                      :       0.0000136006
  | Normalization factor for density and gradient :       0.9999995143

  Evaluating partitioned Hartree potential by multipole expansion.
  | Original multipole sum: apparent total charge =  -0.147053E-13
  | Sum of charges compensated after spline to logarithmic grids =  -0.921993E-04
  | Analytical far-field extrapolation by fixed multipoles:
  | Hartree multipole sum: apparent total charge =   0.000000E+00
  Summing up the Hartree potential.
  Time summed over all CPUs for potential: real work        0.676 s, elapsed        0.687 s
  | RMS charge density error from multipole expansion :   0.212543E-01
  | Average real-space part of the electrostatic potential :      0.83659656 eV

  Integrating Hamiltonian matrix: batch-based integration.
  Time summed over all CPUs for integration: real work        0.419 s, elapsed        0.439 s

  Updating density matrix using ELSI and the libOMM density matrix solver.
  Starting libOMM density matrix solver
  Finished density matrix calculation
  | Time :     0.055 s

  Total energy components:
  | Sum of eigenvalues            :        -325.30680064 Ha       -8852.04843274 eV
  | XC energy correction          :         -41.78866841 Ha       -1137.12752377 eV
  | XC potential correction       :          53.96785030 Ha        1468.53992526 eV
  | Free-atom electrostatic energy:        -262.98289714 Ha       -7156.12873093 eV
  | Hartree energy correction     :          -2.06337823 Ha         -56.14737829 eV
  | Entropy correction            :           0.00000000 Ha           0.00000000 eV
  | ---------------------------
  | Total energy                  :        -578.17389411 Ha      -15732.91214047 eV
  | Total energy, T -> 0          :        -578.17389411 Ha      -15732.91214047 eV  <-- do not rely on this value for anything but (periodic) metals
  | Electronic free energy        :        -578.17389411 Ha      -15732.91214047 eV

  Derived energy quantities:
  | Kinetic energy                :         578.68459587 Ha       15746.80904244 eV
  | Electrostatic energy          :       -1115.06982157 Ha      -30342.59365914 eV
  | Energy correction for multipole
  | error in Hartree potential    :           0.02500985 Ha           0.68055263 eV
  | Sum of eigenvalues per atom                           :       -4426.02421637 eV
[...]
  | Integration                                :        0.055 s           0.056 s
  | Solution of K.-S. eqns.                    :        0.001 s           0.001 s
  | Total energy evaluation                    :        0.000 s           0.000 s

  Partial memory accounting:
  | Current value for overall tracked memory usage:
  |   Minimum:        0.434 MB (on task 3)
  |   Maximum:        0.439 MB (on task 0)
  |   Average:        0.435 MB
  | Peak value for overall tracked memory usage:
  |   Minimum:        4.367 MB (on task 1 after allocating gradient_basis_wave)
  |   Maximum:        4.737 MB (on task 7 after allocating gradient_basis_wave)
  |   Average:        4.531 MB
  | Largest tracked array allocation so far:
  |   Minimum:        1.531 MB (hamiltonian_shell on task 1)
  |   Maximum:        1.743 MB (hamiltonian_shell on task 7)
  |   Average:        1.625 MB
  Note:  These values currently only include a subset of arrays which are explicitly tracked.
  The "true" memory usage will be greater.
------------------------------------------------------------

------------------------------------------------------------
          Begin self-consistency iteration #   16

  Date     :  20190817, Time     :  154138.423
------------------------------------------------------------
  Evaluating new KS density using the density matrix
  Evaluating density matrix
  Time summed over all CPUs for getting density from density matrix: real work        0.609 s, elapsed        0.628 s
  Integration grid: deviation in total charge (<rho> - N_e) =  -1.880807E-11
  Pulay mixing of updated and previous charge densities.
  Renormalizing the density to the exact electron count on the 3D integration grid.
  | Formal number of electrons (from input files) :      28.0000000000
  | Integrated number of electrons on 3D grid     :      27.9999990791
  | Charge integration error                      :      -0.0000009209
  | Normalization factor for density and gradient :       1.0000000329

  Evaluating partitioned Hartree potential by multipole expansion.
  | Original multipole sum: apparent total charge =  -0.333672E-13
  | Sum of charges compensated after spline to logarithmic grids =  -0.921968E-04
  | Analytical far-field extrapolation by fixed multipoles:
  | Hartree multipole sum: apparent total charge =   0.000000E+00
  Summing up the Hartree potential.
  Time summed over all CPUs for potential: real work        0.678 s, elapsed        0.695 s
  | RMS charge density error from multipole expansion :   0.212546E-01
  | Average real-space part of the electrostatic potential :      0.83656198 eV

  Integrating Hamiltonian matrix: batch-based integration.
  Time summed over all CPUs for integration: real work        0.422 s, elapsed        0.439 s

  Updating density matrix using ELSI and the libOMM density matrix solver.
  Starting libOMM density matrix solver
  Finished density matrix calculation
  | Time :     0.000 s

  Total energy components:
  | Sum of eigenvalues            :        -325.30695723 Ha       -8852.05269382 eV
  | XC energy correction          :         -41.78865449 Ha       -1137.12714519 eV
  | XC potential correction       :          53.96783199 Ha        1468.53942696 eV
  | Free-atom electrostatic energy:        -262.98289714 Ha       -7156.12873093 eV
  | Hartree energy correction     :          -2.06321710 Ha         -56.14299385 eV
  | Entropy correction            :           0.00000000 Ha           0.00000000 eV
  | ---------------------------
  | Total energy                  :        -578.17389398 Ha      -15732.91213684 eV
  | Total energy, T -> 0          :        -578.17389398 Ha      -15732.91213684 eV  <-- do not rely on this value for anything but (periodic) metals
  | Electronic free energy        :        -578.17389398 Ha      -15732.91213684 eV

  Derived energy quantities:
  | Kinetic energy                :         578.68443596 Ha       15746.80469117 eV
  | Electrostatic energy          :       -1115.06967544 Ha      -30342.58968282 eV
  | Energy correction for multipole
  | error in Hartree potential    :           0.02500962 Ha           0.68054626 eV
  | Sum of eigenvalues per atom                           :       -4426.02634691 eV
  | Total energy (T->0) per atom                          :       -7866.45606842 eV  <-- do not rely on this value for anything but (periodic) metals
  | Electronic free energy per atom                       :       -7866.45606842 eV

  Self-consistency convergence accuracy:
  | Change of charge density      :  0.1373E-05
  | Change of sum of eigenvalues  : -0.6507E-03 eV
  | Change of total energy        :  0.1577E-06 eV

  End self-consistency iteration #    16       :  max(cpu_time)    wall_clock(cpu1)
  | Time for this iteration                    :        0.262 s           0.263 s
  | Charge density update                      :        0.079 s           0.079 s
  | Density mixing & preconditioning           :        0.037 s           0.037 s
  | Hartree multipole update                   :        0.001 s           0.001 s
  | Hartree multipole summation                :        0.089 s           0.089 s
  | Integration                                :        0.056 s           0.055 s
  | Solution of K.-S. eqns.                    :        0.001 s           0.001 s
  | Total energy evaluation                    :        0.000 s           0.000 s

  Partial memory accounting:
  | Current value for overall tracked memory usage:
  |   Minimum:        0.434 MB (on task 3)
  |   Maximum:        0.439 MB (on task 0)
  |   Average:        0.435 MB
  | Peak value for overall tracked memory usage:
  |   Minimum:        4.367 MB (on task 1 after allocating gradient_basis_wave)
  |   Maximum:        4.737 MB (on task 7 after allocating gradient_basis_wave)
  |   Average:        4.531 MB
  | Largest tracked array allocation so far:
  |   Minimum:        1.531 MB (hamiltonian_shell on task 1)
  |   Maximum:        1.743 MB (hamiltonian_shell on task 7)
  |   Average:        1.625 MB
  Note:  These values currently only include a subset of arrays which are explicitly tracked.
  The "true" memory usage will be greater.
------------------------------------------------------------

------------------------------------------------------------
          Begin self-consistency iteration #   17

  Date     :  20190817, Time     :  154138.686
------------------------------------------------------------
  Evaluating new KS density using the density matrix
  Evaluating density matrix
  Time summed over all CPUs for getting density from density matrix: real work        0.611 s, elapsed        0.631 s
  Integration grid: deviation in total charge (<rho> - N_e) =  -1.843148E-11
  Pulay mixing of updated and previous charge densities.
  Renormalizing the density to the exact electron count on the 3D integration grid.
  | Formal number of electrons (from input files) :      28.0000000000
  | Integrated number of electrons on 3D grid     :      27.9999998403
  | Charge integration error                      :      -0.0000001597
  | Normalization factor for density and gradient :       1.0000000057

  Evaluating partitioned Hartree potential by multipole expansion.
  | Original multipole sum: apparent total charge =  -0.500800E-13
  | Sum of charges compensated after spline to logarithmic grids =  -0.921966E-04
  | Analytical far-field extrapolation by fixed multipoles:
  | Hartree multipole sum: apparent total charge =   0.000000E+00
  Summing up the Hartree potential.
  Time summed over all CPUs for potential: real work        0.682 s, elapsed        0.699 s
  | RMS charge density error from multipole expansion :   0.212546E-01
  | Average real-space part of the electrostatic potential :      0.83656134 eV

  Integrating Hamiltonian matrix: batch-based integration.
  Time summed over all CPUs for integration: real work        0.423 s, elapsed        0.442 s

  Updating density matrix using ELSI and the libOMM density matrix solver.
  Starting libOMM density matrix solver
  Finished density matrix calculation
  | Time :     0.001 s

  Total energy components:
  | Sum of eigenvalues            :        -325.30696082 Ha       -8852.05279134 eV
  | XC energy correction          :         -41.78865414 Ha       -1137.12713566 eV
  | XC potential correction       :          53.96783152 Ha        1468.53941420 eV
  | Free-atom electrostatic energy:        -262.98289714 Ha       -7156.12873093 eV
  | Hartree energy correction     :          -2.06321340 Ha         -56.14289311 eV
  | Entropy correction            :           0.00000000 Ha           0.00000000 eV
  | ---------------------------
  | Total energy                  :        -578.17389398 Ha      -15732.91213685 eV
  | Total energy, T -> 0          :        -578.17389398 Ha      -15732.91213685 eV  <-- do not rely on this value for anything but (periodic) metals
  | Electronic free energy        :        -578.17389398 Ha      -15732.91213685 eV

  Derived energy quantities:
  | Kinetic energy                :         578.68443458 Ha       15746.80465352 eV
  | Electrostatic energy          :       -1115.06967441 Ha      -30342.58965471 eV
  | Energy correction for multipole
  | error in Hartree potential    :           0.02500959 Ha           0.68054562 eV
  | Sum of eigenvalues per atom                           :       -4426.02639567 eV
  | Total energy (T->0) per atom                          :       -7866.45606842 eV  <-- do not rely on this value for anything but (periodic) metals
  | Electronic free energy per atom                       :       -7866.45606842 eV

  Self-consistency convergence accuracy:
  | Change of charge density      :  0.7639E-06
  | Change of sum of eigenvalues  : -0.9753E-04 eV
  | Change of total energy        : -0.1044E-07 eV

  Preliminary charge convergence reached. Turning off preconditioner.


  Self-consistency cycle converged.

  End self-consistency iteration #    17       :  max(cpu_time)    wall_clock(cpu1)
  | Time for this iteration                    :        0.264 s           0.264 s
  | Charge density update                      :        0.080 s           0.079 s
  | Density mixing                             :        0.037 s           0.038 s
  | Hartree multipole update                   :        0.001 s           0.001 s
  | Hartree multipole summation                :        0.089 s           0.089 s
  | Integration                                :        0.056 s           0.056 s
  | Solution of K.-S. eqns.                    :        0.001 s           0.001 s
  | Total energy evaluation                    :        0.000 s           0.000 s

  Partial memory accounting:
  | Current value for overall tracked memory usage:
  |   Minimum:        0.434 MB (on task 3)
  |   Maximum:        0.439 MB (on task 0)
  |   Average:        0.435 MB
  | Peak value for overall tracked memory usage:
  |   Minimum:        4.367 MB (on task 1 after allocating gradient_basis_wave)
  |   Maximum:        4.737 MB (on task 7 after allocating gradient_basis_wave)
  |   Average:        4.531 MB
  | Largest tracked array allocation so far:
  |   Minimum:        1.531 MB (hamiltonian_shell on task 1)
  |   Maximum:        1.743 MB (hamiltonian_shell on task 7)
  |   Average:        1.625 MB
  Note:  These values currently only include a subset of arrays which are explicitly tracked.
  The "true" memory usage will be greater.
------------------------------------------------------------

  Energy and forces in a compact form:
  | Total energy uncorrected      :         -0.157329121368489E+05 eV
  | Total energy corrected        :         -0.157329121368489E+05 eV  <-- do not rely on this value for anything but (periodic) metals
  | Electronic free energy        :         -0.157329121368489E+05 eV

  ------------------------------------ 
  Start decomposition of the XC Energy 
  ------------------------------------ 
  X and C from original XC functional choice 
  Hartree-Fock Energy :          0.000000000 Ha              0.000000000 eV
  X Energy            :        -40.709584983 Ha          -1107.764169801 eV
  C Energy            :         -1.079069162 Ha            -29.362965862 eV
  Total XC Energy     :        -41.788654144 Ha          -1137.127135663 eV
  ------------------------------------ 
  LDA X and C from self-consistent density 
  X Energy LDA        :        -37.640513290 Ha          -1024.250479898 eV
  C Energy LDA        :         -2.153958040 Ha            -58.612180413 eV
  ------------------------------------ 
  End decomposition of the XC Energy 
  ------------------------------------ 

------------------------------------------------------------
  |------------------------------------------------------
  | Final ELSI Output
  |------------------------------------------------------
  |
  | Physical Properties
  |   Number of electrons       :        0.28000000E+02
  |   Number of spins           :                     1
  |   Number of k-points        :                     1
  |
  | Matrix Properties
  |   Matrix format             :           BLACS_DENSE
  |   Number of basis functions :                    36
  |   Matrix sparsity           :        0.79783951E+00
  |
  | Computational Details
  |   Parallel mode             :            MULTI_PROC
  |   Number of MPI tasks       :                     8
  |   Solver requested          :                libOMM
  |   Number of ELSI calls      :                    18
  |
  |------------------------------------------------------
  | ELSI Project (c)  elsi-interchange.org
  |------------------------------------------------------

------------------------------------------------------------------------------
  Final output of selected total energy values:

  The following output summarizes some interesting total energy values
  at the end of a run (AFTER all relaxation, molecular dynamics, etc.).

  | Total energy of the DFT / Hartree-Fock s.c.f. calculation      :         -15732.912136849 eV
  | Final zero-broadening corrected energy (caution - metals only) :         -15732.912136849 eV
  | For reference only, the value of 1 Hartree used in FHI-aims is :             27.211384500 eV
  | For reference only, the overall average (free atom contribution
  | + realspace contribution) of the electrostatic potential after
  | s.c.f. convergence is                                          :            -12.419906226 eV

  Before relying on these values, please be sure to understand exactly which
  total energy value is referred to by a given number. Different objects may
  all carry the same name 'total energy'. Definitions:

  Total energy of the DFT / Hartree-Fock s.c.f. calculation:
  | Note that this energy does not include ANY quantities calculated after the
  | s.c.f. cycle, in particular not ANY RPA, MP2, etc. many-body perturbation terms.

  Final zero-broadening corrected energy:
  | For metallic systems only, a broadening of the occupation numbers at the Fermi
  | level can be extrapolated back to zero broadening by an electron-gas inspired
  | formula. For all systems that are not real metals, this value can be
  | meaningless and should be avoided.

------------------------------------------------------------------------------
  Methods described in the following list of references were used in this FHI-aims run.
  If you publish the results, please make sure to cite these reference if they apply.
  FHI-aims is an academic code, and for our developers (often, Ph.D. students
  and postdocs), scientific credit in the community is essential.
  Thank you for helping us!

  For any use of FHI-aims, please cite:

    Volker Blum, Ralf Gehrke, Felix Hanke, Paula Havu, Ville Havu,
    Xinguo Ren, Karsten Reuter, and Matthias Scheffler
    'Ab initio molecular simulations with numeric atom-centered orbitals'
    Computer Physics Communications 180, 2175-2196 (2009)
    http://dx.doi.org/10.1016/j.cpc.2009.06.022


  The provided symmetry information was generated with SPGlib:

    Atsushi Togo, Yusuke Seto, Dimitar Pashov
    SPGlib 1.7.3 obtained from http://spglib.sourceforge.net
    Copyright (C) 2008 Atsushi Togo


  The ELSI infrastructure was used in your run to solve the Kohn-Sham electronic structure.
  Please check out http://elsi-interchange.org to learn more.
  If scalability is important for your project, please acknowledge ELSI by citing:

    V. W-z. Yu, F. Corsetti, A. Garcia, W. P. Huhn, M. Jacquelin, W. Jia,
    B. Lange, L. Lin, J. Lu, W. Mi, A. Seifitokaldani, A. Vazquez-Mayagoitia,
    C. Yang, H. Yang, and V. Blum
    'ELSI: A unified software interface for Kohn-Sham electronic structure solvers'
    Computer Physics Communications 222, 267-285 (2018).
    http://dx.doi.org/10.1016/j.cpc.2017.09.007


  For the real-space grid partitioning and parallelization used in this calculation, please cite:

    Ville Havu, Volker Blum, Paula Havu, and Matthias Scheffler,
    'Efficient O(N) integration for all-electron electronic structure calculation'
    'using numerically tabulated basis functions'
    Journal of Computational Physics 228, 8367-8379 (2009).
    http://dx.doi.org/10.1016/j.jcp.2009.08.008

  Of course, there are many other important community references, e.g., those cited in the
  above references. Our list is limited to references that describe implementations in the
  FHI-aims code. The reason is purely practical (length of this list) - please credit others as well.

------------------------------------------------------------
          Leaving FHI-aims.
          Date     :  20190817, Time     :  154138.952

          Computational steps:
          | Number of self-consistency cycles          :           17
          | Number of SCF (re)initializations          :            1

          Detailed time accounting                     :  max(cpu_time)    wall_clock(cpu1)
          | Total time                                 :        4.860 s           4.917 s
          | Preparation time                           :        0.151 s           0.154 s
          | Boundary condition initalization           :        0.049 s           0.049 s
          | Grid partitioning                          :        0.018 s           0.018 s
          | Preloading free-atom quantities on grid    :        0.001 s           0.002 s
          | Free-atom superposition energy             :        0.006 s           0.005 s
          | Total time for integrations                :        1.033 s           1.031 s
          | Total time for solution of K.-S. equations :        0.022 s           0.076 s
          | Total time for density update              :        1.349 s           1.347 s
          | Total time for mixing & preconditioning    :        0.636 s           0.636 s
          | Total time for Hartree multipole update    :        0.013 s           0.015 s
          | Total time for Hartree multipole sum       :        1.459 s           1.461 s
          | Total time for total energy evaluation     :        0.003 s           0.003 s

          Partial memory accounting:
          | Residual value for overall tracked memory usage across tasks:     0.000000 MB (should be 0.000000 MB)
          | Peak values for overall tracked memory usage:
          |   Minimum:        4.367 MB (on task 1 after allocating gradient_basis_wave)
          |   Maximum:        4.737 MB (on task 7 after allocating gradient_basis_wave)
          |   Average:        4.531 MB
          | Largest tracked array allocation:
          |   Minimum:        1.531 MB (hamiltonian_shell on task 1)
          |   Maximum:        1.743 MB (hamiltonian_shell on task 7)
          |   Average:        1.625 MB
          Note:  These values currently only include a subset of arrays which are explicitly tracked.
          The "true" memory usage will be greater.

          Have a nice day.
------------------------------------------------------------
