  MPI-parallelism will be employed.
------------------------------------------------------------
          Invoking FHI-aims ...
          Version 180101-
          Git rev. (modified): fa29f3a Merge branch master of fhiaims.rzberlin.mp[...]
          Compiled on 2018/01/19 at 14:47:46 on host theobook132.

          When using FHI-aims, please cite the following reference:

          Volker Blum, Ralf Gehrke, Felix Hanke, Paula Havu,
          Ville Havu, Xinguo Ren, Karsten Reuter, and Matthias Scheffler,
          'Ab Initio Molecular Simulations with Numeric Atom-Centered Orbitals',
          Computer Physics Communications 180, 2175-2196 (2009)

          For any questions about FHI-aims, please visit the aimsclub website
          with its forums and wiki. Contributions to both the forums and the
          wiki are warmly encouraged - they are for you, and everyone is welcome there.

------------------------------------------------------------



  Date     :  20180214, Time     :  152442.328
  Time zero on CPU 1             :   0.520000000000000E-01  s.
  Internal wall clock time zero  :           287853882.328  s.

  FHI-aims created a unique identifier for this run for later identification
  aims_uuid : 90B5B527-8089-4B3E-A210-BDF73A697438

  Using        8 parallel tasks.
  Task        0 on host theobook132 reporting.
  Task        1 on host theobook132 reporting.
  Task        2 on host theobook132 reporting.
  Task        3 on host theobook132 reporting.
  Task        4 on host theobook132 reporting.
  Task        5 on host theobook132 reporting.
  Task        6 on host theobook132 reporting.
  Task        7 on host theobook132 reporting.

  Performing system and environment tests:
  *** Environment variable OMP_NUM_THREADS is not set
  *** For performance reasons you might want to set it to 1
  | Stacksize not measured: no C compiler
  | Checking for scalapack...
  | No scalapack compiled in.

  Obtaining array dimensions for all initial allocations:
  
  -----------------------------------------------------------------------
  Parsing control.in (first pass over file, find array dimensions only).
  The contents of control.in will be repeated verbatim below
  unless switched off by setting 'verbatim_writeout .false.' .
  in the first line of control.in .
  -----------------------------------------------------------------------
  
  ################################################################################
  #
  #		Control.in generated by mkcontrol
  #
  ################################################################################
  xc			pbe
  vdw_correction_hirshfeld
  charge			0.0
  relativistic		atomic_zora scalar
  
  sc_accuracy_rho		1E-5
  sc_accuracy_eev		1E-3
  sc_accuracy_etot	1E-6
  sc_iter_limit		1000	
  
  compute_forces .true.
  final_forces_cleaned .true.
  
  
  ################################################################################
  #
  #  FHI-aims code project
  # Volker Blum, Fritz Haber Institute Berlin, 2009
  #
  #  Suggested "tight" defaults for H atom (to be pasted into control.in file)
  #
  ################################################################################
    species        H
  #     global species definitions
      nucleus             1
      mass                1.00794
  #
      l_hartree           6
  #
      cut_pot             4.0  2.0  1.0
      basis_dep_cutoff    1e-4
  #
      radial_base         24 7.0
      radial_multiplier   2
      angular_grids       specified
        division   0.1930   50
        division   0.3175  110
        division   0.4293  194
        division   0.5066  302
        division   0.5626  434
  #      division   0.5922  590
  #      division   0.6227  974
  #      division   0.6868 1202
  #      outer_grid  770
        outer_grid  434
  ################################################################################
  #
  #  Definition of "minimal" basis
  #
  ################################################################################
  #     valence basis states
      valence      1  s   1.
  #     ion occupancy
      ion_occ      1  s   0.5
  ################################################################################
  #
  #  Suggested additional basis functions. For production calculations,
  #  uncomment them one after another (the most important basis functions are
  #  listed first).
  #
  #  Basis constructed for dimers: 0.5 A, 0.7 A, 1.0 A, 1.5 A, 2.5 A
  #
  ################################################################################
  #  "First tier" - improvements: -1014.90 meV to -62.69 meV
       hydro 2 s 2.1
       hydro 2 p 3.5
  #  "Second tier" - improvements: -12.89 meV to -1.83 meV
       hydro 1 s 0.85
       hydro 2 p 3.7
       hydro 2 s 1.2
       hydro 3 d 7
  #  "Third tier" - improvements: -0.25 meV to -0.12 meV
  #     hydro 4 f 11.2
  #     hydro 3 p 4.8
  #     hydro 4 d 9
  #     hydro 3 s 3.2
  
  
  
  ################################################################################
  #
  #  FHI-aims code project
  # Volker Blum, Fritz Haber Institute Berlin, 2009
  #
  #  Suggested "tight" defaults for N atom (to be pasted into control.in file)
  #
  ################################################################################
    species        N
  #     global species definitions
      nucleus             7
      mass                14.0067
  #
      l_hartree           6
  #
      cut_pot             4.0  2.0  1.0
      basis_dep_cutoff    1e-4
  #
      radial_base         35 7.0
      radial_multiplier   2
      angular_grids       specified
        division   0.1841   50
        division   0.3514  110
        division   0.5126  194
        division   0.6292  302
        division   0.6939  434
  #      division   0.7396  590
  #      division   0.7632  770
  #      division   0.8122  974
  #      division   1.1604 1202
  #      outer_grid  974
        outer_grid  434
  ################################################################################
  #
  #  Definition of "minimal" basis
  #
  ################################################################################
  #     valence basis states
      valence      2  s   2.
      valence      2  p   3.
  #     ion occupancy
      ion_occ      2  s   1.
      ion_occ      2  p   2.
  ################################################################################
  #
  #  Suggested additional basis functions. For production calculations,
  #  uncomment them one after another (the most important basis functions are
  #  listed first).
  #
  #  Constructed for dimers: 1.0 A, 1.1 A, 1.5 A, 2.0 A, 3.0 A
  #
  ################################################################################
  #  "First tier" - improvements: -1193.42 meV to -220.60 meV
       hydro 2 p 1.8
       hydro 3 d 6.8
       hydro 3 s 5.8
  #  "Second tier" - improvements: -80.21 meV to -6.86 meV
       hydro 4 f 10.8
       hydro 3 p 5.8
       hydro 1 s 0.8
       hydro 5 g 16
       hydro 3 d 4.9
  #  "Third tier" - improvements: -4.29 meV to -0.53 meV
  #     hydro 3 s 16
  #     ionic 2 p auto
  #     hydro 3 d 6.6
  #     hydro 4 f 11.6
  #  "Fourth tier" - improvements: -0.75 meV to -0.25 meV
  #     hydro 2 p 4.5
  #     hydro 2 s 2.4
  #     hydro 5 g 14.4
  #     hydro 4 d 14.4
  #     hydro 4 f 16.8
  # Further basis functions - -0.21 meV and below
  #     hydro 3 p 14.8
  #     hydro 3 s 4.4
  #     hydro 3 d 19.6
  #     hydro 5 g 12.8
  
  -----------------------------------------------------------------------
  Completed first pass over input file control.in .
  -----------------------------------------------------------------------
  
  
  -----------------------------------------------------------------------
  Parsing geometry.in (first pass over file, find array dimensions only).
  The contents of geometry.in will be repeated verbatim below
  unless switched off by setting 'verbatim_writeout .false.' .
  in the first line of geometry.in .
  -----------------------------------------------------------------------
  
  #=======================================#
  # iterations/iteration0064/aims-chain-node-0.66667/geometry.in
  #=======================================#
  atom -0.0000000000000658 0.0000073117955405 0.2619507863153971 N
  atom 0.8272018302440816 -0.4775816010962588 -0.0927727151691842 H
  atom -0.8272018302440605 -0.4775816010962985 -0.0927727151691626 H
  atom 0.0000000000000434 0.9551783903970033 -0.0927720451986632 H
  
  -----------------------------------------------------------------------
  Completed first pass over input file geometry.in .
  -----------------------------------------------------------------------
  

  Basic array size parameters:
  | Number of species                 :        2
  | Number of atoms                   :        4
  | Max. basis fn. angular momentum   :        4
  | Max. atomic/ionic basis occupied n:        2
  | Max. number of basis fn. types    :        2
  | Max. radial fns per species/type  :        8
  | Max. logarithmic grid size        :     1290
  | Max. radial integration grid size :       71
  | Max. angular integration grid size:      434
  | Max. angular grid division number :        8
  | Radial grid for Hartree potential :     1290
  | Number of spin channels           :        1

------------------------------------------------------------
          Reading file control.in.
------------------------------------------------------------
  XC: Using PBE gradient-corrected functionals.
  Charge =   0.000000E+00: Neutral system requested explicitly.
  Scalar relativistic treatment of kinetic energy: on-site free-atom approximation to ZORA.
  Convergence accuracy of self-consistent charge density:  0.1000E-04
  Convergence accuracy of sum of eigenvalues:  0.1000E-02
  Convergence accuracy of total energy:  0.1000E-05
  Maximum number of s.-c. iterations  :  1000
  Forces will be computed.
  Cleaning forces before final output.
 
  Reading configuration options for species H                   .
  | Found nuclear charge :   1.0000
  | Found atomic mass :    1.00794000000000      amu
  | Found l_max for Hartree potential  :   6
  | Found cutoff potl. onset [A], width [A], scale factor :    4.00000    2.00000    1.00000
  | Threshold for basis-dependent cutoff potential is   0.100000E-03
  | Found data for basic radial integration grid :    24 points, outermost radius =    7.000 A
  | Found multiplier for basic radial grid :   2
  | Found angular grid specification: user-specified.
  | Specified grid contains     6 separate shells.
  | Check grid settings after all constraints further below.
  | Found free-atom valence shell :  1 s   1.000
  | No ionic wave fns used. Skipping ion_occ.
  | Found hydrogenic basis function :  2 s   2.100
  | Found hydrogenic basis function :  2 p   3.500
  | Found hydrogenic basis function :  1 s   0.850
  | Found hydrogenic basis function :  2 p   3.700
  | Found hydrogenic basis function :  2 s   1.200
  | Found hydrogenic basis function :  3 d   7.000
  Species H                   : Missing cutoff potential type.
  Defaulting to exp(1/x)/(1-x)^2 type cutoff potential.
  Species H : No 'logarithmic' tag. Using default grid for free atom:
  | Default logarithmic grid data [bohr] : 0.1000E-03 0.1000E+03 0.1012E+01
  Species H : On-site basis accuracy parameter (for Gram-Schmidt orthonormalisation) not specified.
  Using default value basis_acc =  0.1000000E-03.
  Species H                   : Using default innermost maximum threshold i_radial=  2 for radial functions.
  Species H                   : Default cutoff onset for free atom density etc. : 0.40000000E+01 AA.
  Species H                   : Basic radial grid will be enhanced according to radial_multiplier =   2, to contain    49 grid points.
 
  Reading configuration options for species N                   .
  | Found nuclear charge :   7.0000
  | Found atomic mass :    14.0067000000000      amu
  | Found l_max for Hartree potential  :   6
  | Found cutoff potl. onset [A], width [A], scale factor :    4.00000    2.00000    1.00000
  | Threshold for basis-dependent cutoff potential is   0.100000E-03
  | Found data for basic radial integration grid :    35 points, outermost radius =    7.000 A
  | Found multiplier for basic radial grid :   2
  | Found angular grid specification: user-specified.
  | Specified grid contains     6 separate shells.
  | Check grid settings after all constraints further below.
  | Found free-atom valence shell :  2 s   2.000
  | Found free-atom valence shell :  2 p   3.000
  | No ionic wave fns used. Skipping ion_occ.
  | No ionic wave fns used. Skipping ion_occ.
  | Found hydrogenic basis function :  2 p   1.800
  | Found hydrogenic basis function :  3 d   6.800
  | Found hydrogenic basis function :  3 s   5.800
  | Found hydrogenic basis function :  4 f  10.800
  | Found hydrogenic basis function :  3 p   5.800
  | Found hydrogenic basis function :  1 s   0.800
  | Found hydrogenic basis function :  5 g  16.000
  | Found hydrogenic basis function :  3 d   4.900
  Species N                   : Missing cutoff potential type.
  Defaulting to exp(1/x)/(1-x)^2 type cutoff potential.
  Species N : No 'logarithmic' tag. Using default grid for free atom:
  | Default logarithmic grid data [bohr] : 0.1000E-03 0.1000E+03 0.1012E+01
  Species N : On-site basis accuracy parameter (for Gram-Schmidt orthonormalisation) not specified.
  Using default value basis_acc =  0.1000000E-03.
  Species N                   : Using default innermost maximum threshold i_radial=  2 for radial functions.
  Species N                   : Default cutoff onset for free atom density etc. : 0.40000000E+01 AA.
  Species N                   : Basic radial grid will be enhanced according to radial_multiplier =   2, to contain    71 grid points.
 
  Finished reading input file 'control.in'. Consistency checks are next.
 
  MPI_IN_PLACE appears to work with this MPI implementation.
  | Keeping use_mpi_in_place .true. (see manual).
  Target number of points in a grid batch is not set. Defaulting to  100
  Method for grid partitioning is not set. Defaulting to parallel hash+maxmin partitioning.
  Batch size limit is not set. Defaulting to    200
  By default, will store active basis functions for each batch.
  If in need of memory, prune_basis_once .false. can be used to disable this option.
  communication_type for Hartree potential was not specified.
  Defaulting to calc_hartree .
  Defaulting to Pulay charge density mixer.
  Pulay mixer: Number of relevant iterations not set.
  Defaulting to    8 iterations.
  Pulay mixer: Number of initial linear mixing iterations not set.
  Defaulting to    0 iterations.
  Work space size for distributed Hartree potential not set.
  Defaulting to   0.200000E+03 MB.
  Mixing parameter for charge density mixing has not been set.
  Using default: charge_mix_param =     0.0500.
  The mixing parameter will be adjusted in iteration number     2 of the first full s.c.f. cycle only.
  Algorithm-dependent basis array size parameters:
  | n_max_pulay                         :        8
  Presetting        40 iterations before the initial mixing cycle
  is restarted anyway using the sc_init_iter criterion / keyword.
  Presetting a factor      1.000 between actual scf density residual
  and density convergence criterion sc_accuracy_rho below which sc_init_iter
  takes no effect.
  Geometry relaxation not requested: no relaxation will be performed.
  Force calculation: scf convergence accuracy of forces not set.
  Defaulting to 'sc_accuracy_forces not_checked'.
  Handling of forces: Unphysical translation and rotation will be removed from forces.
  No accuracy limit for integral partition fn. given. Defaulting to  0.1000E-14.
  No threshold value for u(r) in integrations given. Defaulting to  0.1000E-05.
  No occupation type (smearing scheme) given. Defaulting to Gaussian broadening, width =  0.1000E-01 eV.
  The width will be adjusted in iteration number     2 of the first full s.c.f. cycle only.
  S.C.F. convergence parameters will be adjusted in iteration number     2 of the first full s.c.f. cycle only.
  No accuracy for occupation numbers given. Defaulting to  0.1000E-12.
  No threshold value for occupation numbers given. Defaulting to  0.0000E+00.
  No accuracy for fermi level given. Defaulting to  0.1000E-19.
  Maximum # of iterations to find E_F not set. Defaulting to  200.
  Preferred method for the eigenvalue solver ('KS_method') not specified in 'control.in'.
  Calling BLACS routine to test compilation state
  The best choice would be 'elsi', but your version of FHI-aims is compiled without ScaLAPACK support.
  Defaulting to 'lapack_fast' instead (serial solution, time will not improve with more CPUs).
  Will not use alltoall communication since running on < 1024 CPUs.
  Threshold for basis singularities not set.
  Default threshold for basis singularities:  0.1000E-04
  partition_type (choice of integration weights) for integrals was not specified.
  | Using a version of the partition function of Stratmann and coworkers ('stratmann_smoother').
  | At each grid point, the set of atoms used to build the partition table is smoothly restricted to
  | only those atoms whose free-atom density would be non-zero at that grid point.
  Partitioning for Hartree potential was not defined. Using partition_type for integrals.
  | Adjusted default value of keyword multip_moments_threshold to:       0.10000000E-11
  | This value may affect high angular momentum components of the Hartree potential in periodic systems.
  Spin handling was not defined in control.in. Defaulting to unpolarized case.
  No q(lm)/r^(l+1) cutoff set for long-range Hartree potential.
  | Using default value of  0.100000E-09 .
  | Verify using the multipole_threshold keyword.
  Defaulting to new monopole extrapolation.
  Density update method: automatic selection selected.
------------------------------------------------------------


------------------------------------------------------------
          Reading geometry description geometry.in.
------------------------------------------------------------
  Input structure read successfully.
  The structure contains        4 atoms,  and a total of         10.000 electrons.

  Input geometry:
  | No unit cell requested.
  | Atomic structure:
  |       Atom                x [A]            y [A]            z [A]
  |    1: Species N            -0.00000000        0.00000731        0.26195079
  |    2: Species H             0.82720183       -0.47758160       -0.09277272
  |    3: Species H            -0.82720183       -0.47758160       -0.09277272
  |    4: Species H             0.00000000        0.95517839       -0.09277205
  |

  | The smallest distance between any two atoms is         1.01891122 AA.
  |
  | The first atom of this pair is atom number                      1 .
  | The second atom of this pair is atom number                     4 .

  Number of empty states per atom not set in control.in - providing a guess from actual geometry.
  | Total number of empty states used during s.c.f. cycle:        8
  If you use a very high smearing, use empty_states (per atom!) in control.in to increase this value.

  Structure-dependent array size parameters: 
  | Maximum number of distinct radial functions  :       18
  | Maximum number of basis functions            :       84
  | Number of Kohn-Sham states (occupied + empty):       13
------------------------------------------------------------

------------------------------------------------------------
          Preparing all fixed parts of the calculation.
------------------------------------------------------------
  Determining machine precision:
    2.225073858507201E-308
  Setting up grids for atomic and cluster calculations.

  Creating wave function, potential, and density for free atoms.

  Species: H

  List of occupied orbitals and eigenvalues:
    n    l              occ      energy [Ha]    energy [eV]
    1    0           1.0000        -0.238386        -6.4868


  Species: N

  List of occupied orbitals and eigenvalues:
    n    l              occ      energy [Ha]    energy [eV]
    1    0           2.0000       -14.144983      -384.9046
    2    0           2.0000        -0.682735       -18.5782
    2    1           3.0000        -0.260361        -7.0848

  Creating fixed part of basis set: Ionic, confined, hydrogenic.
 
  H                    hydrogenic:
 
  List of hydrogenic basis orbitals: 
    n    l      effective z      eigenvalue [eV]  inner max. [A]     outer max. [A]     outer radius [A]   
    2    0         2.100000       -14.9965           0.193243           1.317208           5.373006
    2    1         3.500000       -41.6672           0.602369           0.602369           4.056063
    1    0         0.850000        -9.8292           0.624871           0.624871           5.373006
    2    1         3.700000       -46.5653           0.573622           0.573622           3.910002
    2    0         1.200000        -4.5995           0.334980           2.228188           5.505995
    3    2         7.000000       -74.0753           0.680699           0.680699           3.769201
 
 
  N                    hydrogenic:
 
  List of hydrogenic basis orbitals: 
    n    l      effective z      eigenvalue [eV]  inner max. [A]     outer max. [A]     outer radius [A]   
    2    1         1.800000       -11.0118           1.177451           1.177451           5.427479
    3    2         6.800000       -69.9029           0.704619           0.704619           3.854246
    3    0         5.800000       -50.8549           0.067388           1.191934           4.629968
    4    3        10.800000       -99.1854           0.786571           0.786571           3.761152
    3    1         5.800000       -50.8549           0.274880           1.094176           4.518138
    1    0         0.800000        -8.7059           0.662839           0.662839           5.361532
    5    4        16.000000      -139.3222           0.825990           0.825990           3.625711
    3    2         4.900000       -36.2967           0.968267           0.968267           4.862000
 

  Adding cutoff potential to free-atom effective potential.
  Creating atomic-like basis functions for current effective potential.

  Species H                   :

  List of atomic basis orbitals and eigenvalues:
    n    l      energy [Ha]    energy [eV]    outer radius [A]
    1    0        -0.238386        -6.4868       5.373006


  Species N                   :

  List of atomic basis orbitals and eigenvalues:
    n    l      energy [Ha]    energy [eV]    outer radius [A]
    1    0       -14.144983      -384.9046       1.637919
    2    0        -0.682735       -18.5782       5.168461
    2    1        -0.260361        -7.0848       5.361532

  Assembling full basis from fixed parts.
  | Species H :   atomic orbital   1 s accepted.
  | Species H :    hydro orbital   2 s accepted.
  | Species H :    hydro orbital   1 s accepted.
  | Species H :    hydro orbital   2 s accepted.
  | Species H :    hydro orbital   2 p accepted.
  | Species H :    hydro orbital   2 p accepted.
  | Species H :    hydro orbital   3 d accepted.
  | Species N :   atomic orbital   1 s accepted.
  | Species N :    hydro orbital   3 s accepted.
  | Species N :   atomic orbital   2 s accepted.
  | Species N :    hydro orbital   1 s accepted.
  | Species N :    hydro orbital   3 p accepted.
  | Species N :   atomic orbital   2 p accepted.
  | Species N :    hydro orbital   2 p accepted.
  | Species N :    hydro orbital   3 d accepted.
  | Species N :    hydro orbital   3 d accepted.
  | Species N :    hydro orbital   4 f accepted.
  | Species N :    hydro orbital   5 g accepted.
 
  Basis size parameters after reduction:
  | Total number of radial functions:       18
  | Total number of basis functions :       84
 
  Per-task memory consumption for arrays in subroutine allocate_ext:
  |           5.947464MB.
  Testing on-site integration grid accuracy.
  |  Species  Function  <phi|h_atom|phi> (log., in eV)  <phi|h_atom|phi> (rad., in eV)
           1        1                 -6.4870767962                 -6.4871688290
           1        2                 13.5032046589                 13.5028982997
           1        3                 32.8195184817                 32.8119941656
           1        4                 33.8513856511                 33.7670005767 ***
           1        5                 28.8544614965                 28.8544615203
           1        6                 59.6326952547                 59.6327656460
           1        7                 60.2719308513                 60.2719305949
           2        8               -384.9045837915               -384.9045810047
           2        9                 12.5603464973                 12.5603454944
           2       10                -15.7898975011                -15.7898975786
           2       11                 26.9245114620                 26.9252865209
           2       12                 18.5932197354                 18.5932205971
           2       13                  1.2241635029                  1.2241662160
           2       14                 13.4399987723                 13.4405112378
           2       15                 35.9434723763                 35.9434722968
           2       16                 39.9236994472                 39.9237117157
           2       17                 72.9994981058                 72.9994982098
           2       18                116.4255814536                116.4255814825
 * Note: Onsite integrals marked "***" above are less accurate than
 * onsite_accuracy_threshold =    0.03000 eV. Usually, this is harmless.
 * When in doubt, tighten the "radial" and/or "radial_multiplier" flags to check.

  Preparing densities etc. for the partition functions (integrals / Hartree potential).

  Preparations completed.
  max(cpu_time)          :      0.240 s.
  Wall clock time (cpu1) :      0.246 s.
------------------------------------------------------------

------------------------------------------------------------
          Begin self-consistency loop: Initialization.

          Date     :  20180214, Time     :  152442.593
------------------------------------------------------------

  Initializing index lists of integration centers etc. from given atomic structure:
  | Number of centers in hartree potential         :         4
  | Number of centers in hartree multipole         :         4
  | Number of centers in electron density summation:         4
  | Number of centers in basis integrals           :         4
  | Number of centers in integrals                 :         4
  | Number of centers in hamiltonian               :         4
  Partitioning the integration grid into batches with parallel hashing+maxmin method.
  | Number of batches:      745
  | Maximal batch size:     199
  | Minimal batch size:      49
  | Average batch size:      84.569
  | Standard deviation of batch sizes:      23.044

  Integration load balanced across     8 MPI tasks.
  Work distribution over tasks is as follows:
  Task     0 has       7880 integration points.
  Task     1 has       7800 integration points.
  Task     2 has       7875 integration points.
  Task     3 has       7993 integration points.
  Task     4 has       7950 integration points.
  Task     5 has       7824 integration points.
  Task     6 has       7854 integration points.
  Task     7 has       7828 integration points.
  Initializing partition tables, free-atom densities, potentials, etc. across the integration grid (initialize_grid_storage).
  | initialize_grid_storage: Actual outermost partition radius vs. multipole_radius_free
  | (-- VB: in principle, multipole_radius_free should be larger, hence this output)
  | Species        1: Confinement radius =              6.000000000000000 AA, multipole_radius_free =              6.071692442739658 AA.
  | Species        1: outer_partition_radius set to              6.071692442739658 AA .
  | Species        2: Confinement radius =              6.000000000000000 AA, multipole_radius_free =              6.058726835495003 AA.
  | Species        2: outer_partition_radius set to              6.058726835495003 AA .
  | Original list of interatomic distances with           4 x          4 entries is created.
  | Net number of integration points:    63004
  | of which are non-zero points    :    54846
  Renormalizing the initial density to the exact electron count on the 3D integration grid.
  | Initial density: Formal number of electrons (from input files) :      10.0000000000
  | Integrated number of electrons on 3D grid     :       9.9999990453
  | Charge integration error                      :      -0.0000009547
  | Normalization factor for density and gradient :       1.0000000955
  Obtaining max. number of non-zero basis functions in each batch (get_n_compute_maxes).
  | Maximal number of non-zero basis functions:       84 in task     0
  | Maximal number of non-zero basis functions:       84 in task     1
  | Maximal number of non-zero basis functions:       84 in task     2
  | Maximal number of non-zero basis functions:       84 in task     3
  | Maximal number of non-zero basis functions:       84 in task     4
  | Maximal number of non-zero basis functions:       84 in task     5
  | Maximal number of non-zero basis functions:       84 in task     6
  | Maximal number of non-zero basis functions:       84 in task     7
  Selecting the method for density update.
  Loop over occupied states selected for charge density update.
  Allocating        0.009 MB for KS_eigenvector
  Integrating Hamiltonian matrix: batch-based integration.
  Time summed over all CPUs for integration: real work        1.163 s, elapsed        1.232 s
  Integrating overlap matrix.
  Time summed over all CPUs for integration: real work        0.402 s, elapsed        0.428 s

  Updating Kohn-Sham eigenvalues, eigenvectors, occupation numbers, and Fermi level.
  Solving generalized eigenproblem
  Updating Kohn-Sham eigenvalues and eigenfunctions.
  Transforming overlap matrix and checking for singularities.
  Overlap matrix is nonsingular:
  | Lowest eigenvalue:  0.144658E-03
  Solving real generalised eigenvalue problem by standard LAPACK (fast)

  Obtaining occupation numbers and chemical potential using ELSI.
  | Chemical potential (Fermi level):    -6.63326963eV
  Writing Kohn-Sham eigenvalues.

  State    Occupation    Eigenvalue [Ha]    Eigenvalue [eV]
      1       2.00000         -14.279628         -388.56844
      2       2.00000          -0.972702          -26.46858
      3       2.00000          -0.595313          -16.19930
      4       2.00000          -0.595312          -16.19926
      5       2.00000          -0.417382          -11.35753
      6       0.00000          -0.065129           -1.77225
      7       0.00000          -0.001216           -0.03309
      8       0.00000          -0.001216           -0.03308
      9       0.00000           0.079653            2.16748
     10       0.00000           0.079654            2.16750
     11       0.00000           0.104252            2.83683
     12       0.00000           0.126642            3.44610
     13       0.00000           0.209001            5.68722

  Highest occupied state (VBM) at    -11.35753171 eV
  | Occupation number:      2.00000000

  Lowest unoccupied state (CBM) at    -1.77225445 eV
  | Occupation number:      0.00000000

  Overall HOMO-LUMO gap:      9.58527726 eV.
  Calculating total energy contributions from superposition of free atom densities.

  Total energy components:
  | Sum of eigenvalues            :         -33.72067454 Ha        -917.58624037 eV
  | XC energy correction          :          -7.66615768 Ha        -208.60676440 eV
  | XC potential correction       :           9.85137398 Ha         268.06952519 eV
  | Free-atom electrostatic energy:         -25.14276942 Ha        -684.16956619 eV
  | Hartree energy correction     :           0.00000000 Ha           0.00000000 eV
  | vdW energy correction         :           0.00000000 Ha           0.00000000 eV
  | Entropy correction            :           0.00000000 Ha           0.00000000 eV
  | ---------------------------
  | Total energy                  :         -56.67822767 Ha       -1542.29304578 eV
  | Total energy, T -> 0          :         -56.67822767 Ha       -1542.29304578 eV  <-- do not rely on this value for anything but (periodic) metals
  | Electronic free energy        :         -56.67822767 Ha       -1542.29304578 eV

  Derived energy quantities:
  | Kinetic energy                :          55.54246553 Ha        1511.38738553 eV
  | Electrostatic energy          :        -104.55453551 Ha       -2845.07366690 eV
  | Energy correction for multipole
  | error in Hartree potential    :           0.00000000 Ha           0.00000000 eV
  | Sum of eigenvalues per atom                           :        -229.39656009 eV
  | Total energy (T->0) per atom                          :        -385.57326144 eV  <-- do not rely on this value for anything but (periodic) metals
  | Electronic free energy per atom                       :        -385.57326144 eV
  Initialize hartree_potential_storage
  Max. number of atoms included in rho_multipole:            4

  End scf initialization - timings             :  max(cpu_time)    wall_clock(cpu1)
  | Time for scf. initialization               :        0.356 s           0.356 s
  | Boundary condition initialization          :        0.000 s           0.000 s
  | Integration                                :        0.208 s           0.206 s
  | Solution of K.-S. eqns.                    :        0.008 s           0.010 s
  | Grid partitioning                          :        0.064 s           0.063 s
  | Preloading free-atom quantities on grid    :        0.020 s           0.020 s
  | Free-atom superposition energy             :        0.016 s           0.016 s
  | Total energy evaluation                    :        0.000 s           0.001 s

  Partial memory accounting:
  | Current value for overall tracked memory usage on task 0  :           0.123 MB
  | Peak value for overall tracked memory usage on task 0     :           0.526 MB after allocating wave
  | Largest tracked array allocation on task 0 so far         :           0.134 MB  when allocating H_times_psi
  Note:  These values currently only include a subset of arrays which are explicitly tracked.
  The "true" memory usage will be greater.
------------------------------------------------------------

------------------------------------------------------------
          Begin self-consistency iteration #    1

  Date     :  20180214, Time     :  152442.950
------------------------------------------------------------
  Evaluating new KS density.
  Integration grid: deviation in total charge (<rho> - N_e) =  -8.881784E-15
  Pulay mixing of updated and previous charge densities.

  Evaluating partitioned Hartree potential by multipole expansion.
  | Analytical far-field extrapolation by fixed multipoles:
  | Hartree multipole sum: apparent total charge =  -0.112559E-05
  Summing up the Hartree potential.
  Time summed over all CPUs for potential: real work        0.867 s, elapsed        0.908 s
  | RMS charge density error from multipole expansion :   0.197985E-03

  Integrating Hamiltonian matrix: batch-based integration.
  Time summed over all CPUs for integration: real work        1.140 s, elapsed        1.192 s

  Updating Kohn-Sham eigenvalues, eigenvectors, occupation numbers, and Fermi level.
  Solving generalized eigenproblem
  Updating Kohn-Sham eigenvalues and eigenfunctions.
  Solving real generalised eigenvalue problem by standard LAPACK (fast)

  Obtaining occupation numbers and chemical potential using ELSI.
  | Chemical potential (Fermi level):    -6.46189457eV
  Writing Kohn-Sham eigenvalues.

  State    Occupation    Eigenvalue [Ha]    Eigenvalue [eV]
      1       2.00000         -14.234917         -387.35180
      2       2.00000          -0.951083          -25.88029
      3       2.00000          -0.575896          -15.67093
      4       2.00000          -0.575895          -15.67089
      5       2.00000          -0.394680          -10.73979
      6       0.00000          -0.060398           -1.64352
      7       0.00000           0.003705            0.10082
      8       0.00000           0.003705            0.10082
      9       0.00000           0.084688            2.30449
     10       0.00000           0.084689            2.30451
     11       0.00000           0.110269            3.00057
     12       0.00000           0.131243            3.57130
     13       0.00000           0.214060            5.82488

  Highest occupied state (VBM) at    -10.73978765 eV
  | Occupation number:      2.00000000

  Lowest unoccupied state (CBM) at    -1.64351669 eV
  | Occupation number:      0.00000000

  Overall HOMO-LUMO gap:      9.09627097 eV.

  Total energy components:
  | Sum of eigenvalues            :         -33.46494108 Ha        -910.62737902 eV
  | XC energy correction          :          -7.69489059 Ha        -209.38862651 eV
  | XC potential correction       :           9.88885784 Ha         269.08951295 eV
  | Free-atom electrostatic energy:         -25.14276942 Ha        -684.16956619 eV
  | Hartree energy correction     :          -0.23907578 Ha          -6.50558307 eV
  | vdW energy correction         :           0.00000000 Ha           0.00000000 eV
  | Entropy correction            :           0.00000000 Ha           0.00000000 eV
  | ---------------------------
  | Total energy                  :         -56.65281904 Ha       -1541.60164184 eV
  | Total energy, T -> 0          :         -56.65281904 Ha       -1541.60164184 eV  <-- do not rely on this value for anything but (periodic) metals
  | Electronic free energy        :         -56.65281904 Ha       -1541.60164184 eV

  Derived energy quantities:
  | Kinetic energy                :          55.71486165 Ha        1516.07852269 eV
  | Electrostatic energy          :        -104.67279010 Ha       -2848.29153802 eV
  | Energy correction for multipole
  | error in Hartree potential    :          -0.00027421 Ha          -0.00746167 eV
  | Sum of eigenvalues per atom                           :        -227.65684476 eV
  | Total energy (T->0) per atom                          :        -385.40041046 eV  <-- do not rely on this value for anything but (periodic) metals
  | Electronic free energy per atom                       :        -385.40041046 eV

  Self-consistency convergence accuracy:
  | Change of charge density      :  0.3467E+00
  | Change of sum of eigenvalues  :  0.6959E+01 eV
  | Change of total energy        :  0.6914E+00 eV

  End self-consistency iteration #     1       :  max(cpu_time)    wall_clock(cpu1)
  | Time for this iteration                    :        0.408 s           0.412 s
  | Charge density update                      :        0.128 s           0.128 s
  | Density mixing                             :        0.004 s           0.001 s
  | Hartree multipole update                   :        0.016 s           0.016 s
  | Hartree multipole summation                :        0.116 s           0.116 s
  | Integration                                :        0.148 s           0.148 s
  | Solution of K.-S. eqns.                    :        0.004 s           0.002 s
  | Total energy evaluation                    :        0.000 s           0.000 s

  Partial memory accounting:
  | Current value for overall tracked memory usage on task 0  :           0.123 MB
  | Peak value for overall tracked memory usage on task 0     :           0.658 MB after allocating gradient_basis_wave
  | Largest tracked array allocation on task 0 so far         :           0.401 MB  when allocating gradient_basis_wave
  Note:  These values currently only include a subset of arrays which are explicitly tracked.
  The "true" memory usage will be greater.
------------------------------------------------------------

------------------------------------------------------------
          Begin self-consistency iteration #    2

  Date     :  20180214, Time     :  152443.363
------------------------------------------------------------
  Evaluating new KS density.
  Integration grid: deviation in total charge (<rho> - N_e) =   8.881784E-15
  Pulay mixing of updated and previous charge densities.

  Evaluating partitioned Hartree potential by multipole expansion.
  | Analytical far-field extrapolation by fixed multipoles:
  | Hartree multipole sum: apparent total charge =  -0.171346E-05
  Summing up the Hartree potential.
  Time summed over all CPUs for potential: real work        0.889 s, elapsed        0.928 s
  | RMS charge density error from multipole expansion :   0.143462E-02

  Integrating Hamiltonian matrix: batch-based integration.
  Time summed over all CPUs for integration: real work        1.138 s, elapsed        1.184 s

  Updating Kohn-Sham eigenvalues, eigenvectors, occupation numbers, and Fermi level.
  Solving generalized eigenproblem
  Updating Kohn-Sham eigenvalues and eigenfunctions.
  Solving real generalised eigenvalue problem by standard LAPACK (fast)

  Obtaining occupation numbers and chemical potential using ELSI.
  | Chemical potential (Fermi level):    -5.36480305eV
  Highest occupied state (VBM) at     -7.18539276 eV
  | Occupation number:      2.00000000

  Lowest unoccupied state (CBM) at    -0.91668666 eV
  | Occupation number:      0.00000000

  Overall HOMO-LUMO gap:      6.26870611 eV.

  Checking to see if s.c.f. parameters should be adjusted.
  The system likely has a gap. Increased the default Pulay mixing parameter (charge_mix_param). Value:   0.200000 .
  Kept the default occupation width. Value:   0.010000 eV.

  Total energy components:
  | Sum of eigenvalues            :         -31.97507016 Ha        -870.08592848 eV
  | XC energy correction          :          -7.87467919 Ha        -214.28092336 eV
  | XC potential correction       :          10.12334606 Ha         275.47026197 eV
  | Free-atom electrostatic energy:         -25.14276942 Ha        -684.16956619 eV
  | Hartree energy correction     :          -1.70320799 Ha         -46.34664741 eV
  | vdW energy correction         :           0.00000000 Ha           0.00000000 eV
  | Entropy correction            :           0.00000000 Ha           0.00000000 eV
  | ---------------------------
  | Total energy                  :         -56.57238071 Ha       -1539.41280347 eV
  | Total energy, T -> 0          :         -56.57238071 Ha       -1539.41280347 eV  <-- do not rely on this value for anything but (periodic) metals
  | Electronic free energy        :         -56.57238071 Ha       -1539.41280347 eV

  Derived energy quantities:
  | Kinetic energy                :          56.61680121 Ha        1540.62154687 eV
  | Electrostatic energy          :        -105.31450272 Ha       -2865.75342698 eV
  | Energy correction for multipole
  | error in Hartree potential    :          -0.00190259 Ha          -0.05177224 eV
  | Sum of eigenvalues per atom                           :        -217.52148212 eV
  | Total energy (T->0) per atom                          :        -384.85320087 eV  <-- do not rely on this value for anything but (periodic) metals
  | Electronic free energy per atom                       :        -384.85320087 eV

  Self-consistency convergence accuracy:
  | Change of charge density      :  0.3064E+00
  | Change of sum of eigenvalues  :  0.4054E+02 eV
  | Change of total energy        :  0.2189E+01 eV

  End self-consistency iteration #     2       :  max(cpu_time)    wall_clock(cpu1)
  | Time for this iteration                    :        0.412 s           0.412 s
  | Charge density update                      :        0.128 s           0.126 s
  | Density mixing                             :        0.004 s           0.003 s
  | Hartree multipole update                   :        0.016 s           0.016 s
  | Hartree multipole summation                :        0.116 s           0.116 s
  | Integration                                :        0.148 s           0.147 s
  | Solution of K.-S. eqns.                    :        0.004 s           0.002 s
  | Total energy evaluation                    :        0.000 s           0.001 s

  Partial memory accounting:
  | Current value for overall tracked memory usage on task 0  :           0.124 MB
  | Peak value for overall tracked memory usage on task 0     :           0.658 MB after allocating gradient_basis_wave
  | Largest tracked array allocation on task 0 so far         :           0.401 MB  when allocating gradient_basis_wave
  Note:  These values currently only include a subset of arrays which are explicitly tracked.
  The "true" memory usage will be greater.
------------------------------------------------------------

------------------------------------------------------------
          Begin self-consistency iteration #    3

  Date     :  20180214, Time     :  152443.776
------------------------------------------------------------
  Evaluating new KS density.
  Integration grid: deviation in total charge (<rho> - N_e) =  -7.105427E-15
  Pulay mixing of updated and previous charge densities.

  Evaluating partitioned Hartree potential by multipole expansion.
  | Analytical far-field extrapolation by fixed multipoles:
  | Hartree multipole sum: apparent total charge =  -0.102763E-05
  Summing up the Hartree potential.
  Time summed over all CPUs for potential: real work        0.893 s, elapsed        0.950 s
  | RMS charge density error from multipole expansion :   0.208960E-02

  Integrating Hamiltonian matrix: batch-based integration.
  Time summed over all CPUs for integration: real work        1.160 s, elapsed        1.247 s

  Updating Kohn-Sham eigenvalues, eigenvectors, occupation numbers, and Fermi level.
  Solving generalized eigenproblem
  Updating Kohn-Sham eigenvalues and eigenfunctions.
  Solving real generalised eigenvalue problem by standard LAPACK (fast)

  Obtaining occupation numbers and chemical potential using ELSI.
  | Chemical potential (Fermi level):    -5.41838679eV
  Highest occupied state (VBM) at     -7.45334726 eV
  | Occupation number:      2.00000000

  Lowest unoccupied state (CBM) at    -0.88315683 eV
  | Occupation number:      0.00000000

  Overall HOMO-LUMO gap:      6.57019043 eV.

  Total energy components:
  | Sum of eigenvalues            :         -32.13315136 Ha        -874.38753692 eV
  | XC energy correction          :          -7.86241913 Ha        -213.94731006 eV
  | XC potential correction       :          10.10635818 Ha         275.00799824 eV
  | Free-atom electrostatic energy:         -25.14276942 Ha        -684.16956619 eV
  | Hartree energy correction     :          -1.54094770 Ha         -41.93132026 eV
  | vdW energy correction         :           0.00000000 Ha           0.00000000 eV
  | Entropy correction            :           0.00000000 Ha           0.00000000 eV
  | ---------------------------
  | Total energy                  :         -56.57292944 Ha       -1539.42773520 eV
  | Total energy, T -> 0          :         -56.57292944 Ha       -1539.42773520 eV  <-- do not rely on this value for anything but (periodic) metals
  | Electronic free energy        :         -56.57292944 Ha       -1539.42773520 eV

  Derived energy quantities:
  | Kinetic energy                :          56.34456159 Ha        1533.21352981 eV
  | Electrostatic energy          :        -105.05507189 Ha       -2858.69395495 eV
  | Energy correction for multipole
  | error in Hartree potential    :          -0.00157652 Ha          -0.04289938 eV
  | Sum of eigenvalues per atom                           :        -218.59688423 eV
  | Total energy (T->0) per atom                          :        -384.85693380 eV  <-- do not rely on this value for anything but (periodic) metals
  | Electronic free energy per atom                       :        -384.85693380 eV

  Self-consistency convergence accuracy:
  | Change of charge density      :  0.1389E+00
  | Change of sum of eigenvalues  : -0.4302E+01 eV
  | Change of total energy        : -0.1493E-01 eV

  End self-consistency iteration #     3       :  max(cpu_time)    wall_clock(cpu1)
  | Time for this iteration                    :        0.428 s           0.425 s
  | Charge density update                      :        0.128 s           0.127 s
  | Density mixing                             :        0.008 s           0.005 s
  | Hartree multipole update                   :        0.016 s           0.016 s
  | Hartree multipole summation                :        0.120 s           0.118 s
  | Integration                                :        0.156 s           0.155 s
  | Solution of K.-S. eqns.                    :        0.004 s           0.002 s
  | Total energy evaluation                    :        0.000 s           0.001 s

  Partial memory accounting:
  | Current value for overall tracked memory usage on task 0  :           0.124 MB
  | Peak value for overall tracked memory usage on task 0     :           0.659 MB after allocating gradient_basis_wave
  | Largest tracked array allocation on task 0 so far         :           0.401 MB  when allocating gradient_basis_wave
  Note:  These values currently only include a subset of arrays which are explicitly tracked.
  The "true" memory usage will be greater.
------------------------------------------------------------

------------------------------------------------------------
          Begin self-consistency iteration #    4

  Date     :  20180214, Time     :  152444.202
------------------------------------------------------------
  Evaluating new KS density.
  Integration grid: deviation in total charge (<rho> - N_e) =   3.552714E-15
  Pulay mixing of updated and previous charge densities.

  Evaluating partitioned Hartree potential by multipole expansion.
  | Analytical far-field extrapolation by fixed multipoles:
  | Hartree multipole sum: apparent total charge =  -0.663042E-06
  Summing up the Hartree potential.
  Time summed over all CPUs for potential: real work        0.936 s, elapsed        1.101 s
  | RMS charge density error from multipole expansion :   0.336655E-02

  Integrating Hamiltonian matrix: batch-based integration.
  Time summed over all CPUs for integration: real work        1.145 s, elapsed        1.208 s

  Updating Kohn-Sham eigenvalues, eigenvectors, occupation numbers, and Fermi level.
  Solving generalized eigenproblem
  Updating Kohn-Sham eigenvalues and eigenfunctions.
  Solving real generalised eigenvalue problem by standard LAPACK (fast)

  Obtaining occupation numbers and chemical potential using ELSI.
  | Chemical potential (Fermi level):    -5.01201317eV
  Highest occupied state (VBM) at     -6.41694337 eV
  | Occupation number:      2.00000000

  Lowest unoccupied state (CBM) at    -0.56909498 eV
  | Occupation number:      0.00000000

  Overall HOMO-LUMO gap:      5.84784839 eV.

  Total energy components:
  | Sum of eigenvalues            :         -31.74055394 Ha        -863.70441749 eV
  | XC energy correction          :          -7.92503451 Ha        -215.65116110 eV
  | XC potential correction       :          10.18719053 Ha         277.20755855 eV
  | Free-atom electrostatic energy:         -25.14276942 Ha        -684.16956619 eV
  | Hartree energy correction     :          -1.94454949 Ha         -52.91388396 eV
  | vdW energy correction         :           0.00000000 Ha           0.00000000 eV
  | Entropy correction            :           0.00000000 Ha           0.00000000 eV
  | ---------------------------
  | Total energy                  :         -56.56571683 Ha       -1539.23147018 eV
  | Total energy, T -> 0          :         -56.56571683 Ha       -1539.23147018 eV  <-- do not rely on this value for anything but (periodic) metals
  | Electronic free energy        :         -56.56571683 Ha       -1539.23147018 eV

  Derived energy quantities:
  | Kinetic energy                :          56.36616719 Ha        1533.80144814 eV
  | Electrostatic energy          :        -105.00684951 Ha       -2857.38175723 eV
  | Energy correction for multipole
  | error in Hartree potential    :          -0.00185299 Ha          -0.05042234 eV
  | Sum of eigenvalues per atom                           :        -215.92610437 eV
  | Total energy (T->0) per atom                          :        -384.80786755 eV  <-- do not rely on this value for anything but (periodic) metals
  | Electronic free energy per atom                       :        -384.80786755 eV

  Self-consistency convergence accuracy:
  | Change of charge density      :  0.9569E-01
  | Change of sum of eigenvalues  :  0.1068E+02 eV
  | Change of total energy        :  0.1963E+00 eV

  End self-consistency iteration #     4       :  max(cpu_time)    wall_clock(cpu1)
  | Time for this iteration                    :        0.440 s           0.440 s
  | Charge density update                      :        0.128 s           0.127 s
  | Density mixing                             :        0.008 s           0.007 s
  | Hartree multipole update                   :        0.016 s           0.016 s
  | Hartree multipole summation                :        0.140 s           0.137 s
  | Integration                                :        0.148 s           0.150 s
  | Solution of K.-S. eqns.                    :        0.004 s           0.002 s
  | Total energy evaluation                    :        0.000 s           0.001 s

  Partial memory accounting:
  | Current value for overall tracked memory usage on task 0  :           0.124 MB
  | Peak value for overall tracked memory usage on task 0     :           0.659 MB after allocating gradient_basis_wave
  | Largest tracked array allocation on task 0 so far         :           0.401 MB  when allocating gradient_basis_wave
  Note:  These values currently only include a subset of arrays which are explicitly tracked.
  The "true" memory usage will be greater.
------------------------------------------------------------

------------------------------------------------------------
          Begin self-consistency iteration #    5

  Date     :  20180214, Time     :  152444.643
------------------------------------------------------------
  Evaluating new KS density.
  Integration grid: deviation in total charge (<rho> - N_e) =  -3.552714E-15
  Pulay mixing of updated and previous charge densities.

  Evaluating partitioned Hartree potential by multipole expansion.
  | Analytical far-field extrapolation by fixed multipoles:
  | Hartree multipole sum: apparent total charge =  -0.706454E-06
  Summing up the Hartree potential.
  Time summed over all CPUs for potential: real work        0.886 s, elapsed        0.934 s
  | RMS charge density error from multipole expansion :   0.337243E-02

  Integrating Hamiltonian matrix: batch-based integration.
  Time summed over all CPUs for integration: real work        1.142 s, elapsed        1.189 s

  Updating Kohn-Sham eigenvalues, eigenvectors, occupation numbers, and Fermi level.
  Solving generalized eigenproblem
  Updating Kohn-Sham eigenvalues and eigenfunctions.
  Solving real generalised eigenvalue problem by standard LAPACK (fast)

  Obtaining occupation numbers and chemical potential using ELSI.
  | Chemical potential (Fermi level):    -4.97882658eV
  Highest occupied state (VBM) at     -6.31949486 eV
  | Occupation number:      2.00000000

  Lowest unoccupied state (CBM) at    -0.54373443 eV
  | Occupation number:      0.00000000

  Overall HOMO-LUMO gap:      5.77576043 eV.

  Total energy components:
  | Sum of eigenvalues            :         -31.71079599 Ha        -862.89466243 eV
  | XC energy correction          :          -7.92918916 Ha        -215.76421496 eV
  | XC potential correction       :          10.19266441 Ha         277.35651045 eV
  | Free-atom electrostatic energy:         -25.14276942 Ha        -684.16956619 eV
  | Hartree energy correction     :          -1.97538409 Ha         -53.75293588 eV
  | vdW energy correction         :           0.00000000 Ha           0.00000000 eV
  | Entropy correction            :           0.00000000 Ha           0.00000000 eV
  | ---------------------------
  | Total energy                  :         -56.56547424 Ha       -1539.22486901 eV
  | Total energy, T -> 0          :         -56.56547424 Ha       -1539.22486901 eV  <-- do not rely on this value for anything but (periodic) metals
  | Electronic free energy        :         -56.56547424 Ha       -1539.22486901 eV

  Derived energy quantities:
  | Kinetic energy                :          56.36361247 Ha        1533.73193074 eV
  | Electrostatic energy          :        -104.99989755 Ha       -2857.19258478 eV
  | Energy correction for multipole
  | error in Hartree potential    :          -0.00187094 Ha          -0.05091087 eV
  | Sum of eigenvalues per atom                           :        -215.72366561 eV
  | Total energy (T->0) per atom                          :        -384.80621725 eV  <-- do not rely on this value for anything but (periodic) metals
  | Electronic free energy per atom                       :        -384.80621725 eV

  Self-consistency convergence accuracy:
  | Change of charge density      :  0.2204E-01
  | Change of sum of eigenvalues  :  0.8098E+00 eV
  | Change of total energy        :  0.6601E-02 eV

  End self-consistency iteration #     5       :  max(cpu_time)    wall_clock(cpu1)
  | Time for this iteration                    :        0.420 s           0.422 s
  | Charge density update                      :        0.128 s           0.128 s
  | Density mixing                             :        0.008 s           0.008 s
  | Hartree multipole update                   :        0.020 s           0.017 s
  | Hartree multipole summation                :        0.116 s           0.117 s
  | Integration                                :        0.148 s           0.148 s
  | Solution of K.-S. eqns.                    :        0.004 s           0.001 s
  | Total energy evaluation                    :        0.004 s           0.000 s

  Partial memory accounting:
  | Current value for overall tracked memory usage on task 0  :           0.124 MB
  | Peak value for overall tracked memory usage on task 0     :           0.659 MB after allocating gradient_basis_wave
  | Largest tracked array allocation on task 0 so far         :           0.401 MB  when allocating gradient_basis_wave
  Note:  These values currently only include a subset of arrays which are explicitly tracked.
  The "true" memory usage will be greater.
------------------------------------------------------------

------------------------------------------------------------
          Begin self-consistency iteration #    6

  Date     :  20180214, Time     :  152445.066
------------------------------------------------------------
  Evaluating new KS density.
  Integration grid: deviation in total charge (<rho> - N_e) =   0.000000E+00
  Pulay mixing of updated and previous charge densities.

  Evaluating partitioned Hartree potential by multipole expansion.
  | Analytical far-field extrapolation by fixed multipoles:
  | Hartree multipole sum: apparent total charge =  -0.749808E-06
  Summing up the Hartree potential.
  Time summed over all CPUs for potential: real work        0.883 s, elapsed        0.940 s
  | RMS charge density error from multipole expansion :   0.346161E-02

  Integrating Hamiltonian matrix: batch-based integration.
  Time summed over all CPUs for integration: real work        1.137 s, elapsed        1.200 s

  Updating Kohn-Sham eigenvalues, eigenvectors, occupation numbers, and Fermi level.
  Solving generalized eigenproblem
  Updating Kohn-Sham eigenvalues and eigenfunctions.
  Solving real generalised eigenvalue problem by standard LAPACK (fast)

  Obtaining occupation numbers and chemical potential using ELSI.
  | Chemical potential (Fermi level):    -4.90025321eV
  Highest occupied state (VBM) at     -6.11008202 eV
  | Occupation number:      2.00000000

  Lowest unoccupied state (CBM) at    -0.48060521 eV
  | Occupation number:      0.00000000

  Overall HOMO-LUMO gap:      5.62947682 eV.

  Total energy components:
  | Sum of eigenvalues            :         -31.64366034 Ha        -861.06780851 eV
  | XC energy correction          :          -7.93942388 Ha        -216.04271594 eV
  | XC potential correction       :          10.20606595 Ha         277.72118478 eV
  | Free-atom electrostatic energy:         -25.14276942 Ha        -684.16956619 eV
  | Hartree energy correction     :          -2.04540187 Ha         -55.65821680 eV
  | vdW energy correction         :           0.00000000 Ha           0.00000000 eV
  | Entropy correction            :           0.00000000 Ha           0.00000000 eV
  | ---------------------------
  | Total energy                  :         -56.56518957 Ha       -1539.21712265 eV
  | Total energy, T -> 0          :         -56.56518957 Ha       -1539.21712265 eV  <-- do not rely on this value for anything but (periodic) metals
  | Electronic free energy        :         -56.56518957 Ha       -1539.21712265 eV

  Derived energy quantities:
  | Kinetic energy                :          56.35704805 Ha        1533.55330378 eV
  | Electrostatic energy          :        -104.98281374 Ha       -2856.72771049 eV
  | Energy correction for multipole
  | error in Hartree potential    :          -0.00190851 Ha          -0.05193307 eV
  | Sum of eigenvalues per atom                           :        -215.26695213 eV
  | Total energy (T->0) per atom                          :        -384.80428066 eV  <-- do not rely on this value for anything but (periodic) metals
  | Electronic free energy per atom                       :        -384.80428066 eV

  Self-consistency convergence accuracy:
  | Change of charge density      :  0.1667E-01
  | Change of sum of eigenvalues  :  0.1827E+01 eV
  | Change of total energy        :  0.7746E-02 eV

  End self-consistency iteration #     6       :  max(cpu_time)    wall_clock(cpu1)
  | Time for this iteration                    :        0.428 s           0.424 s
  | Charge density update                      :        0.132 s           0.128 s
  | Density mixing                             :        0.012 s           0.011 s
  | Hartree multipole update                   :        0.020 s           0.016 s
  | Hartree multipole summation                :        0.116 s           0.118 s
  | Integration                                :        0.152 s           0.149 s
  | Solution of K.-S. eqns.                    :        0.004 s           0.001 s
  | Total energy evaluation                    :        0.000 s           0.001 s

  Partial memory accounting:
  | Current value for overall tracked memory usage on task 0  :           0.124 MB
  | Peak value for overall tracked memory usage on task 0     :           0.659 MB after allocating gradient_basis_wave
  | Largest tracked array allocation on task 0 so far         :           0.401 MB  when allocating gradient_basis_wave
  Note:  These values currently only include a subset of arrays which are explicitly tracked.
  The "true" memory usage will be greater.
------------------------------------------------------------

------------------------------------------------------------
          Begin self-consistency iteration #    7

  Date     :  20180214, Time     :  152445.490
------------------------------------------------------------
  Evaluating new KS density.
  Integration grid: deviation in total charge (<rho> - N_e) =  -1.776357E-15
  Pulay mixing of updated and previous charge densities.

  Evaluating partitioned Hartree potential by multipole expansion.
  | Analytical far-field extrapolation by fixed multipoles:
  | Hartree multipole sum: apparent total charge =  -0.763530E-06
  Summing up the Hartree potential.
  Time summed over all CPUs for potential: real work        0.885 s, elapsed        0.924 s
  | RMS charge density error from multipole expansion :   0.349487E-02

  Integrating Hamiltonian matrix: batch-based integration.
  Time summed over all CPUs for integration: real work        1.135 s, elapsed        1.189 s

  Updating Kohn-Sham eigenvalues, eigenvectors, occupation numbers, and Fermi level.
  Solving generalized eigenproblem
  Updating Kohn-Sham eigenvalues and eigenfunctions.
  Solving real generalised eigenvalue problem by standard LAPACK (fast)

  Obtaining occupation numbers and chemical potential using ELSI.
  | Chemical potential (Fermi level):    -4.86527020eV
  Highest occupied state (VBM) at     -6.02158782 eV
  | Occupation number:      2.00000000

  Lowest unoccupied state (CBM) at    -0.45025715 eV
  | Occupation number:      0.00000000

  Overall HOMO-LUMO gap:      5.57133067 eV.

  Total energy components:
  | Sum of eigenvalues            :         -31.61254567 Ha        -860.22113531 eV
  | XC energy correction          :          -7.94434591 Ha        -216.17665103 eV
  | XC potential correction       :          10.21250549 Ha         277.89641348 eV
  | Free-atom electrostatic energy:         -25.14276942 Ha        -684.16956619 eV
  | Hartree energy correction     :          -2.07800872 Ha         -56.54549430 eV
  | vdW energy correction         :           0.00000000 Ha           0.00000000 eV
  | Entropy correction            :           0.00000000 Ha           0.00000000 eV
  | ---------------------------
  | Total energy                  :         -56.56516424 Ha       -1539.21643335 eV
  | Total energy, T -> 0          :         -56.56516424 Ha       -1539.21643335 eV  <-- do not rely on this value for anything but (periodic) metals
  | Electronic free energy        :         -56.56516424 Ha       -1539.21643335 eV

  Derived energy quantities:
  | Kinetic energy                :          56.35987379 Ha        1533.63019610 eV
  | Electrostatic energy          :        -104.98069212 Ha       -2856.66997842 eV
  | Energy correction for multipole
  | error in Hartree potential    :          -0.00192372 Ha          -0.05234715 eV
  | Sum of eigenvalues per atom                           :        -215.05528383 eV
  | Total energy (T->0) per atom                          :        -384.80410834 eV  <-- do not rely on this value for anything but (periodic) metals
  | Electronic free energy per atom                       :        -384.80410834 eV

  Self-consistency convergence accuracy:
  | Change of charge density      :  0.4986E-02
  | Change of sum of eigenvalues  :  0.8467E+00 eV
  | Change of total energy        :  0.6893E-03 eV

  End self-consistency iteration #     7       :  max(cpu_time)    wall_clock(cpu1)
  | Time for this iteration                    :        0.420 s           0.422 s
  | Charge density update                      :        0.128 s           0.128 s
  | Density mixing                             :        0.012 s           0.013 s
  | Hartree multipole update                   :        0.016 s           0.016 s
  | Hartree multipole summation                :        0.116 s           0.115 s
  | Integration                                :        0.148 s           0.148 s
  | Solution of K.-S. eqns.                    :        0.004 s           0.001 s
  | Total energy evaluation                    :        0.000 s           0.000 s

  Partial memory accounting:
  | Current value for overall tracked memory usage on task 0  :           0.124 MB
  | Peak value for overall tracked memory usage on task 0     :           0.659 MB after allocating gradient_basis_wave
  | Largest tracked array allocation on task 0 so far         :           0.401 MB  when allocating gradient_basis_wave
  Note:  These values currently only include a subset of arrays which are explicitly tracked.
  The "true" memory usage will be greater.
------------------------------------------------------------

------------------------------------------------------------
          Begin self-consistency iteration #    8

  Date     :  20180214, Time     :  152445.912
------------------------------------------------------------
  Evaluating new KS density.
  Integration grid: deviation in total charge (<rho> - N_e) =   1.776357E-15
  Pulay mixing of updated and previous charge densities.

  Evaluating partitioned Hartree potential by multipole expansion.
  | Analytical far-field extrapolation by fixed multipoles:
  | Hartree multipole sum: apparent total charge =  -0.759996E-06
  Summing up the Hartree potential.
  Time summed over all CPUs for potential: real work        0.901 s, elapsed        1.044 s
  | RMS charge density error from multipole expansion :   0.349387E-02

  Integrating Hamiltonian matrix: batch-based integration.
  Time summed over all CPUs for integration: real work        1.138 s, elapsed        1.204 s

  Updating Kohn-Sham eigenvalues, eigenvectors, occupation numbers, and Fermi level.
  Solving generalized eigenproblem
  Updating Kohn-Sham eigenvalues and eigenfunctions.
  Solving real generalised eigenvalue problem by standard LAPACK (fast)

  Obtaining occupation numbers and chemical potential using ELSI.
  | Chemical potential (Fermi level):    -4.86734082eV
  Highest occupied state (VBM) at     -6.02666993 eV
  | Occupation number:      2.00000000

  Lowest unoccupied state (CBM) at    -0.45215607 eV
  | Occupation number:      0.00000000

  Overall HOMO-LUMO gap:      5.57451386 eV.

  Total energy components:
  | Sum of eigenvalues            :         -31.61389010 Ha        -860.25771899 eV
  | XC energy correction          :          -7.94418829 Ha        -216.17236221 eV
  | XC potential correction       :          10.21229340 Ha         277.89064221 eV
  | Free-atom electrostatic energy:         -25.14276942 Ha        -684.16956619 eV
  | Hartree energy correction     :          -2.07660960 Ha         -56.50742230 eV
  | vdW energy correction         :           0.00000000 Ha           0.00000000 eV
  | Entropy correction            :           0.00000000 Ha           0.00000000 eV
  | ---------------------------
  | Total energy                  :         -56.56516402 Ha       -1539.21642747 eV
  | Total energy, T -> 0          :         -56.56516402 Ha       -1539.21642747 eV  <-- do not rely on this value for anything but (periodic) metals
  | Electronic free energy        :         -56.56516402 Ha       -1539.21642747 eV

  Derived energy quantities:
  | Kinetic energy                :          56.36126064 Ha        1533.66793410 eV
  | Electrostatic energy          :        -104.98223636 Ha       -2856.71199937 eV
  | Energy correction for multipole
  | error in Hartree potential    :          -0.00192500 Ha          -0.05238186 eV
  | Sum of eigenvalues per atom                           :        -215.06442975 eV
  | Total energy (T->0) per atom                          :        -384.80410687 eV  <-- do not rely on this value for anything but (periodic) metals
  | Electronic free energy per atom                       :        -384.80410687 eV

  Self-consistency convergence accuracy:
  | Change of charge density      :  0.4061E-03
  | Change of sum of eigenvalues  : -0.3658E-01 eV
  | Change of total energy        :  0.5875E-05 eV

  End self-consistency iteration #     8       :  max(cpu_time)    wall_clock(cpu1)
  | Time for this iteration                    :        0.440 s           0.440 s
  | Charge density update                      :        0.128 s           0.127 s
  | Density mixing                             :        0.016 s           0.014 s
  | Hartree multipole update                   :        0.016 s           0.016 s
  | Hartree multipole summation                :        0.132 s           0.130 s
  | Integration                                :        0.148 s           0.150 s
  | Solution of K.-S. eqns.                    :        0.004 s           0.001 s
  | Total energy evaluation                    :        0.004 s           0.000 s

  Partial memory accounting:
  | Current value for overall tracked memory usage on task 0  :           0.124 MB
  | Peak value for overall tracked memory usage on task 0     :           0.659 MB after allocating gradient_basis_wave
  | Largest tracked array allocation on task 0 so far         :           0.401 MB  when allocating gradient_basis_wave
  Note:  These values currently only include a subset of arrays which are explicitly tracked.
  The "true" memory usage will be greater.
------------------------------------------------------------

------------------------------------------------------------
          Begin self-consistency iteration #    9

  Date     :  20180214, Time     :  152446.352
------------------------------------------------------------
  Evaluating new KS density.
  Integration grid: deviation in total charge (<rho> - N_e) =   0.000000E+00
  Pulay mixing of updated and previous charge densities.

  Evaluating partitioned Hartree potential by multipole expansion.
  | Analytical far-field extrapolation by fixed multipoles:
  | Hartree multipole sum: apparent total charge =  -0.758250E-06
  Summing up the Hartree potential.
  Time summed over all CPUs for potential: real work        0.885 s, elapsed        0.950 s
  | RMS charge density error from multipole expansion :   0.349499E-02

  Integrating Hamiltonian matrix: batch-based integration.
  Time summed over all CPUs for integration: real work        1.163 s, elapsed        1.218 s

  Updating Kohn-Sham eigenvalues, eigenvectors, occupation numbers, and Fermi level.
  Solving generalized eigenproblem
  Updating Kohn-Sham eigenvalues and eigenfunctions.
  Solving real generalised eigenvalue problem by standard LAPACK (fast)

  Obtaining occupation numbers and chemical potential using ELSI.
  | Chemical potential (Fermi level):    -4.86762838eV
  Highest occupied state (VBM) at     -6.02759037 eV
  | Occupation number:      2.00000000

  Lowest unoccupied state (CBM) at    -0.45227812 eV
  | Occupation number:      0.00000000

  Overall HOMO-LUMO gap:      5.57531225 eV.

  Total energy components:
  | Sum of eigenvalues            :         -31.61416030 Ha        -860.26507143 eV
  | XC energy correction          :          -7.94419283 Ha        -216.17248565 eV
  | XC potential correction       :          10.21229613 Ha         277.89071654 eV
  | Free-atom electrostatic energy:         -25.14276942 Ha        -684.16956619 eV
  | Hartree energy correction     :          -2.07633758 Ha         -56.50002011 eV
  | vdW energy correction         :           0.00000000 Ha           0.00000000 eV
  | Entropy correction            :           0.00000000 Ha           0.00000000 eV
  | ---------------------------
  | Total energy                  :         -56.56516400 Ha       -1539.21642684 eV
  | Total energy, T -> 0          :         -56.56516400 Ha       -1539.21642684 eV  <-- do not rely on this value for anything but (periodic) metals
  | Electronic free energy        :         -56.56516400 Ha       -1539.21642684 eV

  Derived energy quantities:
  | Kinetic energy                :          56.36143427 Ha        1533.67265891 eV
  | Electrostatic energy          :        -104.98240544 Ha       -2856.71660010 eV
  | Energy correction for multipole
  | error in Hartree potential    :          -0.00192522 Ha          -0.05238788 eV
  | Sum of eigenvalues per atom                           :        -215.06626786 eV
  | Total energy (T->0) per atom                          :        -384.80410671 eV  <-- do not rely on this value for anything but (periodic) metals
  | Electronic free energy per atom                       :        -384.80410671 eV

  Self-consistency convergence accuracy:
  | Change of charge density      :  0.1144E-03
  | Change of sum of eigenvalues  : -0.7352E-02 eV
  | Change of total energy        :  0.6297E-06 eV

  End self-consistency iteration #     9       :  max(cpu_time)    wall_clock(cpu1)
  | Time for this iteration                    :        0.436 s           0.435 s
  | Charge density update                      :        0.128 s           0.126 s
  | Density mixing                             :        0.016 s           0.016 s
  | Hartree multipole update                   :        0.020 s           0.020 s
  | Hartree multipole summation                :        0.120 s           0.120 s
  | Integration                                :        0.152 s           0.151 s
  | Solution of K.-S. eqns.                    :        0.004 s           0.002 s
  | Total energy evaluation                    :        0.000 s           0.000 s

  Partial memory accounting:
  | Current value for overall tracked memory usage on task 0  :           0.124 MB
  | Peak value for overall tracked memory usage on task 0     :           0.659 MB after allocating gradient_basis_wave
  | Largest tracked array allocation on task 0 so far         :           0.401 MB  when allocating gradient_basis_wave
  Note:  These values currently only include a subset of arrays which are explicitly tracked.
  The "true" memory usage will be greater.
------------------------------------------------------------

------------------------------------------------------------
          Begin self-consistency iteration #   10

  Date     :  20180214, Time     :  152446.788
------------------------------------------------------------
  Evaluating new KS density.
  Integration grid: deviation in total charge (<rho> - N_e) =   1.065814E-14
  Pulay mixing of updated and previous charge densities.

  Evaluating partitioned Hartree potential by multipole expansion.
  | Analytical far-field extrapolation by fixed multipoles:
  | Hartree multipole sum: apparent total charge =  -0.758565E-06
  Summing up the Hartree potential.
  Time summed over all CPUs for potential: real work        0.883 s, elapsed        0.933 s
  | RMS charge density error from multipole expansion :   0.349493E-02

  Integrating Hamiltonian matrix: batch-based integration.
  Time summed over all CPUs for integration: real work        1.156 s, elapsed        1.321 s

  Updating Kohn-Sham eigenvalues, eigenvectors, occupation numbers, and Fermi level.
  Solving generalized eigenproblem
  Updating Kohn-Sham eigenvalues and eigenfunctions.
  Solving real generalised eigenvalue problem by standard LAPACK (fast)

  Obtaining occupation numbers and chemical potential using ELSI.
  | Chemical potential (Fermi level):    -4.86753374eV
  Highest occupied state (VBM) at     -6.02717340 eV
  | Occupation number:      2.00000000

  Lowest unoccupied state (CBM) at    -0.45224691 eV
  | Occupation number:      0.00000000

  Overall HOMO-LUMO gap:      5.57492649 eV.

  Total energy components:
  | Sum of eigenvalues            :         -31.61402158 Ha        -860.26129672 eV
  | XC energy correction          :          -7.94420735 Ha        -216.17288063 eV
  | XC potential correction       :          10.21231545 Ha         277.89124239 eV
  | Free-atom electrostatic energy:         -25.14276942 Ha        -684.16956619 eV
  | Hartree energy correction     :          -2.07648110 Ha         -56.50392574 eV
  | vdW energy correction         :           0.00000000 Ha           0.00000000 eV
  | Entropy correction            :           0.00000000 Ha           0.00000000 eV
  | ---------------------------
  | Total energy                  :         -56.56516400 Ha       -1539.21642690 eV
  | Total energy, T -> 0          :         -56.56516400 Ha       -1539.21642690 eV  <-- do not rely on this value for anything but (periodic) metals
  | Electronic free energy        :         -56.56516400 Ha       -1539.21642690 eV

  Derived energy quantities:
  | Kinetic energy                :          56.36143674 Ha        1533.67272601 eV
[...]
  | Electronic free energy        :         -56.56516400 Ha       -1539.21642688 eV

  Derived energy quantities:
  | Kinetic energy                :          56.36142386 Ha        1533.67237570 eV
  | Electrostatic energy          :        -104.98238203 Ha       -2856.71596312 eV
  | Energy correction for multipole
  | error in Hartree potential    :          -0.00192547 Ha          -0.05239473 eV
  | Sum of eigenvalues per atom                           :        -215.06545417 eV
  | Total energy (T->0) per atom                          :        -384.80410672 eV  <-- do not rely on this value for anything but (periodic) metals
  | Electronic free energy per atom                       :        -384.80410672 eV

  atomic forces [eV/Ang]:
  -----------------------
  atom #    1
   Hellmann-Feynman              :  0.370514E-11  0.526516E-04  0.111772E+02
   Ionic forces                  :  0.000000E+00  0.000000E+00  0.000000E+00
   Multipole                     :  0.842300E-13  0.451037E-04  0.313691E-01
   Pulay + GGA                   :  0.123885E-11 -0.557957E-04 -0.109327E+02
   Van der Waals                 :  0.000000E+00  0.000000E+00  0.000000E+00
   ----------------------------------------------------------------
   Total forces(   1)            :  0.502822E-11  0.419597E-04  0.275843E+00
  atom #    2
   Hellmann-Feynman              : -0.109860E+00  0.634540E-01 -0.491569E-01
   Ionic forces                  :  0.000000E+00  0.000000E+00  0.000000E+00
   Multipole                     : -0.789845E-02  0.456236E-02 -0.358225E-02
   Pulay + GGA                   :  0.564396E-01 -0.325851E-01 -0.406710E-01
   Van der Waals                 :  0.000000E+00  0.000000E+00  0.000000E+00
   ----------------------------------------------------------------
   Total forces(   2)            : -0.613186E-01  0.354313E-01 -0.934102E-01
  atom #    3
   Hellmann-Feynman              :  0.109860E+00  0.634540E-01 -0.491569E-01
   Ionic forces                  :  0.000000E+00  0.000000E+00  0.000000E+00
   Multipole                     :  0.789845E-02  0.456236E-02 -0.358225E-02
   Pulay + GGA                   : -0.564396E-01 -0.325851E-01 -0.406710E-01
   Van der Waals                 :  0.000000E+00  0.000000E+00  0.000000E+00
   ----------------------------------------------------------------
   Total forces(   3)            :  0.613186E-01  0.354313E-01 -0.934102E-01
  atom #    4
   Hellmann-Feynman              : -0.713357E-12 -0.126809E+00 -0.491964E-01
   Ionic forces                  :  0.000000E+00  0.000000E+00  0.000000E+00
   Multipole                     : -0.162364E-13 -0.913093E-02 -0.357773E-02
   Pulay + GGA                   : -0.156105E-13  0.651691E-01 -0.406682E-01
   Van der Waals                 :  0.000000E+00  0.000000E+00  0.000000E+00
   ----------------------------------------------------------------
   Total forces(   4)            : -0.745204E-12 -0.707703E-01 -0.934424E-01


  Self-consistency convergence accuracy:
  | Change of charge density      :  0.1451E-05
  | Change of sum of eigenvalues  :  0.1177E-03 eV
  | Change of total energy        : -0.2337E-08 eV
  | Change of forces              :  0.5606E+01 eV/A

  Writing Kohn-Sham eigenvalues.

  State    Occupation    Eigenvalue [Ha]    Eigenvalue [eV]
      1       2.00000         -13.980686         -380.43381
      2       2.00000          -0.773551          -21.04938
      3       2.00000          -0.415644          -11.31026
      4       2.00000          -0.415643          -11.31023
      5       2.00000          -0.221496           -6.02723
      6       0.00000          -0.016620           -0.45226
      7       0.00000           0.043531            1.18455
      8       0.00000           0.043532            1.18456
      9       0.00000           0.141978            3.86343
     10       0.00000           0.141979            3.86346
     11       0.00000           0.165983            4.51664
     12       0.00000           0.185147            5.03811
     13       0.00000           0.266340            7.24749

  Highest occupied state (VBM) at     -6.02722599 eV
  | Occupation number:      2.00000000

  Lowest unoccupied state (CBM) at    -0.45225542 eV
  | Occupation number:      0.00000000

  Overall HOMO-LUMO gap:      5.57497057 eV.

  Self-consistency cycle converged.

  End self-consistency iteration #    12       :  max(cpu_time)    wall_clock(cpu1)
  | Time for this iteration                    :        1.224 s           1.226 s
  | Charge density & force component update    :        0.636 s           0.636 s
  | Density mixing                             :        0.020 s           0.021 s
  | Hartree multipole update                   :        0.016 s           0.015 s
  | Hartree multipole summation                :        0.400 s           0.402 s
  | Integration                                :        0.148 s           0.149 s
  | Solution of K.-S. eqns.                    :        0.004 s           0.002 s
  | Total energy evaluation                    :        0.004 s           0.000 s

  Partial memory accounting:
  | Current value for overall tracked memory usage on task 0  :           0.124 MB
  | Peak value for overall tracked memory usage on task 0     :           1.595 MB after allocating hessian_basis_wave
  | Largest tracked array allocation on task 0 so far         :           0.802 MB  when allocating hessian_basis_wave
  Note:  These values currently only include a subset of arrays which are explicitly tracked.
  The "true" memory usage will be greater.
------------------------------------------------------------
  Obtaining max. number of non-zero basis functions in each batch .
  Evaluating KS electron density on previously omitted grid points.
  Evaluating non-empirical van der Waals correction (Tkatchenko/Scheffler 2009).
  Performing Hirshfeld analysis of fragment charges and moments.
  ----------------------------------------------------------------------
  | Atom     1: N
  |   Hirshfeld charge        :     -0.29496131
  |   Free atom volume        :     29.90025371
  |   Hirshfeld volume        :     25.67182508
  |   Hirshfeld dipole vector :     -0.00000000       0.00000091      -0.08549198
  |   Hirshfeld dipole moment :      0.08549198
  |   Hirshfeld second moments:      0.11469952       0.00000000       0.00000000
  |                                  0.00000000       0.11470020      -0.00000011
  |                                  0.00000000      -0.00000011      -0.05044614
  ----------------------------------------------------------------------
  | Atom     2: H
  |   Hirshfeld charge        :      0.09832625
  |   Free atom volume        :     10.31539447
  |   Hirshfeld volume        :      6.28498436
  |   Hirshfeld dipole vector :      0.09205782      -0.05315060      -0.03437015
  |   Hirshfeld dipole moment :      0.11171811
  |   Hirshfeld second moments:      0.11702390       0.01035120       0.00514490
  |                                  0.01035120       0.12897475      -0.00296993
  |                                  0.00514490      -0.00296993       0.07912728
  ----------------------------------------------------------------------
  | Atom     3: H
  |   Hirshfeld charge        :      0.09832625
  |   Free atom volume        :     10.31539447
  |   Hirshfeld volume        :      6.28498436
  |   Hirshfeld dipole vector :     -0.09205782      -0.05315060      -0.03437015
  |   Hirshfeld dipole moment :      0.11171811
  |   Hirshfeld second moments:      0.11702390      -0.01035120      -0.00514490
  |                                 -0.01035120       0.12897475      -0.00296993
  |                                 -0.00514490      -0.00296993       0.07912728
  ----------------------------------------------------------------------
  | Atom     4: H
  |   Hirshfeld charge        :      0.09832300
  |   Free atom volume        :     10.31539447
  |   Hirshfeld volume        :      6.28503989
  |   Hirshfeld dipole vector :      0.00000000       0.10630382      -0.03437062
  |   Hirshfeld dipole moment :      0.11172216
  |   Hirshfeld second moments:      0.13495088       0.00000000       0.00000000
  |                                  0.00000000       0.11104250       0.00594094
  |                                  0.00000000       0.00594094       0.07912689
  ----------------------------------------------------------------------


  Total energy components:
  | Sum of eigenvalues            :         -31.61404068 Ha        -860.26181667 eV
  | XC energy correction          :          -7.94420583 Ha        -216.17283946 eV
  | XC potential correction       :          10.21231337 Ha         277.89118583 eV
  | Free-atom electrostatic energy:         -25.14276942 Ha        -684.16956619 eV
  | Hartree energy correction     :          -2.07646143 Ha         -56.50339039 eV
  | vdW energy correction         :          -0.00000592 Ha          -0.00016112 eV
  | Entropy correction            :           0.00000000 Ha           0.00000000 eV
  | ---------------------------
  | Total energy                  :         -56.56516992 Ha       -1539.21658801 eV
  | Total energy, T -> 0          :         -56.56516992 Ha       -1539.21658801 eV  <-- do not rely on this value for anything but (periodic) metals
  | Electronic free energy        :         -56.56516992 Ha       -1539.21658801 eV

  Derived energy quantities:
  | Kinetic energy                :          56.36142386 Ha        1533.67237570 eV
  | Electrostatic energy          :        -104.98238203 Ha       -2856.71596312 eV
  | Energy correction for multipole
  | error in Hartree potential    :          -0.00192547 Ha          -0.05239473 eV
  | Sum of eigenvalues per atom                           :        -215.06545417 eV
  | Total energy (T->0) per atom                          :        -384.80414700 eV  <-- do not rely on this value for anything but (periodic) metals
  | Electronic free energy per atom                       :        -384.80414700 eV

  atomic forces [eV/Ang]:
  -----------------------
  atom #    1
   Hellmann-Feynman              :  0.370514E-11  0.526516E-04  0.111772E+02
   Ionic forces                  :  0.000000E+00  0.000000E+00  0.000000E+00
   Multipole                     :  0.842300E-13  0.451037E-04  0.313691E-01
   Pulay + GGA                   :  0.123885E-11 -0.557957E-04 -0.109327E+02
   Van der Waals                 : -0.667141E-17  0.194666E-09  0.902483E-05
   ----------------------------------------------------------------
   Total forces(   1)            :  0.502821E-11  0.419599E-04  0.275852E+00
  atom #    2
   Hellmann-Feynman              : -0.109860E+00  0.634540E-01 -0.491569E-01
   Ionic forces                  :  0.000000E+00  0.000000E+00  0.000000E+00
   Multipole                     : -0.789845E-02  0.456236E-02 -0.358225E-02
   Pulay + GGA                   :  0.564396E-01 -0.325851E-01 -0.406710E-01
   Van der Waals                 :  0.280656E-03 -0.162038E-03 -0.300837E-05
   ----------------------------------------------------------------
   Total forces(   2)            : -0.610380E-01  0.352692E-01 -0.934132E-01
  atom #    3
   Hellmann-Feynman              :  0.109860E+00  0.634540E-01 -0.491569E-01
   Ionic forces                  :  0.000000E+00  0.000000E+00  0.000000E+00
   Multipole                     :  0.789845E-02  0.456236E-02 -0.358225E-02
   Pulay + GGA                   : -0.564396E-01 -0.325851E-01 -0.406710E-01
   Van der Waals                 : -0.280656E-03 -0.162038E-03 -0.300837E-05
   ----------------------------------------------------------------
   Total forces(   3)            :  0.610380E-01  0.352692E-01 -0.934132E-01
  atom #    4
   Hellmann-Feynman              : -0.713357E-12 -0.126809E+00 -0.491964E-01
   Ionic forces                  :  0.000000E+00  0.000000E+00  0.000000E+00
   Multipole                     : -0.162364E-13 -0.913093E-02 -0.357773E-02
   Pulay + GGA                   : -0.156105E-13  0.651691E-01 -0.406682E-01
   Van der Waals                 :  0.323078E-16  0.324075E-03 -0.300809E-05
   ----------------------------------------------------------------
   Total forces(   4)            : -0.745171E-12 -0.704463E-01 -0.934454E-01

  Timings for VdW correction (Tkatchenko-Scheffler 2009 or later):
  | CPU time:        0.024 s, Wall clock time:        0.025 s.
  Removing unitary transformations (pure translations, rotations) from forces on atoms.
  Atomic forces before filtering:
  | Net force on center of mass :   0.431919E-12  0.134138E-03 -0.441961E-02 eV/A
  | Net torque on center of mass:  -0.330985E-04  0.116993E-12  0.131102E-13 eV
  Atomic forces after filtering:
  | Net force on center of mass :  -0.468047E-19  0.000000E+00 -0.223008E-16 eV/A
  | Net torque on center of mass:   0.206518E-16  0.474372E-17  0.115196E-16 eV

  Energy and forces in a compact form:
  | Total energy uncorrected      :         -0.153921658800631E+04 eV
  | Total energy corrected        :         -0.153921658800631E+04 eV  <-- do not rely on this value for anything but (periodic) metals
  | Electronic free energy        :         -0.153921658800631E+04 eV
  Total atomic forces (unitary forces cleaned) [eV/Ang]:
  |   1          0.489895620461987E-11          0.240619985892691E-05          0.276957008326334E+00
  |   2         -0.610379794692727E-01          0.352376933141474E-01         -0.923190667852626E-01
  |   3          0.610379794652153E-01          0.352376933127766E-01         -0.923190667873942E-01
  |   4         -0.841485982393686E-12         -0.704777928267829E-01         -0.923188747536772E-01

  ------------------------------------ 
  Start decomposition of the XC Energy 
  ------------------------------------ 
  X and C from original XC functional choice 
  Hartree-Fock Energy :          0.000000000 Ha              0.000000000 eV
  X Energy            :         -7.630629223 Ha           -207.639985755 eV
  C Energy            :         -0.313576610 Ha             -8.532853709 eV
  Total XC Energy     :         -7.944205833 Ha           -216.172839464 eV
  ------------------------------------ 
  LDA X and C from self-consistent density 
  X Energy LDA        :         -6.908848220 Ha           -187.999325368 eV
  C Energy LDA        :         -0.622840126 Ha            -16.948342156 eV
  ------------------------------------ 
  End decomposition of the XC Energy 
  ------------------------------------ 

------------------------------------------------------------

------------------------------------------------------------------------------
  Final output of selected total energy values:

  The following output summarizes some interesting total energy values
  at the end of a run (AFTER all relaxation, molecular dynamics, etc.).

  | Total energy of the DFT / Hartree-Fock s.c.f. calculation      :          -1539.216588006 eV
  | Final zero-broadening corrected energy (caution - metals only) :          -1539.216588006 eV
  | For reference only, the value of 1 Hartree used in FHI-aims is :             27.211384500 eV

  Before relying on these values, please be sure to understand exactly which
  total energy value is referred to by a given number. Different objects may
  all carry the same name 'total energy'. Definitions:

  Total energy of the DFT / Hartree-Fock s.c.f. calculation:
  | Note that this energy does not include ANY quantities calculated after the
  | s.c.f. cycle, in particular not ANY RPA, MP2, etc. many-body perturbation terms.

  Final zero-broadening corrected energy:
  | For metallic systems only, a broadening of the occupation numbers at the Fermi
  | level can be extrapolated back to zero broadening by an electron-gas inspired
  | formula. For all systems that are not real metals, this value can be
  | meaningless and should be avoided.

------------------------------------------------------------------------------
  Methods described in the following list of references were used in this FHI-aims run.
  If you publish the results, please make sure to cite these reference if they apply.
  FHI-aims is an academic code, and for our developers (often, Ph.D. students
  and postdocs), scientific credit in the community is essential.
  Thank you for helping us!

  For any use of FHI-aims, please cite:

    Volker Blum, Ralf Gehrke, Felix Hanke, Paula Havu, Ville Havu,
    Xinguo Ren, Karsten Reuter, and Matthias Scheffler
    'Ab initio molecular simulations with numeric atom-centered orbitals'
    Computer Physics Communications 180, 2175-2196 (2009)
    http://dx.doi.org/10.1016/j.cpc.2009.06.022


  For the real-space grid partitioning and parallelization used in this calculation, please cite:

    Ville Havu, Volker Blum, Paula Havu, and Matthias Scheffler,
    'Efficient O(N) integration for all-electron electronic structure calculation'
    'using numerically tabulated basis functions'
    Journal of Computational Physics 228, 8367-8379 (2009).
    http://dx.doi.org/10.1016/j.jcp.2009.08.008

  Of course, there are many other important community references, e.g., those cited in the
  above references. Our list is limited to references that describe implementations in the
  FHI-aims code. The reason is purely practical (length of this list) - please credit others as well.

------------------------------------------------------------
          Leaving FHI-aims.
          Date     :  20180214, Time     :  152448.924

          Computational steps:
          | Number of self-consistency cycles          :           12
          | Number of SCF (re)initializations          :            1

          Detailed time accounting                     :  max(cpu_time)    wall_clock(cpu1)
          | Total time                                 :        6.560 s           6.596 s
          | Preparation time                           :        0.240 s           0.246 s
          | Boundary condition initalization           :        0.000 s           0.000 s
          | Grid partitioning                          :        0.064 s           0.063 s
          | Preloading free-atom quantities on grid    :        0.020 s           0.020 s
          | Free-atom superposition energy             :        0.016 s           0.016 s
          | Total time for integrations                :        2.020 s           2.017 s
          | Total time for solution of K.-S. equations :        0.056 s           0.029 s
          | Total time for density & force components  :        2.048 s           2.036 s
          | Total time for mixing                      :        0.140 s           0.130 s
          | Total time for Hartree multipole update    :        0.208 s           0.198 s
          | Total time for Hartree multipole sum       :        1.732 s           1.723 s
          | Total time for total energy evaluation     :        0.016 s           0.006 s
          | Total time for scaled ZORA corrections     :        0.000 s           0.000 s
          | Total time for vdW correction              :        0.024 s           0.025 s

          Partial memory accounting:
          | Residual value for overall tracked memory usage across tasks :           0.000 MB (should be 0.000 MB)
          | Peak values for overall tracked memory usage (after allocating hessian_basis_wave):
          |   Minimum:        1.595 MB (on task 1)
          |   Maximum:        1.595 MB (on task 1)
          |   Average:        1.595 MB
          | Largest tracked array allocation (hessian_basis_wave):
          |   Minimum:        0.802 MB (on task 1)
          |   Maximum:        0.802 MB (on task 1)
          |   Average:        0.802 MB
          Note:  These values currently only include a subset of arrays which are explicitly tracked.
          The "true" memory usage will be greater.

          Have a nice day.
------------------------------------------------------------
