  MPI-parallelism will be employed.
------------------------------------------------------------
          Invoking FHI-aims ...

          When using FHI-aims, please cite the following reference:

          Volker Blum, Ralf Gehrke, Felix Hanke, Paula Havu,
          Ville Havu, Xinguo Ren, Karsten Reuter, and Matthias Scheffler,
          'Ab Initio Molecular Simulations with Numeric Atom-Centered Orbitals',
          Computer Physics Communications 180, 2175-2196 (2009)

          For any questions about FHI-aims, please visit the aimsclub website
          with its forums and wiki. Contributions to both the forums and the
          wiki are warmly encouraged - they are for you, and everyone is welcome there.

------------------------------------------------------------



  Date     :  20190817, Time     :  153611.742
  Time zero on CPU 1             :   0.372930000000000E-01  s.
  Internal wall clock time zero  :           335288171.742  s.

  FHI-aims created a unique identifier for this run for later identification
  aims_uuid : 43B3B9C8-F73F-419D-AAA4-D3074F58F48F

  Build configuration of the current instance of FHI-aims
  -------------------------------------------------------
  FHI-aims version      : 190813
  Commit number         : 3da7baeb3
  CMake host system     : Linux-4.4.180-94.97-default
  CMake version         : 3.5.2
  Fortran compiler      : /mpcdf/soft/SLE_12_SP3/packages/x86_64/intel_parallel_studio/2018.4/compilers_and_libraries_2018.5.274/linux/mpi/bin64/mpiifort (Intel) version 18.0.5.20180823
  Fortran compiler flags: -O3 -ip -fp-model precise
  C compiler            : /mpcdf/soft/SLE_12_SP3/packages/skylake/intel/18.0.5/bin/icc (Intel) version 18.0.5.20180823
  C compiler flags      : -O3 -ip -fp-model precise
  Architecture          :
  Using MPI
  Using Scalapack
  Using C files
  Using SPGlib
  Using i-PI
  Linking against: /mpcdf/soft/SLE_12_SP3/packages/x86_64/anaconda/3.5.1.0/lib/libmkl_intel_lp64.so
                   /mpcdf/soft/SLE_12_SP3/packages/x86_64/anaconda/3.5.1.0/lib/libmkl_sequential.so
                   /mpcdf/soft/SLE_12_SP3/packages/x86_64/anaconda/3.5.1.0/lib/libmkl_core.so
                   /mpcdf/soft/SLE_12_SP3/packages/x86_64/anaconda/3.5.1.0/lib/libmkl_blacs_intelmpi_lp64.so
                   /mpcdf/soft/SLE_12_SP3/packages/x86_64/anaconda/3.5.1.0/lib/libmkl_scalapack_lp64.so

  Using        8 parallel tasks.
  Task        0 on host co1631 reporting.
  Task        1 on host co1631 reporting.
  Task        2 on host co1631 reporting.
  Task        3 on host co1631 reporting.
  Task        4 on host co1631 reporting.
  Task        5 on host co1631 reporting.
  Task        6 on host co1631 reporting.
  Task        7 on host co1631 reporting.

  Performing system and environment tests:
  | Environment variable OMP_NUM_THREADS correctly set to 1.
  | Maximum stacksize for task 0: unlimited
  | Maximum stacksize for task 1: unlimited
  | Maximum stacksize for task 2: unlimited
  | Maximum stacksize for task 3: unlimited
  | Maximum stacksize for task 4: unlimited
  | Maximum stacksize for task 5: unlimited
  | Maximum stacksize for task 6: unlimited
  | Maximum stacksize for task 7: unlimited
  | Current stacksize for task 0: unlimited
  | Current stacksize for task 1: unlimited
  | Current stacksize for task 2: unlimited
  | Current stacksize for task 3: unlimited
  | Current stacksize for task 4: unlimited
  | Current stacksize for task 5: unlimited
  | Current stacksize for task 6: unlimited
  | Current stacksize for task 7: unlimited
  | Checking for scalapack...
  | Testing pdtran()...
  | All pdtran() tests passed.

  Obtaining array dimensions for all initial allocations:
  
  -----------------------------------------------------------------------
  Parsing control.in (first pass over file, find array dimensions only).
  The contents of control.in will be repeated verbatim below
  unless switched off by setting 'verbatim_writeout .false.' .
  in the first line of control.in .
  -----------------------------------------------------------------------
  
  #  Physical model
  #
    xc                 b3lyp
    spin               collinear
  #  spin               none
    relativistic       none
    charge             1.
    default_initial_moment 0.01
  
  #
  #  SCF convergence
  #
    occupation_type    gaussian 0.01
    mixer              pulay
      n_max_pulay        10
      charge_mix_param   0.5
    sc_accuracy_rho    1E-4
    sc_accuracy_eev    1E-2
    sc_accuracy_etot   1E-6
    sc_iter_limit      100
  #
  #  Relaxation
  #
  #  relax_geometry   bfgs 1.e-2
  #
    packed_matrix_format index
    fo_dft final
    fo_orbitals 1 1 1 1 hole
    fo_folders frag1_00 frag2_00
  ################################################################################
  #
  #  FHI-aims code project
  #  VB, Fritz-Haber Institut, 2009
  #
  #  Suggested "light" defaults for He atom (to be pasted into control.in file)
  #  Be sure to double-check any results obtained with these settings for post-processing,
  #  e.g., with the "tight" defaults and larger basis sets.
  #
  ################################################################################
    species        He
  #     global species definitions
      nucleus             2
      mass                4.002602
  #
      l_hartree           4
  #
      cut_pot             3.5  1.5  1.0
      basis_dep_cutoff    1e-4
  #
      radial_base         27 5.0
      radial_multiplier   1
      angular_grids       specified
        division   0.3349  110
        division   0.4719  194
        division   0.5352  302
  #      division   1.8809  770
  #      outer_grid    770
        outer_grid    302
  ################################################################################
  #
  #  Definition of "minimal" basis
  #
  ################################################################################
  #     valence basis states
      valence      1  s   2.
      valence      2  s   0.00000
  #     ion occupancy
      ion_occ      1  s   1.
  ################################################################################
  #
  #  Suggested additional basis functions. For production calculations,
  #  uncomment them one after another (the most important basis functions are
  #  listed first).
  #
  #  Constructed for dimers: 1.25 A, 1.75 A, 2.40 A, 3.25 A
  #
  #  Noble gas symmetric dimers converge quickly in DFT. If you find that
  #  you require a larger basis than tier 2, please contact us - VB, FHI.
  #
  ################################################################################
  #  "First tier" - improvements: -33.45 meV to -13.84 meV
       hydro 1 s 0.85
       hydro 2 p 3.5
  #  "Second tier" - improvements: -0.70 meV to -0.05 meV
       hydro 3 d 7.2
       hydro 3 s 3
  #     hydro 3 p 4.9
  #     hydro 4 f 12
  
  -----------------------------------------------------------------------
  Completed first pass over input file control.in .
  -----------------------------------------------------------------------
  
  
  -----------------------------------------------------------------------
  Parsing geometry.in (first pass over file, find array dimensions only).
  The contents of geometry.in will be repeated verbatim below
  unless switched off by setting 'verbatim_writeout .false.' .
  in the first line of geometry.in .
  -----------------------------------------------------------------------
  
  #=======================================================
  #FHI-aims file: zn2plus_5.aims
  #Created using the Atomic Simulation Environment (ASE)
  #=======================================================
  atom 0.0000000000000000 0.0000000000000000 0.0000000000000000 He
  atom 0.0000000000000000 0.0000000000000000 3.0000000000000000 He
  initial_charge 1
  
  -----------------------------------------------------------------------
  Completed first pass over input file geometry.in .
  -----------------------------------------------------------------------
  

  Basic array size parameters:
  | Number of species                 :        1
  | Number of atoms                   :        2
  | Max. basis fn. angular momentum   :        2
  | Max. atomic/ionic basis occupied n:        2
  | Max. number of basis fn. types    :        2
  | Max. radial fns per species/type  :        4
  | Max. logarithmic grid size        :     1187
  | Max. radial integration grid size :       27
  | Max. angular integration grid size:      302
  | Max. angular grid division number :        8
  | Radial grid for Hartree potential :     1187
  | Number of spin channels           :        2

------------------------------------------------------------
          Reading file control.in.
------------------------------------------------------------
  XC: Using hybrid B3LYP functional.
  | This version of B3LYP uses the RPA parametrization of LDA given by
  | Vosko, Wilk, Nusair. This choice differs from Becke's original paper,
  | and goes back to a now de facto standard (originally, erroneous)
  | implementation in the Gaussian suite of codes.
  Spin treatment: Spin density functional theory - collinear spins.
  Non-relativistic treatment of kinetic energy.
  Charged system requested: Charge =   0.100000E+01.
  Initial spin moment per atom:   0.0100
  Occupation type: Gaussian broadening, width =   0.100000E-01 eV.
  Using pulay charge density mixing.
  Pulay mixing - number of memorized iterations:   10
  Charge density mixing - mixing parameter:     0.5000
  Convergence accuracy of self-consistent charge density:  0.1000E-03
  Convergence accuracy of sum of eigenvalues:  0.1000E-01
  Convergence accuracy of total energy:  0.1000E-05
  Maximum number of s.-c. iterations  :   100
 Using packed matrix format           2
  No previous restart file was found for FO_DFT run:
  ... Generating new file from restart.f1 and restart.f2!
 
  Reading configuration options for species He                  .
  | Found nuclear charge :   2.0000
  | Found atomic mass :    4.00260200000000      amu
  | Found l_max for Hartree potential  :   4
  | Found cutoff potl. onset [A], width [A], scale factor :    3.50000    1.50000    1.00000
  | Threshold for basis-dependent cutoff potential is   0.100000E-03
  | Found data for basic radial integration grid :    27 points, outermost radius =    5.000 A
  | Found multiplier for basic radial grid :   1
  | Found angular grid specification: user-specified.
  | Specified grid contains     4 separate shells.
  | Check grid settings after all constraints further below.
  | Found free-atom valence shell :  1 s   2.000
  | Found free-atom valence shell :  2 s   0.000
  | No ionic wave fns used. Skipping ion_occ.
  | Found hydrogenic basis function :  1 s   0.850
  | Found hydrogenic basis function :  2 p   3.500
  | Found hydrogenic basis function :  3 d   7.200
  | Found hydrogenic basis function :  3 s   3.000
  Species He                  : Missing cutoff potential type.
  Defaulting to exp(1/x)/(1-x)^2 type cutoff potential.
  Species He: No 'logarithmic' tag. Using default grid for free atom:
  | Default logarithmic grid data [bohr] : 0.1000E-03 0.1000E+03 0.1012E+01
  Species He: On-site basis accuracy parameter (for Gram-Schmidt orthonormalisation) not specified.
  Using default value basis_acc =  0.1000000E-03.
  Species He                  : Using default innermost maximum threshold i_radial=  2 for radial functions.
  Species He                  : Default cutoff onset for free atom density etc. : 0.35000000E+01 AA.
  Species He                  : Basic radial grid will be enhanced according to radial_multiplier =   1, to contain    27 grid points.
 
  Finished reading input file 'control.in'. Consistency checks are next.
 
  MPI_IN_PLACE appears to work with this MPI implementation.
  | Keeping use_mpi_in_place .true. (see manual).
  Explicit treatment of the Coulomb operator is needed, but the RI method is not specified.
  Coulomb operator: Defaulting to 'LVL fast' resolution of identity - RI_type = LVL_fast 
  Species He: Using default value for prodbas_acc =   1.000000E-04.
  Species He: Using default value max_l_prodbas =    20.
  Target number of points in a grid batch is not set. Defaulting to  100
  Method for grid partitioning is not set. Defaulting to parallel hash+maxmin partitioning.
  Batch size limit is not set. Defaulting to    200
  By default, will store active basis functions for each batch.
  If in need of memory, prune_basis_once .false. can be used to disable this option.
  communication_type for Hartree potential was not specified.
  Defaulting to calc_hartree .
  Pulay mixer: Number of initial linear mixing iterations not set.
  Defaulting to    0 iterations.
  Work space size for distributed Hartree potential not set.
  Defaulting to   0.200000E+03 MB.
  Mixing parameter for spin density mixing has not been set.
  Using charge_mix_param as default:     0.5000.
  Algorithm-dependent basis array size parameters:
  | n_max_pulay                         :       10
  Presetting      1001 iterations before the initial mixing cycle
  is restarted anyway using the sc_init_iter criterion / keyword.
  Presetting a factor      1.000 between actual scf density residual
  and density convergence criterion sc_accuracy_rho below which sc_init_iter
  takes no effect.
  Calculation of forces was not defined in control.in. No forces will be calculated.
  Geometry relaxation not requested: no relaxation will be performed.
  No accuracy limit for integral partition fn. given. Defaulting to  0.1000E-14.
  No threshold value for u(r) in integrations given. Defaulting to  0.1000E-05.
  No accuracy for occupation numbers given. Defaulting to  0.1000E-12.
  No threshold value for occupation numbers given. Defaulting to  0.0000E+00.
  No accuracy for fermi level given. Defaulting to  0.1000E-19.
  Maximum # of iterations to find E_F not set. Defaulting to  200.
  Preferred method for the eigenvalue solver ('KS_method') not specified in 'control.in'.
  Calling BLACS routine to test compilation state
  Since ScaLAPACK support is enabled, defaulting to ELPA (via ELSI).
  Will not use alltoall communication since running on < 1024 CPUs.
  Threshold for basis singularities not set.
  Default threshold for basis singularities:  0.1000E-04
  partition_type (choice of integration weights) for integrals was not specified.
  | Using a version of the partition function of Stratmann and coworkers ('stratmann_sparse').
  | At each grid point, the set of atoms used to build the partition table is smoothly restricted to
  | only those atoms whose free-atom density would be non-zero at that grid point.
  Partitioning for Hartree potential was not defined. Using partition_type for integrals.
  | Adjusted default value of keyword multip_moments_threshold to:       0.10000000E-11
  | This value may affect high angular momentum components of the Hartree potential in periodic systems.
  Threshold for auxiliary basis singularities not set.
  Default threshold for auxiliary basis singularities:  0.1000E-04
  No q(lm)/r^(l+1) cutoff set for long-range Hartree potential.
  | Using default value of  0.100000E-09 .
  | Verify using the multipole_threshold keyword.
  Defaulting to new monopole extrapolation.
  Density update method: automatic selection selected.
  Coulomb operator: Defaulting to screening threshold for four-center integrals:   0.100000E-06
  Coulomb operator: Defaulting to screening threshold for Coulomb matrix:   0.100000E-09
  Coulomb operator: Defaulting to 'LVL_fast' resolution of identity - RI_type = LVL_fast 
  No other resolution of identity version is supported for periodic boundary conditions at present.
  Coulomb operator: Defaulting to logarithmic spherical Bessel transform integrals (use_logsbt .true.).
  Charge integration errors on the 3D integration grid will be compensated
  by explicit normalization and distribution of residual charges.
  Use the "compensate_multipole_errors" flag to change this behaviour.
  LVL not implemented with density matrix yet
  -> switching to transformed overlap
  LVL probably works better with logsbt
  Default to 1D ("use_logsbt") integrations for auxiliary 2-center integrals.
  Default onset of logarithmic r-grid for SBT is-38.000000000000
  Default onset of logarithmic k-grid for SBT is-25.000000000000
  Default range of logarithmic r- and k-grid for SBT is 45.000000000000
  Default number of logarithmic r- and k-grid for SBT is  4096
  Default of use_2d_corr is to use the efficient 2D distribution where possible
  Number of empty states calculated from fragments:    4
------------------------------------------------------------


------------------------------------------------------------
          Reading geometry description geometry.in.
------------------------------------------------------------
  Input structure read successfully.
  The structure contains        2 atoms,  and a total of          3.000 electrons.

  Input geometry:
  | No unit cell requested.
  | Atomic structure:
  |       Atom                x [A]            y [A]            z [A]
  |    1: Species He            0.00000000        0.00000000        0.00000000
  |    2: Species He            0.00000000        0.00000000        3.00000000
  | The smallest distance between any two atoms is         3.00000000 AA.
  | The first atom of this pair is atom number                      1 .
  | The second atom of this pair is atom number                     2 .

  Initial moments and charges:
  |  Atom   Moment         Charge        Species
  |     1   0.100000E-01   0.000000E+00   He
  |     2   0.100000E-01   0.100000E+01   He

  Structure-dependent array size parameters: 
  | Number of distinct atom types in initial rho :        2
  | Maximum number of distinct radial functions  :        5
  | Maximum number of basis functions            :       22
  | Number of Kohn-Sham states (occupied + empty):        6
------------------------------------------------------------
  Setting Coulomb cut-width to  1.091868692359 * rcut.
  Setting Coulomb cutting radius rcut to  8.000000000000 A.

------------------------------------------------------------
          Preparing all fixed parts of the calculation.
------------------------------------------------------------
  Determining machine precision:
    2.225073858507201E-308
  Setting up grids for atomic and cluster calculations.

  Creating wave function, potential, and density for free atoms.

  Species: He

  List of occupied orbitals and eigenvalues:
    n    l              occ      energy [Ha]    energy [eV]
    1    0           2.0000        -0.584870       -15.9151

  Spin-polarized or charged system:
  Charge density initialized according to selected moments and charges.

  Creating spin-polarized density from free atoms.

  Species: He
  Charge:   0.000000
  Moment:   0.010000

  List of occupied orbitals and eigenvalues:
    n    l      energy [Ha]    energy [eV]    occupation
  Spin-up
    1    0        -0.570564       -15.5258     1.00000000
  Spin-down
    1    0        -0.569378       -15.4936     0.99500000


  Species: He
  Charge:   1.000000
  Moment:   0.010000

  List of occupied orbitals and eigenvalues:
    n    l      energy [Ha]    energy [eV]    occupation
  Spin-up
    1    0        -1.421029       -38.6682     0.50500000
  Spin-down
    1    0        -1.416072       -38.5333     0.49500000

  Creating fixed part of basis set: Ionic, confined, hydrogenic.
 
  He                   hydrogenic:
 
  List of hydrogenic basis orbitals: 
    n    l      effective z      eigenvalue [eV]  inner max. [A]     outer max. [A]     outer radius [A]   
    1    0         0.850000        -9.8241           0.619553           0.619553           4.544486
    2    1         3.500000       -41.6670           0.604588           0.604588           3.737119
    3    2         7.200000       -78.3685           0.658604           0.658604           3.388933
    3    0         3.000000       -13.1234           0.131161           2.236396           4.600383
 

  Adding cutoff potential to free-atom effective potential.
  Creating atomic-like basis functions for current effective potential.

  Species He                  :

  List of atomic basis orbitals and eigenvalues:
    n    l      energy [Ha]    energy [eV]    outer radius [A]
    1    0        -0.584870       -15.9151       4.434721

  Assembling full basis from fixed parts.
  | Species He :   atomic orbital   1 s accepted.
  | Species He :    hydro orbital   1 s accepted.
  | Species He :    hydro orbital   3 s accepted.
  | Species He :    hydro orbital   2 p accepted.
  | Species He :    hydro orbital   3 d accepted.
 
  Basis size parameters after reduction:
  | Total number of radial functions:        5
  | Total number of basis functions :       22
 
  Per-task memory consumption for arrays in subroutine allocate_ext:
  |           1.140332MB.
  Testing on-site integration grid accuracy.
  |  Species  Function  <phi|h_atom|phi> (log., in eV)  <phi|h_atom|phi> (rad., in eV)
           1        1                -15.9151281100                -15.9151207816
           1        2                 11.4627999360                 11.4659191284
           1        3                 20.0311339879                 20.0675520799 ***
           1        4                 23.4680767890                 23.4680794751
           1        5                 63.4086523613                 63.4087321866
 * Note: Onsite integrals marked "***" above are less accurate than
 * onsite_accuracy_threshold =    0.03000 eV. Usually, this is harmless.
 * When in doubt, tighten the "radial" and/or "radial_multiplier" flags to check.

  Preparing densities etc. for the partition functions (integrals / Hartree potential).

  Preparations completed.
  max(cpu_time)          :      0.108 s.
  Wall clock time (cpu1) :      0.138 s.
------------------------------------------------------------

------------------------------------------------------------
          Begin self-consistency loop: Initialization.

          Date     :  20190817, Time     :  153611.930
------------------------------------------------------------

  Initializing index lists of integration centers etc. from given atomic structure:
  | Number of centers in hartree potential         :         2
  | Number of centers in hartree multipole         :         2
  | Number of centers in electron density summation:         2
  | Number of centers in basis integrals           :         2
  | Number of centers in integrals                 :         2
  | Number of centers in hamiltonian               :         2
  * Using 8 tasks for Scalapack Eigenvalue solver.
  Detailed listing of tasks and assigned k-points:
  (for non-periodic systems, the "k-point" denotes an internal label only)
   Task     0 k-point     1 on co1631
   Task     1 k-point     1 on co1631
   Task     2 k-point     1 on co1631
   Task     3 k-point     1 on co1631
   Task     4 k-point     1 on co1631
   Task     5 k-point     1 on co1631
   Task     6 k-point     1 on co1631
   Task     7 k-point     1 on co1631
  Tasks:     8 split into      4 X      2 BLACS grid
  Calculating block size based on n_basis =           22  max_nprow =            4  max_npcol =            2
  ScaLAPACK block size set to:            4
  Allocating        0.001 MB for ovlp
  Allocating        0.001 MB for ham
  Allocating        0.001 MB for eigenvec
  Required Scalapack workspace - INTEGER:            1  REAL:             1
  Partitioning the integration grid into batches with parallel hashing+maxmin method.
  | Number of batches:      155
  | Maximal batch size:     154
  | Minimal batch size:      50
  | Average batch size:      75.174
  | Standard deviation of batch sizes:      18.462

  Integration load balanced across     8 MPI tasks.
  Work distribution over tasks is as follows:
  Task     0 has       1426 integration points.
  Task     1 has       1495 integration points.
  Task     2 has       1436 integration points.
  Task     3 has       1433 integration points.
  Task     4 has       1450 integration points.
  Task     5 has       1450 integration points.
  Task     6 has       1500 integration points.
  Task     7 has       1462 integration points.
  Initializing partition tables, free-atom densities, potentials, etc. across the integration grid (initialize_grid_storage).
  | initialize_grid_storage: Actual outermost partition radius vs. multipole_radius_free
  | (-- VB: in principle, multipole_radius_free should be larger, hence this output)
  | Species        1: Confinement radius =              4.999999999999999 AA, multipole_radius_free =              5.011396146151729 AA.
  | Species        1: outer_partition_radius set to              5.011396146151729 AA .
  | The sparse table of interatomic distances needs          0.04 kbyte instead of         0.03 kbyte of memory.
  | Using the partition_type stratmann_smoother will reduce your memory usage.
  | Net number of integration points:    11652
  | of which are non-zero points    :    11524
  Renormalizing the initial density to the exact electron count on the 3D integration grid.
  | Initial density: Formal number of electrons (from input files) :       3.0000000000
  | Integrated number of electrons on 3D grid     :       2.9949957999
  | Charge integration error                      :      -0.0050042001
  | Normalization factor for density and gradient :       1.0016708538
  Renormalizing the free-atom superposition density to the exact electron count on the 3D integration grid.
  | Formal number of electrons (from input files) :       3.0000000000
  | Integrated number of electrons on 3D grid     :       3.9999954856
  | Charge integration error                      :      -0.0000045144
  | Normalization factor for density and gradient :       1.0000011286
  Obtaining max. number of non-zero basis functions in each batch (get_n_compute_maxes).
  | Maximal number of non-zero basis functions:       22 in task     0
  | Maximal number of non-zero basis functions:       22 in task     1
  | Maximal number of non-zero basis functions:       22 in task     2
  | Maximal number of non-zero basis functions:       22 in task     3
  | Maximal number of non-zero basis functions:       22 in task     4
  | Maximal number of non-zero basis functions:       22 in task     5
  | Maximal number of non-zero basis functions:       22 in task     6
  | Maximal number of non-zero basis functions:       22 in task     7
  Selecting the method for density update.
  Loop over occupied states selected for charge density update.
  Hamiltonian matrix size:
  | Size of matrix non-packed:                   253
  | Size of matrix packed:             254
  Allocating        0.002 MB for KS_eigenvector
  Integrating Hamiltonian matrix: batch-based integration.
  Time summed over all CPUs for integration: real work        0.032 s, elapsed        0.033 s
  Integrating overlap matrix.
  Time summed over all CPUs for integration: real work        0.008 s, elapsed        0.009 s
  Not deallocating overlap matrix.

  Reading cluster restart information from file restart.combined
  Writing Kohn-Sham eigenvalues.

  Spin-up eigenvalues:

  State    Occupation    Eigenvalue [Ha]    Eigenvalue [eV]
      1       1.00000          -1.635382          -44.50101
      2       1.00000          -0.662466          -18.02662
      3       0.00000          -0.199939           -5.44062
      4       0.00000           0.084068            2.28760
      5       0.00000           0.245334            6.67587
      6       0.00000           0.908224           24.71403

  Spin-down eigenvalues:

  State    Occupation    Eigenvalue [Ha]    Eigenvalue [eV]
      1       0.00000          -0.957341          -26.05057
      2       1.00000          -0.662466          -18.02662
      3       0.00000          -0.142815           -3.88620
      4       0.00000           0.084068            2.28760
      5       0.00000           0.462362           12.58152
      6       0.00000           0.908224           24.71403

  Current spin moment of the entire structure :
  | N = N_up - N_down :    1.00
  | S                 :    0.50
  | J                 :    2.00

  Highest occupied state (VBM) at    -18.02661693 eV
  | Occupation number:      1.00000000
  | Spin channel:        1

  Lowest unoccupied state (CBM) at   -26.05057027 eV
  | Occupation number:      0.00000000
  | Spin channel:        2

  Overall HOMO-LUMO gap:     -8.02395334 eV.
  Calculating total energy contributions from superposition of free atom densities.

  Total energy components:
  | Sum of eigenvalues            :          -2.96031422 Ha         -80.55424849 eV
  | XC energy correction          :          -1.57793744 Ha         -42.93786227 eV
  | XC potential correction       :           2.00909068 Ha          54.67013894 eV
  | Free-atom electrostatic energy:          -4.05845365 Ha        -110.43614267 eV
  | Hartree energy correction     :           0.00000000 Ha           0.00000000 eV
  | Entropy correction            :           0.00000000 Ha           0.00000000 eV
  | ---------------------------
  | Total energy                  :          -6.58761463 Ha        -179.25811450 eV
  | Total energy, T -> 0          :          -6.58761463 Ha        -179.25811450 eV  <-- do not rely on this value for anything but (periodic) metals
  | Electronic free energy        :          -6.58761463 Ha        -179.25811450 eV

  Derived energy quantities:
  | Kinetic energy                :           4.42824478 Ha         120.49867143 eV
  | Electrostatic energy          :          -9.43792197 Ha        -256.81892365 eV
  | Energy correction for multipole
  | error in Hartree potential    :           0.00000000 Ha           0.00000000 eV
  | Sum of eigenvalues per atom                           :         -40.27712425 eV
  | Total energy (T->0) per atom                          :         -89.62905725 eV  <-- do not rely on this value for anything but (periodic) metals
  | Electronic free energy per atom                       :         -89.62905725 eV
  
  --------------------------------------------
  Constructing auxiliary basis (full product) ...
  
  Product basis:
  | charge radius: extent of product basis function
  | field radius: extent of its Coulomb potential
  | Species   l  charge radius    field radius  multipol momen
  |    He     3     3.558770 A      3.558770 A        6.319754E-16 a.u.
  |    He     2     3.737119 A      3.737119 A       -1.927413E-16 a.u.
  |    He     2     3.783085 A      3.783085 A        3.253833E-16 a.u.
  |    He     2     3.783085 A      3.783085 A       -1.292090E-15 a.u.
  |    He     1     3.924405 A      3.924405 A        1.559895E-16 a.u.
  |    He     1     3.972676 A      3.972676 A       -1.918494E-16 a.u.
  |    He     1     4.021540 A      4.021540 A       -5.599377E-16 a.u.
  |    He     1     4.021540 A      4.021540 A       -3.882901E-16 a.u.
  |    He     0     4.434721 A      4.489268 A        4.289112E-16 a.u.
  |    He     0     4.544486 A      4.600383 A       -2.982061E-16 a.u.
  |    He     0     4.544486 A      4.600383 A       -1.726335E-16 a.u.
  |    He     0     4.600383 A      4.656968 A        1.454654E-17 a.u.
  |    He     0     4.600383 A      4.656968 A        7.073848E-17 a.u.
  |    He     4     3.347755 A  2.515034E+02 A            1.929763 a.u.
  |    He     3     3.558770 A  1.057550E+03 A            1.269374 a.u.
  |    He     2     3.783085 A  1.761803E+04 A            2.936697 a.u.
  |    He     1     4.021540 A  2.135759E+06 A            1.296261 a.u.
  |    He     0     4.600383 A  4.351890E+12 A            0.654436 a.u.

  | Shrink_full_auxil_basis : there are       18  radial auxiliary wave functions
                            accepted and       5 rejected.
  | Shrink_full_auxil_basis : there are totally                 128 partial auxiliary wave functions.
  prodbas_tasks_distribution_pbc not up to date - distributing tasks.
 
  | Maximal number of product basis functions per thread :    16    16
 
  | Number of local auxiliary basis funcs on node     0 :     16
  | Number of local auxiliary basis funcs on node     1 :     16
  | Number of local auxiliary basis funcs on node     2 :     16
  | Number of local auxiliary basis funcs on node     3 :     16
  | Number of local auxiliary basis funcs on node     4 :     16
  | Number of local auxiliary basis funcs on node     5 :     16
  | Number of local auxiliary basis funcs on node     6 :     16
  | Number of local auxiliary basis funcs on node     7 :     16
  Parallel distribution of product basis not up to date - distributing tasks.
 
  | Maximal number of product basis functions per thread :    16    16
 
  | Minimal total memory requirement for three-center overlap :       0.000 Gbs
  | Number of local auxiliary basis functions on task:      0    16
  | Number of local auxiliary basis functions on task:      1    16
  | Number of local auxiliary basis functions on task:      2    16
  | Number of local auxiliary basis functions on task:      3    16
  | Number of local auxiliary basis functions on task:      4    16
  | Number of local auxiliary basis functions on task:      5    16
  | Number of local auxiliary basis functions on task:      6    16
  | Number of local auxiliary basis functions on task:      7    16
  | 2D aux task distribution:      2 X      4
  | 2D block size (nb_aux_2d):     32
  | Task at    0 x    0 gets     64 x     32 entries of 2D aux
  | Task at    0 x    1 gets     64 x     32 entries of 2D aux
  | Task at    0 x    2 gets     64 x     32 entries of 2D aux
  | Task at    0 x    3 gets     64 x     32 entries of 2D aux
  | Task at    1 x    0 gets     64 x     32 entries of 2D aux
  | Task at    1 x    1 gets     64 x     32 entries of 2D aux
  | Task at    1 x    2 gets     64 x     32 entries of 2D aux
  | Task at    1 x    3 gets     64 x     32 entries of 2D aux
  -----------------------------------------
  --- Initializing Fock matrix calculations
  -----------------------------------------
  screening_threshold (crit_val) =  0.000000100000
  coul_mat_threshold =  0.000000000100
 Trying to make the workload more even by internally splitting atoms into fractions
 Atom:            1  Basis/atom:    11.0000000000000
 Atom:            2  Basis/atom:    11.0000000000000
 No atoms are split internally
  Number of super-cells in X Y Z:       0       0       0
  Number of atoms pairs total:            4
  Atom pair distribution:
  Cell:        0       0       0 atom pairs:        4
  Number of atoms pairs in BvK cells:            4
  Initializing work distribution for fock matrix calculation
  -----------------------------------------------------
  Dividing atoms among tasks for exact exchange energy:
  Atom:     1 Weight:   64.000
  Atom:     2 Weight:   64.000

  Average weight per task:   16.000

  Number of "big" (above average) atoms  :     2
  Number of "small" (below average) atoms:     0
  All atoms have above average work per task
  Atoms will be divided among tasks to get best load distribution

  Atom division among tasks:
  Atom     1: (initial) task:     0, # of tasks:     4
  Atom     2: (initial) task:     4, # of tasks:     4

  -----------------------------------------------------
  Task     0 : Coulomb matrix distribution changed.
  Task     1 : Coulomb matrix distribution changed.
  Task     2 : Coulomb matrix distribution changed.
  Task     3 : Coulomb matrix distribution changed.
  Task     4 : Coulomb matrix distribution changed.
  Task     5 : Coulomb matrix distribution changed.
  Task     6 : Coulomb matrix distribution changed.
  Task     7 : Coulomb matrix distribution changed.
  Overall Coulomb matrix distribution changed.
  Coulomb matrix subdivision:
  Task     0 atom     1 has Coulomb matrix rows          1 to         16
  Task      0: my_n_atoms:      1 my_atom_list:      1
  Task      1: my_n_atoms:      1 my_atom_list:      1
  Task      2: my_n_atoms:      1 my_atom_list:      1
  Task      3: my_n_atoms:      1 my_atom_list:      1
  Task      4: my_n_atoms:      1 my_atom_list:      2
  Task      5: my_n_atoms:      1 my_atom_list:      2
  Task      6: my_n_atoms:      1 my_atom_list:      2
  Task      7: my_n_atoms:      1 my_atom_list:      2
  Task      0: my_n_atom_pairs:      1
  Task      1: my_n_atom_pairs:      1
  Task      2: my_n_atom_pairs:      0
  Task      3: my_n_atom_pairs:      0
  Task      4: my_n_atom_pairs:      1
  Task      5: my_n_atom_pairs:      1
  Task      6: my_n_atom_pairs:      0
  Task      7: my_n_atom_pairs:      0
  Memory needs for ovlp3fn and Coulomb matrix:
  For Coulomb matrix, this is the upper limit if no compression occurs
  ovlp3fn:        0.062 MB, Coulomb:        0.016 MB
Size of ovlp3fn for atom     121       1      64
  --- Initializing LVL triples
  | Storage requirements for basis-basbas products (processor-local):
  |   Species He: n_prodsfn:   121; storage:        3.78 MiB.

  --- Initializing Coulomb matrix calculations
  Preparing TB like auxiliary 2-center Coulomb matrix
  SBT integration errors (all should be 'small'):
  large logFT aliasing -> increase N/lnrange
  large SBT aliasing -> decrease lnk0 & increase lnk0+lnrange
  large SBT ringing -> decrease lnr0 & increase lnr0+lnrange
  |            El't  L: logFT-al.   small-k   large-k   small-r   large-r
  | Need to store   284 splines of   106 points taking        240 KiB.
  | Spline reduction from  4096 to   106 points by (cutting and)     1 x coarsening gives error:  0.00E+00
  Finished with initialize_tb_auxmat/lvl_triples, time:        0.078
  --- Calculating OVLP3FN
  Allocating        0.118 MB for coeff_3fn
  --- Done calculating OVLP3FN, time:        0.089
  Atomic logSBT for LVL-triples                :  max(cpu_time)    wall_clock(cpu1)
  | Multiplication with kernel                 :        0.000 s           0.001 s
  | Main matrix multiplication                 :        0.012 s           0.000 s
  | Analytic angular integration               :        0.001 s           0.000 s
  | Kernel construction                        :        0.001 s           0.000 s
  | Overall 2-center overlap time              :        0.017 s           0.003 s
  | 3-center preparation multiplications       :        0.003 s           0.004 s
  | 3-center preparation SBTs                  :        0.058 s           0.058 s
  | 3-center combinations                      :        0.018 s           0.004 s
  | Overal 3-center time                       :        0.079 s           0.066 s
  | LVL initialization                         :        0.047 s           0.047 s
  | Whole LVL-triples                          :        0.047 s           0.047 s

Compare n_pairs with n_super       0       1
  --- Done getting norm of OVLP3FN, time:        0.000
  --- Calculating Coulomb matrices
  Allocating        0.031 MB for aux_mat
  Time to calculate Coulomb Matrices   :        0.001
  Number of Coulomb matrix elements:
  | Task     0 total:           2048, > threshold:            217, stored:           1536
  | Task     1 total:           2048, > threshold:            275, stored:           1456
  | Task     2 total:           2048, > threshold:            233, stored:           1424
  | Task     3 total:           2048, > threshold:            233, stored:           1872
  | Task     4 total:           2048, > threshold:            217, stored:           1536
  | Task     5 total:           2048, > threshold:            275, stored:           1456
  | Task     6 total:           2048, > threshold:            233, stored:           1424
  | Task     7 total:           2048, > threshold:            233, stored:           1872
  --- Done init_fock_matrix_calculations
  Atomic logSBT for 2-center Coulomb matrix    :  max(cpu_time)    wall_clock(cpu1)
  | TB initialization                          :        0.030 s           0.030 s
  | TB usage                                   :        0.001 s           0.000 s

  Calculating non-local Hartree-Fock exchange by two-center RI (RI-LVL).
  screening_threshold (crit_val) =  0.000000100000
  Allocating        0.004 MB for dm_cols
  Allocating        0.021 MB for ovlp3fn_rcv
  Allocating        0.004 MB for fock_matrix
  Allocating        0.000 MB for fock_matrix_row
  Exact exchange progress report - outermost basis function loop i_basis_r1: 1 ..      22
  |        1         2         3         4         5         6         7         8         9        10
  |       11        12        13        14        15        16        17        18        19        20
  |       21        22  
  Full exact exchange energy:       0.000000000000 eV.
 *** Error. This value should not normally be zero.
 *** Unless you know of a good reason, this may indicate a bug in your MPI library.
  Times            DM_x_o3fn   CM_x_o3fn    Products        Sync   Imbalance    Pre/Post       Other  Total calc
  | Times    0:        0.000       0.000       0.000       0.001       0.001       0.001       0.002       0.004
  | Times    1:        0.000       0.000       0.000       0.001       0.002       0.001       0.000       0.004
  | Times    2:        0.000       0.000       0.000       0.001       0.002       0.001       0.000       0.004
  | Times    3:        0.000       0.000       0.000       0.001       0.003       0.001       0.000       0.004
  | Times    4:        0.000       0.000       0.000       0.001       0.002       0.001       0.000       0.004
  | Times    5:        0.000       0.000       0.000       0.001       0.002       0.001       0.000       0.004
  | Times    6:        0.000       0.000       0.000       0.000       0.003       0.001       0.000       0.004
  | Times    7:        0.000       0.000       0.000       0.000       0.003       0.001       0.000       0.004
  | Times  sum:        0.000       0.000       0.000       0.004       0.018       0.005       0.005       0.032

  Decomposition of Other based on code block (only on MPI task 0):
  Times             Block #1    Block #2    Block #3    Block #4    Block #5    Block #6    Block #7    Block #8
  | Times    0:        0.000       0.000       0.002       0.000       0.000       0.000       0.000       0.000

  Times             Block #9   Block #10   Block #11   Block #12   Block #13   Block #14   Block #15   Block #16
  | Times    0:        0.000       0.000       0.000       0.000       0.000       0.000       0.000       0.000

  Times            Block Sum    Expected
  | Times    0:        0.002       0.002
  Initialize hartree_potential_storage
  Max. number of atoms included in rho_multipole:            2

  End scf initialization - timings             :  max(cpu_time)    wall_clock(cpu1)
  | Time for scf. initialization               :        0.207 s           0.208 s
  | Boundary condition initialization          :        0.000 s           0.001 s
  | Integration                                :        0.006 s           0.006 s
  | Solution of K.-S. eqns.                    :        0.001 s           0.001 s
  | Grid partitioning                          :        0.004 s           0.004 s
  | Preloading free-atom quantities on grid    :        0.001 s           0.001 s
  | Free-atom superposition energy             :        0.002 s           0.002 s
  | Total energy evaluation                    :        0.000 s           0.000 s
  | Product basis setup: Total time            :        0.188 s           0.189 s

  Partial memory accounting:
  | Current value for overall tracked memory usage:
  |   Minimum:        0.022 MB (on task 6)
  |   Maximum:        0.085 MB (on task 0)
  |   Average:        0.054 MB
  | Peak value for overall tracked memory usage:
  |   Minimum:        0.144 MB (on task 7 after allocating wave)
  |   Maximum:        0.191 MB (on task 0 after allocating wave)
  |   Average:        0.167 MB
  | Largest tracked array allocation so far:
  |   Minimum:        0.118 MB (coeff_3fn on task 0)
  |   Maximum:        0.118 MB (coeff_3fn on task 0)
  |   Average:        0.118 MB
  Note:  These values currently only include a subset of arrays which are explicitly tracked.
  The "true" memory usage will be greater.
------------------------------------------------------------

------------------------------------------------------------
          Initial SCF-cycle to compute last known
          density from restart information.

  Date     :  20190817, Time     :  153612.138
------------------------------------------------------------
  Evaluating new KS density.
  Integration grid: deviation in total charge (<rho> - N_e) =  -3.693954E-06
  | <rho_up-rho_dn> = N_up-N_dn =      1.0000; <|rho_up-rho_dn|> =      1.0000
  Renormalizing the density to the exact electron count on the 3D integration grid.
  | Formal number of electrons (from input files) :       3.0000000000
  | Integrated number of electrons on 3D grid     :       2.9999963060
  | Charge integration error                      :      -0.0000036940
  | Normalization factor for density and gradient :       1.0000012313

  Evaluating partitioned Hartree potential by multipole expansion.
  | Original multipole sum: apparent total charge =   0.100000E+01
  | Sum of charges compensated after spline to logarithmic grids =   0.746350E-04
  | Analytical far-field extrapolation by fixed multipoles:
  | Hartree multipole sum: apparent total charge =   0.100000E+01
  Summing up the Hartree potential.
  Time summed over all CPUs for potential: real work        0.016 s, elapsed        0.016 s
  | RMS charge density error from multipole expansion :   0.217066E-03

  Integrating Hamiltonian matrix: batch-based integration.
  Time summed over all CPUs for integration: real work        0.033 s, elapsed        0.036 s

  Final Fragment-Orbital DFT step, skipped the solving of the eigenvalue problem!
  All following post-processing steps are done with the initial density read from the fragment restart files.
  Please note: This can lead to unexpected behaviour in different quantities
  due to the mixed occupations. Especially cube files
  are known to be affected.

  Total energy components:
  | Sum of eigenvalues            :          -2.96031422 Ha         -80.55424849 eV
  | XC energy correction          :          -1.36343920 Ha         -37.10106831 eV
  | XC potential correction       :           1.73568309 Ha          47.23034002 eV
  | Free-atom electrostatic energy:          -4.05845365 Ha        -110.43614267 eV
  | Hartree energy correction     :           1.75986478 Ha          47.88835708 eV
  | Entropy correction            :           0.00000000 Ha           0.00000000 eV
  | ---------------------------
  | Total energy                  :          -4.88665920 Ha        -132.97276238 eV
  | Total energy, T -> 0          :          -4.88665920 Ha        -132.97276238 eV  <-- do not rely on this value for anything but (periodic) metals
  | Electronic free energy        :          -4.88665920 Ha        -132.97276238 eV

  Derived energy quantities:
  | Kinetic energy                :           4.59402232 Ha         125.00970787 eV
  | Electrostatic energy          :          -8.11724232 Ha        -220.88140194 eV
  | Energy correction for multipole
  | error in Hartree potential    :          -0.00000263 Ha          -0.00007155 eV
  | Sum of eigenvalues per atom                           :         -40.27712425 eV
  | Total energy (T->0) per atom                          :         -66.48638119 eV  <-- do not rely on this value for anything but (periodic) metals
  | Electronic free energy per atom                       :         -66.48638119 eV

  Self-consistency convergence accuracy:
  | Change of charge/spin density :  0.2976E-01  0.5610E+00
  | Change of sum of eigenvalues  :  0.0000E+00 eV
  | Change of total energy        :  0.4629E+02 eV

  Writing Kohn-Sham eigenvalues.

  Spin-up eigenvalues:

  State    Occupation    Eigenvalue [Ha]    Eigenvalue [eV]
      1       1.00000          -1.635382          -44.50101
      2       1.00000          -0.662466          -18.02662
      3       0.00000          -0.199939           -5.44062
      4       0.00000           0.084068            2.28760
      5       0.00000           0.245334            6.67587
      6       0.00000           0.908224           24.71403

  Spin-down eigenvalues:

  State    Occupation    Eigenvalue [Ha]    Eigenvalue [eV]
      1       0.00000          -0.957341          -26.05057
      2       1.00000          -0.662466          -18.02662
      3       0.00000          -0.142815           -3.88620
      4       0.00000           0.084068            2.28760
      5       0.00000           0.462362           12.58152
      6       0.00000           0.908224           24.71403

  Current spin moment of the entire structure :
  | N = N_up - N_down :    1.00
  | S                 :    0.50
  | J                 :    2.00

  Highest occupied state (VBM) at    -18.02661693 eV
  | Occupation number:      1.00000000
  | Spin channel:        1

  Lowest unoccupied state (CBM) at   -26.05057027 eV
  | Occupation number:      0.00000000
  | Spin channel:        2

  Overall HOMO-LUMO gap:     -8.02395334 eV.

  Self-consistency cycle converged.

  End self-consistency iteration #     0       :  max(cpu_time)    wall_clock(cpu1)
  | Time for this iteration                    :        0.011 s           0.012 s
  | Charge density update                      :        0.002 s           0.002 s
  | Density mixing                             :        0.000 s           0.000 s
  | Hartree multipole update                   :        0.001 s           0.002 s
  | Hartree multipole summation                :        0.003 s           0.002 s
  | Integration                                :        0.005 s           0.005 s
  | Fock matrix evaluation                     :        0.000 s           0.000 s
  | Solution of K.-S. eqns.                    :        0.001 s           0.001 s
  | Total energy evaluation                    :        0.000 s           0.000 s

  Partial memory accounting:
  | Current value for overall tracked memory usage:
  |   Minimum:        0.022 MB (on task 6)
  |   Maximum:        0.085 MB (on task 0)
  |   Average:        0.054 MB
  | Peak value for overall tracked memory usage:
  |   Minimum:        0.156 MB (on task 6 after allocating wave)
  |   Maximum:        0.218 MB (on task 0 after allocating wave)
  |   Average:        0.187 MB
  | Largest tracked array allocation so far:
  |   Minimum:        0.118 MB (coeff_3fn on task 0)
  |   Maximum:        0.118 MB (coeff_3fn on task 0)
  |   Average:        0.118 MB
  Note:  These values currently only include a subset of arrays which are explicitly tracked.
  The "true" memory usage will be greater.
------------------------------------------------------------

  Energy and forces in a compact form:
  | Total energy uncorrected      :         -0.132972762381164E+03 eV
  | Total energy corrected        :         -0.132972762381164E+03 eV  <-- do not rely on this value for anything but (periodic) metals
  | Electronic free energy        :         -0.132972762381164E+03 eV

  ------------------------------------ 
  Start decomposition of the XC Energy 
  ------------------------------------ 
  X and C from original XC functional choice 
  Hartree-Fock Energy :          0.000000000 Ha              0.000000000 eV
  X Energy            :         -1.290260207 Ha            -35.109766605 eV
  C Energy            :         -0.073178993 Ha             -1.991301706 eV
  Total XC Energy     :         -1.363439200 Ha            -37.101068311 eV
  ------------------------------------ 
  LDA X and C from self-consistent density 
  X Energy LDA        :         -1.409740773 Ha            -38.360998229 eV
  C Energy LDA        :         -0.141230038 Ha             -3.843064877 eV
  ------------------------------------ 
  End decomposition of the XC Energy 
  ------------------------------------ 

------------------------------------------------------------

  --------------------------------------------------------
  Calculation of electronic coupling values with FO-DFT
  --------------------------------------------------------
  Collecting information for output...
  H_ab for hole-transfer
  States evaluated for Fragment 1:  1  to    1
  States evaluated for Fragment 2:  1  to    1
  Please remember, these states are numbered according to the fragments,
  NOT the combined system!

  st1 -> st2:     h_ab
  -----------  ----------   ---
  001 -> 001:      -76.59   meV
  .         :      -2.815   mH

  | Total time to calculate H_ab               :        0.004 s           0.006 s
  -------------------------------------------------------------------------------
  | Time for Loewdin orthogonalisation         :        0.002 s           0.004 s
  | Time for H_ab submatrix evaluation         :        0.000 s           0.000 s
  -------------------------------------------------------------------------------
  Leaving FO-DFT routine.
  |------------------------------------------------------
  | Final ELSI Output
  |------------------------------------------------------
  |
  | Physical Properties
  |   Number of electrons       :        0.30000000E+01
  |   Number of spins           :                     1
  |   Number of k-points        :                     1
  |   Number of states          :                     6
  |
  | Matrix Properties
  |   Matrix format             :           BLACS_DENSE
  |   Number of basis functions :                    22
  |   Matrix sparsity           :        0.18830455E+04
  |
  | Computational Details
  |   Parallel mode             :            MULTI_PROC
  |   Number of MPI tasks       :                     8
  |   Solver requested          :                  ELPA
  |   Number of ELSI calls      :                     0
  |
  |------------------------------------------------------
  | ELSI Project (c)  elsi-interchange.org
  |------------------------------------------------------

------------------------------------------------------------------------------
  Final output of selected total energy values:

  The following output summarizes some interesting total energy values
  at the end of a run (AFTER all relaxation, molecular dynamics, etc.).

  | Total energy of the DFT / Hartree-Fock s.c.f. calculation      :           -132.972762381 eV
  | Final zero-broadening corrected energy (caution - metals only) :           -132.972762381 eV
  | For reference only, the value of 1 Hartree used in FHI-aims is :             27.211384500 eV

  Before relying on these values, please be sure to understand exactly which
  total energy value is referred to by a given number. Different objects may
  all carry the same name 'total energy'. Definitions:

  Total energy of the DFT / Hartree-Fock s.c.f. calculation:
  | Note that this energy does not include ANY quantities calculated after the
  | s.c.f. cycle, in particular not ANY RPA, MP2, etc. many-body perturbation terms.

  Final zero-broadening corrected energy:
  | For metallic systems only, a broadening of the occupation numbers at the Fermi
  | level can be extrapolated back to zero broadening by an electron-gas inspired
  | formula. For all systems that are not real metals, this value can be
  | meaningless and should be avoided.

------------------------------------------------------------------------------
  Methods described in the following list of references were used in this FHI-aims run.
  If you publish the results, please make sure to cite these reference if they apply.
  FHI-aims is an academic code, and for our developers (often, Ph.D. students
  and postdocs), scientific credit in the community is essential.
  Thank you for helping us!

  For any use of FHI-aims, please cite:

    Volker Blum, Ralf Gehrke, Felix Hanke, Paula Havu, Ville Havu,
    Xinguo Ren, Karsten Reuter, and Matthias Scheffler
    'Ab initio molecular simulations with numeric atom-centered orbitals'
    Computer Physics Communications 180, 2175-2196 (2009)
    http://dx.doi.org/10.1016/j.cpc.2009.06.022


  For calculations of electronic coupling values using the
  Fragment molecular orbital scheme (FO-DFT), please cite:

    Christoph Schober, Karsten Reuter, Harald Oberhofer
    'Critical analysis of fragment-orbital DFT schemes
    for the calculation of electronic coupling values'
    Journal of Chemical Physics, 144, 054103 (2016).


  For Hartree-Fock, hybrid functionals, or many-body perturbation theory used in your run, please cite:

    Xinguo Ren, Patrick Rinke, Volker Blum, Juergen Wieferink, Alex Tkatchenko,
    Andrea Sanfilippo, Karsten Reuter, and Matthias Scheffler,
    'Resolution-of-identity approach to Hartree-Fock, hybrid density functionals,
    RPA, MP2, and GW with numeric atom-centered orbital basis functions'
    New Journal of Physics 14, 053020 (2012).
    http://dx.doi.org/10.1088/1367-2630/14/5/053020


  For the real-space grid partitioning and parallelization used in this calculation, please cite:

    Ville Havu, Volker Blum, Paula Havu, and Matthias Scheffler,
    'Efficient O(N) integration for all-electron electronic structure calculation'
    'using numerically tabulated basis functions'
    Journal of Computational Physics 228, 8367-8379 (2009).
    http://dx.doi.org/10.1016/j.jcp.2009.08.008


  The high-level electronic structure method used in your calculation
  employed our efficient localized resolution of identity for the Coulomb operator.
  Some calculations, especially large-scale hybrid density functional theory,
  are only possible thanks to this development. For this feature, please cite:

    Arvid Ihrig, Juergen Wieferink, Igor Ying Zhang, Matti Ropo, Xinguo Ren,
    Patrick Rinke, Matthias Scheffler, and Volker Blum,
    'Accurate localized resolution of identity approach for linear-scaling
    hybrid density functionals and for many-body perturbation theory'
    New Journal of Physics 117, 093020 (2015).
    http://dx.doi.org/10.1088/1367-2630/17/9/093020

  Of course, there are many other important community references, e.g., those cited in the
  above references. Our list is limited to references that describe implementations in the
  FHI-aims code. The reason is purely practical (length of this list) - please credit others as well.

------------------------------------------------------------
          Leaving FHI-aims.
          Date     :  20190817, Time     :  153612.160

          Computational steps:
          | Number of self-consistency cycles          :            0
          | Number of SCF (re)initializations          :            1

          Detailed time accounting                     :  max(cpu_time)    wall_clock(cpu1)
          | Total time                                 :        0.380 s           0.418 s
          | Preparation time                           :        0.108 s           0.138 s
          | Boundary condition initalization           :        0.000 s           0.001 s
          | Grid partitioning                          :        0.004 s           0.004 s
          | Preloading free-atom quantities on grid    :        0.001 s           0.001 s
          | Free-atom superposition energy             :        0.002 s           0.002 s
          | Total time for integrations                :        0.011 s           0.011 s
          | Product basis setup: Total time            :        0.188 s           0.189 s
          | Total time evaluating exchange matrix      :        0.000 s           0.000 s
          | Total time for solution of K.-S. equations :        0.001 s           0.001 s
          | Total time for density update              :        0.002 s           0.002 s
          | Total time for mixing                      :        0.000 s           0.000 s
          | Total time for Hartree multipole update    :        0.001 s           0.002 s
          | Total time for Hartree multipole sum       :        0.003 s           0.002 s
          | Total time for total energy evaluation     :        0.000 s           0.000 s
          | Total time for FO-DFT calculation          :        0.004 s           0.006 s

          Partial memory accounting:
          | Residual value for overall tracked memory usage across tasks:     0.000000 MB (should be 0.000000 MB)
          | Peak values for overall tracked memory usage:
          |   Minimum:        0.156 MB (on task 6 after allocating wave)
          |   Maximum:        0.218 MB (on task 0 after allocating wave)
          |   Average:        0.187 MB
          | Largest tracked array allocation:
          |   Minimum:        0.118 MB (coeff_3fn on task 0)
          |   Maximum:        0.118 MB (coeff_3fn on task 0)
          |   Average:        0.118 MB
          Note:  These values currently only include a subset of arrays which are explicitly tracked.
          The "true" memory usage will be greater.

          Have a nice day.
------------------------------------------------------------
