  MPI-parallelism will be employed.
------------------------------------------------------------
          Invoking FHI-aims ...
          Version 180101-
          Git rev. (modified): fa29f3a Merge branch master of fhiaims.rzberlin.mp[...]
          Compiled on 2018/01/19 at 14:47:46 on host theobook132.

          When using FHI-aims, please cite the following reference:

          Volker Blum, Ralf Gehrke, Felix Hanke, Paula Havu,
          Ville Havu, Xinguo Ren, Karsten Reuter, and Matthias Scheffler,
          'Ab Initio Molecular Simulations with Numeric Atom-Centered Orbitals',
          Computer Physics Communications 180, 2175-2196 (2009)

          For any questions about FHI-aims, please visit the aimsclub website
          with its forums and wiki. Contributions to both the forums and the
          wiki are warmly encouraged - they are for you, and everyone is welcome there.

------------------------------------------------------------



  Date     :  20180215, Time     :  214320.513
  Time zero on CPU 1             :   0.360000000000000E-01  s.
  Internal wall clock time zero  :           287963000.513  s.

  FHI-aims created a unique identifier for this run for later identification
  aims_uuid : 01B886F5-FB31-4119-A222-E3A8DCE73C87

  Using        8 parallel tasks.
  Task        0 on host theobook132 reporting.
  Task        1 on host theobook132 reporting.
  Task        2 on host theobook132 reporting.
  Task        3 on host theobook132 reporting.
  Task        4 on host theobook132 reporting.
  Task        5 on host theobook132 reporting.
  Task        6 on host theobook132 reporting.
  Task        7 on host theobook132 reporting.

  Performing system and environment tests:
  *** Environment variable OMP_NUM_THREADS is not set
  *** For performance reasons you might want to set it to 1
  | Stacksize not measured: no C compiler
  | Checking for scalapack...
  | No scalapack compiled in.

  Obtaining array dimensions for all initial allocations:
  
  -----------------------------------------------------------------------
  Parsing control.in (first pass over file, find array dimensions only).
  The contents of control.in will be repeated verbatim below
  unless switched off by setting 'verbatim_writeout .false.' .
  in the first line of control.in .
  -----------------------------------------------------------------------
  
  ################################################################################
  #
  #		Control.in generated by mkcontrol
  #
  ################################################################################
  xc			pbe
  vdw_correction_hirshfeld
  relativistic		none
  sc_accuracy_rho		1E-5
  sc_accuracy_eev		1E-3
  sc_accuracy_etot	1E-6
  sc_iter_limit		1000	
  
  compute_forces .true.
  final_forces_cleaned .true.
  
  ################################################################################
  #
  #  FHI-aims code project
  #  VB, Fritz-Haber Institut, 2009
  #
  #  Suggested "light" defaults for H atom (to be pasted into control.in file)
  #  Be sure to double-check any results obtained with these settings for post-processing,
  #  e.g., with the "tight" defaults and larger basis sets.
  #
  ################################################################################
    species        H
  #     global species definitions
      nucleus             1
      mass                1.00794
  #
      l_hartree           4
  #
      cut_pot             3.5  1.5  1.0
      basis_dep_cutoff    1e-4
  #
      radial_base         24 5.0
      radial_multiplier   1
      angular_grids       specified
        division   0.2421   50
        division   0.3822  110
        division   0.4799  194
        division   0.5341  302
  #      division   0.5626  434
  #      division   0.5922  590
  #      division   0.6542  770
  #      division   0.6868 1202
  #      outer_grid  770
        outer_grid  302
  ################################################################################
  #
  #  Definition of "minimal" basis
  #
  ################################################################################
  #     valence basis states
      valence      1  s   1.
  #     ion occupancy
      ion_occ      1  s   0.5
  ################################################################################
  #
  #  Suggested additional basis functions. For production calculations,
  #  uncomment them one after another (the most important basis functions are
  #  listed first).
  #
  #  Basis constructed for dimers: 0.5 A, 0.7 A, 1.0 A, 1.5 A, 2.5 A
  #
  ################################################################################
  #  "First tier" - improvements: -1014.90 meV to -62.69 meV
       hydro 2 s 2.1
       hydro 2 p 3.5
  #  "Second tier" - improvements: -12.89 meV to -1.83 meV
  #     hydro 1 s 0.85
  #     hydro 2 p 3.7
  #     hydro 2 s 1.2
  #     hydro 3 d 7
  #  "Third tier" - improvements: -0.25 meV to -0.12 meV
  #     hydro 4 f 11.2
  #     hydro 3 p 4.8
  #     hydro 4 d 9
  #     hydro 3 s 3.2
  
  ################################################################################
  #
  #  FHI-aims code project
  #  VB, Fritz-Haber Institut, 2009
  #
  #  Suggested "light" defaults for C atom (to be pasted into control.in file)
  #  Be sure to double-check any results obtained with these settings forpost-processing,
  #  e.g., with the "tight" defaults and larger basis sets.
  #
  ################################################################################
    species        C
  #     global species definitions
      nucleus             6
      mass                12.0107
  #
      l_hartree           4
  #
      cut_pot             3.5  1.5  1.0
      basis_dep_cutoff    1e-4
  #
      radial_base         34 5.0
      radial_multiplier   1
      angular_grids specified
        division   0.3326   50
        division   0.5710  110
        division   0.7727  194
        division   0.8772  302
  #      division   0.9334  434
  #      division   0.9625  590
  #      division   0.9924  770
  #      division   1.0230  974
  #      division   1.4589 1202
  #     outer_grid  974
       outer_grid 302
  ################################################################################
  #
  #  Definition of "minimal" basis
  #
  ################################################################################
  #     valence basis states
      valence      2  s   2.
      valence      2  p   2.
  #     ion occupancy
      ion_occ      2  s   1.
      ion_occ      2  p   1.
  ################################################################################
  #
  #  Suggested additional basis functions. For production calculations,
  #  uncomment them one after another (the most important basis functions are
  #  listed first).
  #
  #  Constructed for dimers: 1.0 A, 1.25 A, 1.5 A, 2.0 A, 3.0 A
  #
  ################################################################################
  #  "First tier" - improvements: -1214.57 meV to -155.61 meV
       hydro 2 p 1.7
       hydro 3 d 6
       hydro 2 s 4.9
  #  "Second tier" - improvements: -67.75 meV to -5.23 meV
  #     hydro 4 f 9.8
  #     hydro 3 p 5.2
  #     hydro 3 s 4.3
  #     hydro 5 g 14.4
  #     hydro 3 d 6.2
  #  "Third tier" - improvements: -2.43 meV to -0.60 meV
  #     hydro 2 p 5.6
  #     hydro 2 s 1.4
  #     hydro 3 d 4.9
  #     hydro 4 f 11.2
  #  "Fourth tier" - improvements: -0.39 meV to -0.18 meV
  #     hydro 2 p 2.1
  #     hydro 5 g 16.4
  #     hydro 4 d 13.2
  #     hydro 3 s 13.6
  #     hydro 4 f 17.6
  #  Further basis functions - improvements: -0.08 meV and below
  #     hydro 3 s 2
  #     hydro 3 p 6
  #     hydro 4 d 20
  
  -----------------------------------------------------------------------
  Completed first pass over input file control.in .
  -----------------------------------------------------------------------
  
  
  -----------------------------------------------------------------------
  Parsing geometry.in (first pass over file, find array dimensions only).
  The contents of geometry.in will be repeated verbatim below
  unless switched off by setting 'verbatim_writeout .false.' .
  in the first line of geometry.in .
  -----------------------------------------------------------------------
  
  #=======================================#
  # iterations/iteration0037/aims-chain-node-0.40019/geometry.in
  #=======================================#
  atom -1.5047806963451078 -1.1360380163274031 -0.0994982468089717 C
  atom -0.6737189619411061 -0.0045393736335886 0.4673388969412913 C
  atom 0.6737189253832270 0.0045394625945727 0.4673390207073884 C
  atom 1.5047806803954915 1.1360379998826924 -0.0994983311140903 C
  atom -1.0284654031005864 -1.4115332363497215 -1.0549910341208131 H
  atom -2.4971029355635994 -0.7451412946025207 -0.3624120506114584 H
  atom -1.6378072013456064 -2.0621633960464933 0.4756119451068101 H
  atom -1.2083918702587950 0.9467936222856352 0.5739503990445407 H
  atom 1.2083918439514310 -0.9467934841166628 0.5739509040680542 H
  atom 1.0284650748156183 1.4115335977641459 -1.0549908447944047 H
  atom 1.6378078942032763 2.0621631903009212 0.4756120040064875 H
  atom 2.4971026498057403 0.7451409282484280 -0.3624126624248367 H
  
  -----------------------------------------------------------------------
  Completed first pass over input file geometry.in .
  -----------------------------------------------------------------------
  

  Basic array size parameters:
  | Number of species                 :        2
  | Number of atoms                   :       12
  | Max. basis fn. angular momentum   :        2
  | Max. atomic/ionic basis occupied n:        2
  | Max. number of basis fn. types    :        2
  | Max. radial fns per species/type  :        3
  | Max. logarithmic grid size        :     1277
  | Max. radial integration grid size :       34
  | Max. angular integration grid size:      302
  | Max. angular grid division number :        8
  | Radial grid for Hartree potential :     1277
  | Number of spin channels           :        1

------------------------------------------------------------
          Reading file control.in.
------------------------------------------------------------
  XC: Using PBE gradient-corrected functionals.
  Non-relativistic treatment of kinetic energy.
  Convergence accuracy of self-consistent charge density:  0.1000E-04
  Convergence accuracy of sum of eigenvalues:  0.1000E-02
  Convergence accuracy of total energy:  0.1000E-05
  Maximum number of s.-c. iterations  :  1000
  Forces will be computed.
  Cleaning forces before final output.
 
  Reading configuration options for species H                   .
  | Found nuclear charge :   1.0000
  | Found atomic mass :    1.00794000000000      amu
  | Found l_max for Hartree potential  :   4
  | Found cutoff potl. onset [A], width [A], scale factor :    3.50000    1.50000    1.00000
  | Threshold for basis-dependent cutoff potential is   0.100000E-03
  | Found data for basic radial integration grid :    24 points, outermost radius =    5.000 A
  | Found multiplier for basic radial grid :   1
  | Found angular grid specification: user-specified.
  | Specified grid contains     5 separate shells.
  | Check grid settings after all constraints further below.
  | Found free-atom valence shell :  1 s   1.000
  | No ionic wave fns used. Skipping ion_occ.
  | Found hydrogenic basis function :  2 s   2.100
  | Found hydrogenic basis function :  2 p   3.500
  Species H                   : Missing cutoff potential type.
  Defaulting to exp(1/x)/(1-x)^2 type cutoff potential.
  Species H : No 'logarithmic' tag. Using default grid for free atom:
  | Default logarithmic grid data [bohr] : 0.1000E-03 0.1000E+03 0.1012E+01
  Species H : On-site basis accuracy parameter (for Gram-Schmidt orthonormalisation) not specified.
  Using default value basis_acc =  0.1000000E-03.
  Species H                   : Using default innermost maximum threshold i_radial=  2 for radial functions.
  Species H                   : Default cutoff onset for free atom density etc. : 0.35000000E+01 AA.
  Species H                   : Basic radial grid will be enhanced according to radial_multiplier =   1, to contain    24 grid points.
 
  Reading configuration options for species C                   .
  | Found nuclear charge :   6.0000
  | Found atomic mass :    12.0107000000000      amu
  | Found l_max for Hartree potential  :   4
  | Found cutoff potl. onset [A], width [A], scale factor :    3.50000    1.50000    1.00000
  | Threshold for basis-dependent cutoff potential is   0.100000E-03
  | Found data for basic radial integration grid :    34 points, outermost radius =    5.000 A
  | Found multiplier for basic radial grid :   1
  | Found angular grid specification: user-specified.
  | Specified grid contains     5 separate shells.
  | Check grid settings after all constraints further below.
  | Found free-atom valence shell :  2 s   2.000
  | Found free-atom valence shell :  2 p   2.000
  | No ionic wave fns used. Skipping ion_occ.
  | No ionic wave fns used. Skipping ion_occ.
  | Found hydrogenic basis function :  2 p   1.700
  | Found hydrogenic basis function :  3 d   6.000
  | Found hydrogenic basis function :  2 s   4.900
  Species C                   : Missing cutoff potential type.
  Defaulting to exp(1/x)/(1-x)^2 type cutoff potential.
  Species C : No 'logarithmic' tag. Using default grid for free atom:
  | Default logarithmic grid data [bohr] : 0.1000E-03 0.1000E+03 0.1012E+01
  Species C : On-site basis accuracy parameter (for Gram-Schmidt orthonormalisation) not specified.
  Using default value basis_acc =  0.1000000E-03.
  Species C                   : Using default innermost maximum threshold i_radial=  2 for radial functions.
  Species C                   : Default cutoff onset for free atom density etc. : 0.35000000E+01 AA.
  Species C                   : Basic radial grid will be enhanced according to radial_multiplier =   1, to contain    34 grid points.
 
  Finished reading input file 'control.in'. Consistency checks are next.
 
  MPI_IN_PLACE appears to work with this MPI implementation.
  | Keeping use_mpi_in_place .true. (see manual).
  Target number of points in a grid batch is not set. Defaulting to  100
  Method for grid partitioning is not set. Defaulting to parallel hash+maxmin partitioning.
  Batch size limit is not set. Defaulting to    200
  By default, will store active basis functions for each batch.
  If in need of memory, prune_basis_once .false. can be used to disable this option.
  communication_type for Hartree potential was not specified.
  Defaulting to calc_hartree .
  Defaulting to Pulay charge density mixer.
  Pulay mixer: Number of relevant iterations not set.
  Defaulting to    8 iterations.
  Pulay mixer: Number of initial linear mixing iterations not set.
  Defaulting to    0 iterations.
  Work space size for distributed Hartree potential not set.
  Defaulting to   0.200000E+03 MB.
  Mixing parameter for charge density mixing has not been set.
  Using default: charge_mix_param =     0.0500.
  The mixing parameter will be adjusted in iteration number     2 of the first full s.c.f. cycle only.
  Algorithm-dependent basis array size parameters:
  | n_max_pulay                         :        8
  Presetting        40 iterations before the initial mixing cycle
  is restarted anyway using the sc_init_iter criterion / keyword.
  Presetting a factor      1.000 between actual scf density residual
  and density convergence criterion sc_accuracy_rho below which sc_init_iter
  takes no effect.
  Geometry relaxation not requested: no relaxation will be performed.
  Force calculation: scf convergence accuracy of forces not set.
  Defaulting to 'sc_accuracy_forces not_checked'.
  Handling of forces: Unphysical translation and rotation will be removed from forces.
  No accuracy limit for integral partition fn. given. Defaulting to  0.1000E-14.
  No threshold value for u(r) in integrations given. Defaulting to  0.1000E-05.
  No occupation type (smearing scheme) given. Defaulting to Gaussian broadening, width =  0.1000E-01 eV.
  The width will be adjusted in iteration number     2 of the first full s.c.f. cycle only.
  S.C.F. convergence parameters will be adjusted in iteration number     2 of the first full s.c.f. cycle only.
  No accuracy for occupation numbers given. Defaulting to  0.1000E-12.
  No threshold value for occupation numbers given. Defaulting to  0.0000E+00.
  No accuracy for fermi level given. Defaulting to  0.1000E-19.
  Maximum # of iterations to find E_F not set. Defaulting to  200.
  Preferred method for the eigenvalue solver ('KS_method') not specified in 'control.in'.
  Calling BLACS routine to test compilation state
  The best choice would be 'elsi', but your version of FHI-aims is compiled without ScaLAPACK support.
  Defaulting to 'lapack_fast' instead (serial solution, time will not improve with more CPUs).
  Will not use alltoall communication since running on < 1024 CPUs.
  Threshold for basis singularities not set.
  Default threshold for basis singularities:  0.1000E-04
  partition_type (choice of integration weights) for integrals was not specified.
  | Using a version of the partition function of Stratmann and coworkers ('stratmann_smoother').
  | At each grid point, the set of atoms used to build the partition table is smoothly restricted to
  | only those atoms whose free-atom density would be non-zero at that grid point.
  Partitioning for Hartree potential was not defined. Using partition_type for integrals.
  | Adjusted default value of keyword multip_moments_threshold to:       0.10000000E-11
  | This value may affect high angular momentum components of the Hartree potential in periodic systems.
  Spin handling was not defined in control.in. Defaulting to unpolarized case.
  No q(lm)/r^(l+1) cutoff set for long-range Hartree potential.
  | Using default value of  0.100000E-09 .
  | Verify using the multipole_threshold keyword.
  Defaulting to new monopole extrapolation.
  Density update method: automatic selection selected.
------------------------------------------------------------


------------------------------------------------------------
          Reading geometry description geometry.in.
------------------------------------------------------------
  Input structure read successfully.
  The structure contains       12 atoms,  and a total of         32.000 electrons.

  Input geometry:
  | No unit cell requested.
  | Atomic structure:
  |       Atom                x [A]            y [A]            z [A]
  |    1: Species C            -1.50478070       -1.13603802       -0.09949825
  |    2: Species C            -0.67371896       -0.00453937        0.46733890
  |    3: Species C             0.67371893        0.00453946        0.46733902
  |    4: Species C             1.50478068        1.13603800       -0.09949833
  |    5: Species H            -1.02846540       -1.41153324       -1.05499103
  |    6: Species H            -2.49710294       -0.74514129       -0.36241205
  |    7: Species H            -1.63780720       -2.06216340        0.47561195
  |    8: Species H            -1.20839187        0.94679362        0.57395040
  |    9: Species H             1.20839184       -0.94679348        0.57395090
  |   10: Species H             1.02846507        1.41153360       -1.05499084
  |   11: Species H             1.63780789        2.06216319        0.47561200
  |   12: Species H             2.49710265        0.74514093       -0.36241266
  |

  | The smallest distance between any two atoms is         1.09648329 AA.
  |
  | The first atom of this pair is atom number                      3 .
  | The second atom of this pair is atom number                     9 .

  Number of empty states per atom not set in control.in - providing a guess from actual geometry.
  | Total number of empty states used during s.c.f. cycle:       24
  If you use a very high smearing, use empty_states (per atom!) in control.in to increase this value.

  Structure-dependent array size parameters: 
  | Maximum number of distinct radial functions  :        9
  | Maximum number of basis functions            :       96
  | Number of Kohn-Sham states (occupied + empty):       40
------------------------------------------------------------

------------------------------------------------------------
          Preparing all fixed parts of the calculation.
------------------------------------------------------------
  Determining machine precision:
    2.225073858507201E-308
  Setting up grids for atomic and cluster calculations.

  Creating wave function, potential, and density for free atoms.

  Species: H

  List of occupied orbitals and eigenvalues:
    n    l              occ      energy [Ha]    energy [eV]
    1    0           1.0000        -0.237589        -6.4651


  Species: C

  List of occupied orbitals and eigenvalues:
    n    l              occ      energy [Ha]    energy [eV]
    1    0           2.0000       -10.038835      -273.1706
    2    0           2.0000        -0.502696       -13.6791
    2    1           2.0000        -0.191971        -5.2238

  Creating fixed part of basis set: Ionic, confined, hydrogenic.
 
  H                    hydrogenic:
 
  List of hydrogenic basis orbitals: 
    n    l      effective z      eigenvalue [eV]  inner max. [A]     outer max. [A]     outer radius [A]   
    2    0         2.100000       -14.9728           0.193243           1.317208           4.583499
    2    1         3.500000       -41.6669           0.602369           0.602369           3.723403
 
 
  C                    hydrogenic:
 
  List of hydrogenic basis orbitals: 
    n    l      effective z      eigenvalue [eV]  inner max. [A]     outer max. [A]     outer radius [A]   
    2    1         1.700000        -9.7616           1.230570           1.230570           4.607917
    3    2         6.000000       -54.4224           0.792453           0.792453           3.883070
    2    0         4.900000       -81.6679           0.082559           0.562749           3.078220
 

  Adding cutoff potential to free-atom effective potential.
  Creating atomic-like basis functions for current effective potential.

  Species H                   :

  List of atomic basis orbitals and eigenvalues:
    n    l      energy [Ha]    energy [eV]    outer radius [A]
    1    0        -0.237589        -6.4651       4.527807


  Species C                   :

  List of atomic basis orbitals and eigenvalues:
    n    l      energy [Ha]    energy [eV]    outer radius [A]
    1    0       -10.038835      -273.1706       1.934409
    2    0        -0.502696       -13.6791       4.496620
    2    1        -0.191971        -5.2238       4.551928

  Assembling full basis from fixed parts.
  | Species H :   atomic orbital   1 s accepted.
  | Species H :    hydro orbital   2 s accepted.
  | Species H :    hydro orbital   2 p accepted.
  | Species C :   atomic orbital   1 s accepted.
  | Species C :    hydro orbital   2 s accepted.
  | Species C :   atomic orbital   2 s accepted.
  | Species C :   atomic orbital   2 p accepted.
  | Species C :    hydro orbital   2 p accepted.
  | Species C :    hydro orbital   3 d accepted.
 
  Basis size parameters after reduction:
  | Total number of radial functions:        9
  | Total number of basis functions :       96
 
  Per-task memory consumption for arrays in subroutine allocate_ext:
  |           2.209696MB.
  Testing on-site integration grid accuracy.
  |  Species  Function  <phi|h_atom|phi> (log., in eV)  <phi|h_atom|phi> (rad., in eV)
           1        1                 -6.4663192853                 -6.4651273558
           1        2                 13.7111246313                 13.7170609718
           1        3                 25.2673269279                 25.2674696378
           2        4               -273.1705927641               -273.1705631568
           2        5                -10.7109323383                -10.7107120029
           2        6                 17.4381822266                 17.4352413244
           2        7                 -5.2255326521                 -5.2270484734
           2        8                  8.6835629259                  8.6603288385
           2        9                 27.4952418996                 27.4953360207

  Preparing densities etc. for the partition functions (integrals / Hartree potential).

  Preparations completed.
  max(cpu_time)          :      0.124 s.
  Wall clock time (cpu1) :      0.133 s.
------------------------------------------------------------

------------------------------------------------------------
          Begin self-consistency loop: Initialization.

          Date     :  20180215, Time     :  214320.667
------------------------------------------------------------

  Initializing index lists of integration centers etc. from given atomic structure:
  | Number of centers in hartree potential         :        12
  | Number of centers in hartree multipole         :        12
  | Number of centers in electron density summation:        12
  | Number of centers in basis integrals           :        12
  | Number of centers in integrals                 :        12
  | Number of centers in hamiltonian               :        12
  Partitioning the integration grid into batches with parallel hashing+maxmin method.
  | Number of batches:      774
  | Maximal batch size:     186
  | Minimal batch size:      51
  | Average batch size:      78.739
  | Standard deviation of batch sizes:      20.639

  Integration load balanced across     8 MPI tasks.
  Work distribution over tasks is as follows:
  Task     0 has       7596 integration points.
  Task     1 has       7570 integration points.
  Task     2 has       7618 integration points.
  Task     3 has       7618 integration points.
  Task     4 has       7595 integration points.
  Task     5 has       7641 integration points.
  Task     6 has       7642 integration points.
  Task     7 has       7664 integration points.
  Initializing partition tables, free-atom densities, potentials, etc. across the integration grid (initialize_grid_storage).
  | initialize_grid_storage: Actual outermost partition radius vs. multipole_radius_free
  | (-- VB: in principle, multipole_radius_free should be larger, hence this output)
  | Species        1: Confinement radius =              4.999999999999999 AA, multipole_radius_free =              5.054417573612229 AA.
  | Species        1: outer_partition_radius set to              5.054417573612229 AA .
  | Species        2: Confinement radius =              4.999999999999999 AA, multipole_radius_free =              5.019602836301480 AA.
  | Species        2: outer_partition_radius set to              5.019602836301480 AA .
  | Original list of interatomic distances with          12 x         12 entries is created.
  | Net number of integration points:    60944
  | of which are non-zero points    :    52334
  Renormalizing the initial density to the exact electron count on the 3D integration grid.
  | Initial density: Formal number of electrons (from input files) :      32.0000000000
  | Integrated number of electrons on 3D grid     :      31.9998230016
  | Charge integration error                      :      -0.0001769984
  | Normalization factor for density and gradient :       1.0000055312
  Obtaining max. number of non-zero basis functions in each batch (get_n_compute_maxes).
  | Maximal number of non-zero basis functions:       96 in task     0
  | Maximal number of non-zero basis functions:       96 in task     1
  | Maximal number of non-zero basis functions:       96 in task     2
  | Maximal number of non-zero basis functions:       96 in task     3
  | Maximal number of non-zero basis functions:       96 in task     4
  | Maximal number of non-zero basis functions:       96 in task     5
  | Maximal number of non-zero basis functions:       96 in task     6
  | Maximal number of non-zero basis functions:       96 in task     7
  Selecting the method for density update.
  Loop over occupied states selected for charge density update.
  Allocating        0.031 MB for KS_eigenvector
  Integrating Hamiltonian matrix: batch-based integration.
  Time summed over all CPUs for integration: real work        1.357 s, elapsed        1.433 s
  Integrating overlap matrix.
  Time summed over all CPUs for integration: real work        0.509 s, elapsed        0.537 s

  Updating Kohn-Sham eigenvalues, eigenvectors, occupation numbers, and Fermi level.
  Solving generalized eigenproblem
  Updating Kohn-Sham eigenvalues and eigenfunctions.
  Transforming overlap matrix and checking for singularities.
  Overlap matrix is nonsingular:
  | Lowest eigenvalue:  0.387444E-02
  Solving real generalised eigenvalue problem by standard LAPACK (fast)

  Obtaining occupation numbers and chemical potential using ELSI.
  | Chemical potential (Fermi level):    -9.04776393eV
  Writing Kohn-Sham eigenvalues.

  State    Occupation    Eigenvalue [Ha]    Eigenvalue [eV]
      1       2.00000         -10.165730         -276.62358
      2       2.00000         -10.165730         -276.62358
      3       2.00000         -10.149069         -276.17023
      4       2.00000         -10.148454         -276.15348
      5       2.00000          -0.926250          -25.20454
      6       2.00000          -0.852042          -23.18525
      7       2.00000          -0.783246          -21.31321
      8       2.00000          -0.667737          -18.17006
      9       2.00000          -0.585371          -15.92876
     10       2.00000          -0.584335          -15.90056
     11       2.00000          -0.551850          -15.01660
     12       2.00000          -0.533257          -14.51066
     13       2.00000          -0.514692          -14.00549
     14       2.00000          -0.511331          -13.91403
     15       2.00000          -0.475313          -12.93392
     16       2.00000          -0.365955           -9.95815
     17       0.00000          -0.208400           -5.67084
     18       0.00000          -0.035185           -0.95744
     19       0.00000          -0.031347           -0.85300
     20       0.00000          -0.012019           -0.32706
     21       0.00000          -0.007295           -0.19851
     22       0.00000           0.004238            0.11531
     23       0.00000           0.022985            0.62546
     24       0.00000           0.048461            1.31870
     25       0.00000           0.053943            1.46785
     26       0.00000           0.067128            1.82664
     27       0.00000           0.124639            3.39159
     28       0.00000           0.177109            4.81938
     29       0.00000           0.195121            5.30950
     30       0.00000           0.213911            5.82081
     31       0.00000           0.223785            6.08950
     32       0.00000           0.231104            6.28866
     33       0.00000           0.244197            6.64494
     34       0.00000           0.266701            7.25731
     35       0.00000           0.327606            8.91462
     36       0.00000           0.363952            9.90364
     37       0.00000           0.397734           10.82289
     38       0.00000           0.439850           11.96893
     39       0.00000           0.493310           13.42365
     40       0.00000           0.500825           13.62815

  Highest occupied state (VBM) at     -9.95815281 eV
  | Occupation number:      2.00000000

  Lowest unoccupied state (CBM) at    -5.67083895 eV
  | Occupation number:      0.00000000

  Overall HOMO-LUMO gap:      4.28731386 eV.
  Calculating total energy contributions from superposition of free atom densities.

  Total energy components:
  | Sum of eigenvalues            :         -95.96072539 Ha       -2611.22419561 eV
  | XC energy correction          :         -23.65027178 Ha        -643.55663895 eV
  | XC potential correction       :          30.38023594 Ha         826.68828150 eV
  | Free-atom electrostatic energy:         -68.06182786 Ha       -1852.05656758 eV
  | Hartree energy correction     :           0.00000000 Ha           0.00000000 eV
  | vdW energy correction         :           0.00000000 Ha           0.00000000 eV
  | Entropy correction            :           0.00000000 Ha           0.00000000 eV
  | ---------------------------
  | Total energy                  :        -157.29258909 Ha       -4280.14912064 eV
  | Total energy, T -> 0          :        -157.29258909 Ha       -4280.14912064 eV  <-- do not rely on this value for anything but (periodic) metals
  | Electronic free energy        :        -157.29258909 Ha       -4280.14912064 eV

  Derived energy quantities:
  | Kinetic energy                :         154.20277015 Ha        4196.07086948 eV
  | Electrostatic energy          :        -287.84508745 Ha       -7832.66335117 eV
  | Energy correction for multipole
  | error in Hartree potential    :           0.00000000 Ha           0.00000000 eV
  | Sum of eigenvalues per atom                           :        -217.60201630 eV
  | Total energy (T->0) per atom                          :        -356.67909339 eV  <-- do not rely on this value for anything but (periodic) metals
  | Electronic free energy per atom                       :        -356.67909339 eV
  Initialize hartree_potential_storage
  Max. number of atoms included in rho_multipole:           12

  End scf initialization - timings             :  max(cpu_time)    wall_clock(cpu1)
  | Time for scf. initialization               :        0.456 s           0.458 s
  | Boundary condition initialization          :        0.000 s           0.001 s
  | Integration                                :        0.256 s           0.254 s
  | Solution of K.-S. eqns.                    :        0.012 s           0.011 s
  | Grid partitioning                          :        0.072 s           0.072 s
  | Preloading free-atom quantities on grid    :        0.004 s           0.003 s
  | Free-atom superposition energy             :        0.024 s           0.023 s
  | Total energy evaluation                    :        0.004 s           0.000 s

  Partial memory accounting:
  | Current value for overall tracked memory usage on task 0  :           0.179 MB
  | Peak value for overall tracked memory usage on task 0     :           0.610 MB after allocating wave
  | Largest tracked array allocation on task 0 so far         :           0.143 MB  when allocating H_times_psi
  Note:  These values currently only include a subset of arrays which are explicitly tracked.
  The "true" memory usage will be greater.
------------------------------------------------------------

------------------------------------------------------------
          Begin self-consistency iteration #    1

  Date     :  20180215, Time     :  214321.126
------------------------------------------------------------
  Evaluating new KS density.
  Integration grid: deviation in total charge (<rho> - N_e) =  -7.105427E-15
  Pulay mixing of updated and previous charge densities.

  Evaluating partitioned Hartree potential by multipole expansion.
  | Analytical far-field extrapolation by fixed multipoles:
  | Hartree multipole sum: apparent total charge =  -0.207489E-03
  Summing up the Hartree potential.
  Time summed over all CPUs for potential: real work        1.306 s, elapsed        1.344 s
  | RMS charge density error from multipole expansion :   0.129799E-02

  Integrating Hamiltonian matrix: batch-based integration.
  Time summed over all CPUs for integration: real work        1.319 s, elapsed        1.364 s

  Updating Kohn-Sham eigenvalues, eigenvectors, occupation numbers, and Fermi level.
  Solving generalized eigenproblem
  Updating Kohn-Sham eigenvalues and eigenfunctions.
  Solving real generalised eigenvalue problem by standard LAPACK (fast)

  Obtaining occupation numbers and chemical potential using ELSI.
  | Chemical potential (Fermi level):    -8.66986557eV
  Writing Kohn-Sham eigenvalues.

  State    Occupation    Eigenvalue [Ha]    Eigenvalue [eV]
      1       2.00000         -10.131210         -275.68425
      2       2.00000         -10.131210         -275.68424
      3       2.00000         -10.120076         -275.38127
      4       2.00000         -10.119460         -275.36451
      5       2.00000          -0.906128          -24.65699
      6       2.00000          -0.833222          -22.67313
      7       2.00000          -0.764099          -20.79219
      8       2.00000          -0.651520          -17.72877
      9       2.00000          -0.567440          -15.44082
     10       2.00000          -0.565770          -15.39540
     11       2.00000          -0.535153          -14.56224
     12       2.00000          -0.516886          -14.06519
     13       2.00000          -0.496213          -13.50263
     14       2.00000          -0.494936          -13.46790
     15       2.00000          -0.459144          -12.49395
     16       2.00000          -0.349052           -9.49819
     17       0.00000          -0.192368           -5.23461
     18       0.00000          -0.026165           -0.71199
     19       0.00000          -0.020359           -0.55400
     20       0.00000          -0.002753           -0.07491
     21       0.00000           0.000929            0.02527
     22       0.00000           0.017636            0.47991
     23       0.00000           0.033202            0.90347
     24       0.00000           0.059025            1.60615
     25       0.00000           0.064956            1.76755
     26       0.00000           0.079497            2.16322
     27       0.00000           0.137507            3.74175
     28       0.00000           0.189741            5.16311
     29       0.00000           0.204632            5.56832
     30       0.00000           0.224387            6.10588
     31       0.00000           0.236439            6.43384
     32       0.00000           0.241503            6.57163
     33       0.00000           0.256273            6.97356
     34       0.00000           0.279140            7.59580
     35       0.00000           0.339244            9.23130
     36       0.00000           0.375245           10.21095
     37       0.00000           0.408042           11.10340
     38       0.00000           0.452333           12.30860
     39       0.00000           0.504546           13.72940
     40       0.00000           0.512964           13.95847

  Highest occupied state (VBM) at     -9.49819343 eV
  | Occupation number:      2.00000000

  Lowest unoccupied state (CBM) at    -5.23460536 eV
  | Occupation number:      0.00000000

  Overall HOMO-LUMO gap:      4.26358806 eV.

  Total energy components:
  | Sum of eigenvalues            :         -95.28303695 Ha       -2592.78335472 eV
  | XC energy correction          :         -23.71051051 Ha        -645.19581817 eV
  | XC potential correction       :          30.45830177 Ha         828.81256064 eV
  | Free-atom electrostatic energy:         -68.06182786 Ha       -1852.05656758 eV
  | Hartree energy correction     :          -0.64679670 Ha         -17.60023372 eV
  | vdW energy correction         :           0.00000000 Ha           0.00000000 eV
  | Entropy correction            :           0.00000000 Ha           0.00000000 eV
  | ---------------------------
  | Total energy                  :        -157.24387025 Ha       -4278.82341356 eV
  | Total energy, T -> 0          :        -157.24387025 Ha       -4278.82341356 eV  <-- do not rely on this value for anything but (periodic) metals
  | Electronic free energy        :        -157.24387025 Ha       -4278.82341356 eV

  Derived energy quantities:
  | Kinetic energy                :         154.52829977 Ha        4204.92898111 eV
  | Electrostatic energy          :        -288.06165950 Ha       -7838.55657650 eV
  | Energy correction for multipole
  | error in Hartree potential    :           0.00221565 Ha           0.06029089 eV
  | Sum of eigenvalues per atom                           :        -216.06527956 eV
  | Total energy (T->0) per atom                          :        -356.56861780 eV  <-- do not rely on this value for anything but (periodic) metals
  | Electronic free energy per atom                       :        -356.56861780 eV

  Self-consistency convergence accuracy:
  | Change of charge density      :  0.4875E+00
  | Change of sum of eigenvalues  :  0.1844E+02 eV
  | Change of total energy        :  0.1326E+01 eV

  End self-consistency iteration #     1       :  max(cpu_time)    wall_clock(cpu1)
  | Time for this iteration                    :        0.536 s           0.536 s
  | Charge density update                      :        0.172 s           0.170 s
  | Density mixing                             :        0.004 s           0.002 s
  | Hartree multipole update                   :        0.012 s           0.010 s
  | Hartree multipole summation                :        0.176 s           0.174 s
  | Integration                                :        0.176 s           0.175 s
  | Solution of K.-S. eqns.                    :        0.004 s           0.003 s
  | Total energy evaluation                    :        0.000 s           0.001 s

  Partial memory accounting:
  | Current value for overall tracked memory usage on task 0  :           0.179 MB
  | Peak value for overall tracked memory usage on task 0     :           0.751 MB after allocating gradient_basis_wave
  | Largest tracked array allocation on task 0 so far         :           0.429 MB  when allocating gradient_basis_wave
  Note:  These values currently only include a subset of arrays which are explicitly tracked.
  The "true" memory usage will be greater.
------------------------------------------------------------

------------------------------------------------------------
          Begin self-consistency iteration #    2

  Date     :  20180215, Time     :  214321.663
------------------------------------------------------------
  Evaluating new KS density.
  Integration grid: deviation in total charge (<rho> - N_e) =   7.105427E-15
  Pulay mixing of updated and previous charge densities.

  Evaluating partitioned Hartree potential by multipole expansion.
  | Analytical far-field extrapolation by fixed multipoles:
  | Hartree multipole sum: apparent total charge =  -0.474937E-03
  Summing up the Hartree potential.
  Time summed over all CPUs for potential: real work        1.333 s, elapsed        1.505 s
  | RMS charge density error from multipole expansion :   0.127860E-01

  Integrating Hamiltonian matrix: batch-based integration.
  Time summed over all CPUs for integration: real work        1.397 s, elapsed        1.565 s

  Updating Kohn-Sham eigenvalues, eigenvectors, occupation numbers, and Fermi level.
  Solving generalized eigenproblem
  Updating Kohn-Sham eigenvalues and eigenfunctions.
  Solving real generalised eigenvalue problem by standard LAPACK (fast)

  Obtaining occupation numbers and chemical potential using ELSI.
  | Chemical potential (Fermi level):    -5.45723187eV
  Highest occupied state (VBM) at     -5.70054181 eV
  | Occupation number:      2.00000000

  Lowest unoccupied state (CBM) at    -1.69732341 eV
  | Occupation number:      0.00000000

  Overall HOMO-LUMO gap:      4.00321841 eV.

  Checking to see if s.c.f. parameters should be adjusted.
  The system likely has a gap. Increased the default Pulay mixing parameter (charge_mix_param). Value:   0.200000 .
  Kept the default occupation width. Value:   0.010000 eV.

  Total energy components:
  | Sum of eigenvalues            :         -89.61945119 Ha       -2438.66934495 eV
  | XC energy correction          :         -24.26639028 Ha        -660.32207624 eV
  | XC potential correction       :          31.17836187 Ha         848.40639292 eV
  | Free-atom electrostatic energy:         -68.06182786 Ha       -1852.05656758 eV
  | Hartree energy correction     :          -6.27396036 Ha        -170.72314764 eV
  | vdW energy correction         :           0.00000000 Ha           0.00000000 eV
  | Entropy correction            :          -0.00000000 Ha          -0.00000000 eV
  | ---------------------------
  | Total energy                  :        -157.04326781 Ha       -4273.36474348 eV
  | Total energy, T -> 0          :        -157.04326781 Ha       -4273.36474348 eV  <-- do not rely on this value for anything but (periodic) metals
  | Electronic free energy        :        -157.04326781 Ha       -4273.36474348 eV

  Derived energy quantities:
  | Kinetic energy                :         156.93110231 Ha        4270.31256488 eV
  | Electrostatic energy          :        -289.70797984 Ha       -7883.35523212 eV
  | Energy correction for multipole
  | error in Hartree potential    :           0.02099631 Ha           0.57133854 eV
  | Sum of eigenvalues per atom                           :        -203.22244541 eV
  | Total energy (T->0) per atom                          :        -356.11372862 eV  <-- do not rely on this value for anything but (periodic) metals
  | Electronic free energy per atom                       :        -356.11372862 eV

  Self-consistency convergence accuracy:
  | Change of charge density      :  0.4485E+00
  | Change of sum of eigenvalues  :  0.1541E+03 eV
  | Change of total energy        :  0.5459E+01 eV

  End self-consistency iteration #     2       :  max(cpu_time)    wall_clock(cpu1)
  | Time for this iteration                    :        0.580 s           0.584 s
  | Charge density update                      :        0.172 s           0.170 s
  | Density mixing                             :        0.004 s           0.002 s
  | Hartree multipole update                   :        0.012 s           0.011 s
  | Hartree multipole summation                :        0.196 s           0.196 s
  | Integration                                :        0.200 s           0.202 s
  | Solution of K.-S. eqns.                    :        0.004 s           0.002 s
  | Total energy evaluation                    :        0.000 s           0.001 s

  Partial memory accounting:
  | Current value for overall tracked memory usage on task 0  :           0.180 MB
  | Peak value for overall tracked memory usage on task 0     :           0.751 MB after allocating gradient_basis_wave
  | Largest tracked array allocation on task 0 so far         :           0.429 MB  when allocating gradient_basis_wave
  Note:  These values currently only include a subset of arrays which are explicitly tracked.
  The "true" memory usage will be greater.
------------------------------------------------------------

------------------------------------------------------------
          Begin self-consistency iteration #    3

  Date     :  20180215, Time     :  214322.248
------------------------------------------------------------
  Evaluating new KS density.
  Integration grid: deviation in total charge (<rho> - N_e) =   7.105427E-15
  Pulay mixing of updated and previous charge densities.

  Evaluating partitioned Hartree potential by multipole expansion.
  | Analytical far-field extrapolation by fixed multipoles:
  | Hartree multipole sum: apparent total charge =  -0.466034E-03
  Summing up the Hartree potential.
  Time summed over all CPUs for potential: real work        1.321 s, elapsed        1.398 s
  | RMS charge density error from multipole expansion :   0.159119E-01

  Integrating Hamiltonian matrix: batch-based integration.
  Time summed over all CPUs for integration: real work        1.398 s, elapsed        1.491 s

  Updating Kohn-Sham eigenvalues, eigenvectors, occupation numbers, and Fermi level.
  Solving generalized eigenproblem
  Updating Kohn-Sham eigenvalues and eigenfunctions.
  Solving real generalised eigenvalue problem by standard LAPACK (fast)

  Obtaining occupation numbers and chemical potential using ELSI.
  | Chemical potential (Fermi level):    -5.83890389eV
  Highest occupied state (VBM) at     -6.32469817 eV
  | Occupation number:      2.00000000

  Lowest unoccupied state (CBM) at    -2.28244536 eV
  | Occupation number:      0.00000000

  Overall HOMO-LUMO gap:      4.04225280 eV.

  Total energy components:
  | Sum of eigenvalues            :         -90.53616120 Ha       -2463.61429356 eV
  | XC energy correction          :         -24.22453474 Ha        -659.18312920 eV
  | XC potential correction       :          31.12057700 Ha         846.83398668 eV
  | Free-atom electrostatic energy:         -68.06182786 Ha       -1852.05656758 eV
  | Hartree energy correction     :          -5.33521593 Ha        -145.17861193 eV
  | vdW energy correction         :           0.00000000 Ha           0.00000000 eV
  | Entropy correction            :           0.00000000 Ha           0.00000000 eV
  | ---------------------------
  | Total energy                  :        -157.03716272 Ha       -4273.19861559 eV
  | Total energy, T -> 0          :        -157.03716272 Ha       -4273.19861559 eV  <-- do not rely on this value for anything but (periodic) metals
  | Electronic free energy        :        -157.03716272 Ha       -4273.19861559 eV

  Derived energy quantities:
  | Kinetic energy                :         156.28222790 Ha        4252.65579394 eV
  | Electrostatic energy          :        -289.09485588 Ha       -7866.67128032 eV
  | Energy correction for multipole
  | error in Hartree potential    :           0.02539813 Ha           0.69111842 eV
  | Sum of eigenvalues per atom                           :        -205.30119113 eV
  | Total energy (T->0) per atom                          :        -356.09988463 eV  <-- do not rely on this value for anything but (periodic) metals
  | Electronic free energy per atom                       :        -356.09988463 eV

  Self-consistency convergence accuracy:
  | Change of charge density      :  0.2092E+00
  | Change of sum of eigenvalues  : -0.2494E+02 eV
  | Change of total energy        :  0.1661E+00 eV

  End self-consistency iteration #     3       :  max(cpu_time)    wall_clock(cpu1)
  | Time for this iteration                    :        0.568 s           0.572 s
  | Charge density update                      :        0.176 s           0.175 s
  | Density mixing                             :        0.004 s           0.004 s
  | Hartree multipole update                   :        0.016 s           0.014 s
  | Hartree multipole summation                :        0.184 s           0.183 s
  | Integration                                :        0.192 s           0.192 s
  | Solution of K.-S. eqns.                    :        0.004 s           0.002 s
  | Total energy evaluation                    :        0.000 s           0.001 s

  Partial memory accounting:
  | Current value for overall tracked memory usage on task 0  :           0.180 MB
  | Peak value for overall tracked memory usage on task 0     :           0.751 MB after allocating gradient_basis_wave
  | Largest tracked array allocation on task 0 so far         :           0.429 MB  when allocating gradient_basis_wave
  Note:  These values currently only include a subset of arrays which are explicitly tracked.
  The "true" memory usage will be greater.
------------------------------------------------------------

------------------------------------------------------------
          Begin self-consistency iteration #    4

  Date     :  20180215, Time     :  214322.821
------------------------------------------------------------
  Evaluating new KS density.
  Integration grid: deviation in total charge (<rho> - N_e) =  -1.065814E-14
  Pulay mixing of updated and previous charge densities.

  Evaluating partitioned Hartree potential by multipole expansion.
  | Analytical far-field extrapolation by fixed multipoles:
  | Hartree multipole sum: apparent total charge =  -0.542771E-03
  Summing up the Hartree potential.
  Time summed over all CPUs for potential: real work        1.309 s, elapsed        1.330 s
  | RMS charge density error from multipole expansion :   0.215846E-01

  Integrating Hamiltonian matrix: batch-based integration.
  Time summed over all CPUs for integration: real work        1.307 s, elapsed        1.353 s

  Updating Kohn-Sham eigenvalues, eigenvectors, occupation numbers, and Fermi level.
  Solving generalized eigenproblem
  Updating Kohn-Sham eigenvalues and eigenfunctions.
  Solving real generalised eigenvalue problem by standard LAPACK (fast)

  Obtaining occupation numbers and chemical potential using ELSI.
  | Chemical potential (Fermi level):    -5.17989327eV
  Highest occupied state (VBM) at     -5.67166111 eV
  | Occupation number:      2.00000000

  Lowest unoccupied state (CBM) at    -1.69054163 eV
  | Occupation number:      0.00000000

  Overall HOMO-LUMO gap:      3.98111948 eV.

  Total energy components:
  | Sum of eigenvalues            :         -89.62572145 Ha       -2438.83996748 eV
  | XC energy correction          :         -24.36434436 Ha        -662.98754251 eV
  | XC potential correction       :          31.29937595 Ha         851.69935359 eV
  | Free-atom electrostatic energy:         -68.06182786 Ha       -1852.05656758 eV
  | Hartree energy correction     :          -6.27422116 Ha        -170.73024441 eV
  | vdW energy correction         :           0.00000000 Ha           0.00000000 eV
  | Entropy correction            :           0.00000000 Ha           0.00000000 eV
  | ---------------------------
  | Total energy                  :        -157.02673888 Ha       -4272.91496839 eV
  | Total energy, T -> 0          :        -157.02673888 Ha       -4272.91496839 eV  <-- do not rely on this value for anything but (periodic) metals
  | Electronic free energy        :        -157.02673888 Ha       -4272.91496839 eV

  Derived energy quantities:
  | Kinetic energy                :         156.34743600 Ha        4254.43019660 eV
  | Electrostatic energy          :        -289.00983052 Ha       -7864.35762248 eV
  | Energy correction for multipole
  | error in Hartree potential    :           0.03287782 Ha           0.89465109 eV
  | Sum of eigenvalues per atom                           :        -203.23666396 eV
  | Total energy (T->0) per atom                          :        -356.07624737 eV  <-- do not rely on this value for anything but (periodic) metals
  | Electronic free energy per atom                       :        -356.07624737 eV

  Self-consistency convergence accuracy:
  | Change of charge density      :  0.1253E+00
  | Change of sum of eigenvalues  :  0.2477E+02 eV
  | Change of total energy        :  0.2836E+00 eV

  End self-consistency iteration #     4       :  max(cpu_time)    wall_clock(cpu1)
  | Time for this iteration                    :        0.536 s           0.535 s
  | Charge density update                      :        0.172 s           0.169 s
  | Density mixing                             :        0.008 s           0.006 s
  | Hartree multipole update                   :        0.012 s           0.011 s
  | Hartree multipole summation                :        0.172 s           0.171 s
  | Integration                                :        0.176 s           0.174 s
  | Solution of K.-S. eqns.                    :        0.004 s           0.003 s
  | Total energy evaluation                    :        0.000 s           0.001 s

  Partial memory accounting:
  | Current value for overall tracked memory usage on task 0  :           0.180 MB
  | Peak value for overall tracked memory usage on task 0     :           0.751 MB after allocating gradient_basis_wave
  | Largest tracked array allocation on task 0 so far         :           0.429 MB  when allocating gradient_basis_wave
  Note:  These values currently only include a subset of arrays which are explicitly tracked.
  The "true" memory usage will be greater.
------------------------------------------------------------

------------------------------------------------------------
          Begin self-consistency iteration #    5

  Date     :  20180215, Time     :  214323.357
------------------------------------------------------------
  Evaluating new KS density.
  Integration grid: deviation in total charge (<rho> - N_e) =   0.000000E+00
  Pulay mixing of updated and previous charge densities.

  Evaluating partitioned Hartree potential by multipole expansion.
  | Analytical far-field extrapolation by fixed multipoles:
  | Hartree multipole sum: apparent total charge =  -0.569481E-03
  Summing up the Hartree potential.
  Time summed over all CPUs for potential: real work        1.319 s, elapsed        1.397 s
  | RMS charge density error from multipole expansion :   0.220916E-01

  Integrating Hamiltonian matrix: batch-based integration.
  Time summed over all CPUs for integration: real work        1.323 s, elapsed        1.382 s

  Updating Kohn-Sham eigenvalues, eigenvectors, occupation numbers, and Fermi level.
  Solving generalized eigenproblem
  Updating Kohn-Sham eigenvalues and eigenfunctions.
  Solving real generalised eigenvalue problem by standard LAPACK (fast)

  Obtaining occupation numbers and chemical potential using ELSI.
  | Chemical potential (Fermi level):    -5.00376317eV
  Highest occupied state (VBM) at     -5.43296853 eV
  | Occupation number:      2.00000000

  Lowest unoccupied state (CBM) at    -1.46515910 eV
  | Occupation number:      0.00000000

  Overall HOMO-LUMO gap:      3.96780944 eV.

  Total energy components:
  | Sum of eigenvalues            :         -89.39422517 Ha       -2432.54063324 eV
  | XC energy correction          :         -24.38349591 Ha        -663.50868270 eV
  | XC potential correction       :          31.32431508 Ha         852.37798181 eV
  | Free-atom electrostatic energy:         -68.06182786 Ha       -1852.05656758 eV
  | Hartree energy correction     :          -6.51052148 Ha        -177.16030337 eV
  | vdW energy correction         :           0.00000000 Ha           0.00000000 eV
  | Entropy correction            :           0.00000000 Ha           0.00000000 eV
  | ---------------------------
  | Total energy                  :        -157.02575534 Ha       -4272.88820508 eV
  | Total energy, T -> 0          :        -157.02575534 Ha       -4272.88820508 eV  <-- do not rely on this value for anything but (periodic) metals
  | Electronic free energy        :        -157.02575534 Ha       -4272.88820508 eV

  Derived energy quantities:
  | Kinetic energy                :         156.32152235 Ha        4253.72505016 eV
  | Electrostatic energy          :        -288.96378178 Ha       -7863.10457254 eV
  | Energy correction for multipole
  | error in Hartree potential    :           0.03223771 Ha           0.87723273 eV
  | Sum of eigenvalues per atom                           :        -202.71171944 eV
  | Total energy (T->0) per atom                          :        -356.07401709 eV  <-- do not rely on this value for anything but (periodic) metals
  | Electronic free energy per atom                       :        -356.07401709 eV

  Self-consistency convergence accuracy:
  | Change of charge density      :  0.2977E-01
  | Change of sum of eigenvalues  :  0.6299E+01 eV
  | Change of total energy        :  0.2676E-01 eV

  End self-consistency iteration #     5       :  max(cpu_time)    wall_clock(cpu1)
  | Time for this iteration                    :        0.548 s           0.550 s
  | Charge density update                      :        0.172 s           0.168 s
  | Density mixing                             :        0.008 s           0.007 s
  | Hartree multipole update                   :        0.012 s           0.013 s
  | Hartree multipole summation                :        0.180 s           0.180 s
  | Integration                                :        0.180 s           0.178 s
  | Solution of K.-S. eqns.                    :        0.004 s           0.002 s
  | Total energy evaluation                    :        0.000 s           0.000 s

  Partial memory accounting:
  | Current value for overall tracked memory usage on task 0  :           0.180 MB
  | Peak value for overall tracked memory usage on task 0     :           0.751 MB after allocating gradient_basis_wave
  | Largest tracked array allocation on task 0 so far         :           0.429 MB  when allocating gradient_basis_wave
  Note:  These values currently only include a subset of arrays which are explicitly tracked.
  The "true" memory usage will be greater.
------------------------------------------------------------

------------------------------------------------------------
          Begin self-consistency iteration #    6

  Date     :  20180215, Time     :  214323.907
------------------------------------------------------------
  Evaluating new KS density.
  Integration grid: deviation in total charge (<rho> - N_e) =   2.842171E-14
  Pulay mixing of updated and previous charge densities.

  Evaluating partitioned Hartree potential by multipole expansion.
  | Analytical far-field extrapolation by fixed multipoles:
  | Hartree multipole sum: apparent total charge =  -0.588358E-03
  Summing up the Hartree potential.
  Time summed over all CPUs for potential: real work        1.309 s, elapsed        1.359 s
  | RMS charge density error from multipole expansion :   0.223963E-01

  Integrating Hamiltonian matrix: batch-based integration.
  Time summed over all CPUs for integration: real work        1.307 s, elapsed        1.398 s

  Updating Kohn-Sham eigenvalues, eigenvectors, occupation numbers, and Fermi level.
  Solving generalized eigenproblem
  Updating Kohn-Sham eigenvalues and eigenfunctions.
  Solving real generalised eigenvalue problem by standard LAPACK (fast)

  Obtaining occupation numbers and chemical potential using ELSI.
  | Chemical potential (Fermi level):    -4.92094902eV
  Highest occupied state (VBM) at     -5.34934688 eV
  | Occupation number:      2.00000000

  Lowest unoccupied state (CBM) at    -1.38546476 eV
  | Occupation number:      0.00000000

  Overall HOMO-LUMO gap:      3.96388213 eV.

  Total energy components:
  | Sum of eigenvalues            :         -89.29642924 Ha       -2429.87947053 eV
  | XC energy correction          :         -24.39430444 Ha        -663.80279786 eV
  | XC potential correction       :          31.33833578 Ha         852.75950463 eV
  | Free-atom electrostatic energy:         -68.06182786 Ha       -1852.05656758 eV
  | Hartree energy correction     :          -6.61131646 Ha        -179.90307435 eV
  | vdW energy correction         :           0.00000000 Ha           0.00000000 eV
  | Entropy correction            :           0.00000000 Ha           0.00000000 eV
  | ---------------------------
  | Total energy                  :        -157.02554222 Ha       -4272.88240568 eV
  | Total energy, T -> 0          :        -157.02554222 Ha       -4272.88240568 eV  <-- do not rely on this value for anything but (periodic) metals
  | Electronic free energy        :        -157.02554222 Ha       -4272.88240568 eV

  Derived energy quantities:
  | Kinetic energy                :         156.28003712 Ha        4252.59617983 eV
  | Electrostatic energy          :        -288.91127490 Ha       -7861.67578765 eV
  | Energy correction for multipole
  | error in Hartree potential    :           0.03154030 Ha           0.85825525 eV
  | Sum of eigenvalues per atom                           :        -202.48995588 eV
  | Total energy (T->0) per atom                          :        -356.07353381 eV  <-- do not rely on this value for anything but (periodic) metals
  | Electronic free energy per atom                       :        -356.07353381 eV

  Self-consistency convergence accuracy:
  | Change of charge density      :  0.1515E-01
  | Change of sum of eigenvalues  :  0.2661E+01 eV
  | Change of total energy        :  0.5799E-02 eV

  End self-consistency iteration #     6       :  max(cpu_time)    wall_clock(cpu1)
  | Time for this iteration                    :        0.548 s           0.550 s
  | Charge density update                      :        0.172 s           0.169 s
  | Density mixing                             :        0.012 s           0.009 s
  | Hartree multipole update                   :        0.012 s           0.013 s
  | Hartree multipole summation                :        0.176 s           0.175 s
  | Integration                                :        0.184 s           0.180 s
  | Solution of K.-S. eqns.                    :        0.004 s           0.003 s
  | Total energy evaluation                    :        0.000 s           0.001 s

  Partial memory accounting:
  | Current value for overall tracked memory usage on task 0  :           0.180 MB
  | Peak value for overall tracked memory usage on task 0     :           0.751 MB after allocating gradient_basis_wave
  | Largest tracked array allocation on task 0 so far         :           0.429 MB  when allocating gradient_basis_wave
  Note:  These values currently only include a subset of arrays which are explicitly tracked.
  The "true" memory usage will be greater.
------------------------------------------------------------

------------------------------------------------------------
          Begin self-consistency iteration #    7

  Date     :  20180215, Time     :  214324.458
------------------------------------------------------------
  Evaluating new KS density.
  Integration grid: deviation in total charge (<rho> - N_e) =   7.105427E-15
  Pulay mixing of updated and previous charge densities.

  Evaluating partitioned Hartree potential by multipole expansion.
  | Analytical far-field extrapolation by fixed multipoles:
  | Hartree multipole sum: apparent total charge =  -0.592305E-03
  Summing up the Hartree potential.
  Time summed over all CPUs for potential: real work        1.309 s, elapsed        1.399 s
  | RMS charge density error from multipole expansion :   0.223702E-01

  Integrating Hamiltonian matrix: batch-based integration.
  Time summed over all CPUs for integration: real work        1.300 s, elapsed        1.370 s

  Updating Kohn-Sham eigenvalues, eigenvectors, occupation numbers, and Fermi level.
  Solving generalized eigenproblem
  Updating Kohn-Sham eigenvalues and eigenfunctions.
  Solving real generalised eigenvalue problem by standard LAPACK (fast)

  Obtaining occupation numbers and chemical potential using ELSI.
  | Chemical potential (Fermi level):    -4.90071606eV
  Highest occupied state (VBM) at     -5.32173033 eV
  | Occupation number:      2.00000000

  Lowest unoccupied state (CBM) at    -1.35918610 eV
  | Occupation number:      0.00000000

  Overall HOMO-LUMO gap:      3.96254422 eV.

  Total energy components:
  | Sum of eigenvalues            :         -89.26899773 Ha       -2429.13302126 eV
  | XC energy correction          :         -24.39587584 Ha        -663.84555760 eV
  | XC potential correction       :          31.34044190 Ha         852.81681505 eV
  | Free-atom electrostatic energy:         -68.06182786 Ha       -1852.05656758 eV
  | Hartree energy correction     :          -6.63924240 Ha        -180.66297777 eV
  | vdW energy correction         :           0.00000000 Ha           0.00000000 eV
  | Entropy correction            :           0.00000000 Ha           0.00000000 eV
  | ---------------------------
  | Total energy                  :        -157.02550192 Ha       -4272.88130916 eV
  | Total energy, T -> 0          :        -157.02550192 Ha       -4272.88130916 eV  <-- do not rely on this value for anything but (periodic) metals
  | Electronic free energy        :        -157.02550192 Ha       -4272.88130916 eV

  Derived energy quantities:
  | Kinetic energy                :         156.27846212 Ha        4252.55332172 eV
  | Electrostatic energy          :        -288.90808820 Ha       -7861.58907328 eV
  | Energy correction for multipole
  | error in Hartree potential    :           0.03125378 Ha           0.85045866 eV
  | Sum of eigenvalues per atom                           :        -202.42775177 eV
  | Total energy (T->0) per atom                          :        -356.07344243 eV  <-- do not rely on this value for anything but (periodic) metals
  | Electronic free energy per atom                       :        -356.07344243 eV

  Self-consistency convergence accuracy:
  | Change of charge density      :  0.6231E-02
  | Change of sum of eigenvalues  :  0.7464E+00 eV
  | Change of total energy        :  0.1097E-02 eV

  End self-consistency iteration #     7       :  max(cpu_time)    wall_clock(cpu1)
  | Time for this iteration                    :        0.556 s           0.555 s
  | Charge density update                      :        0.176 s           0.173 s
  | Density mixing                             :        0.012 s           0.011 s
  | Hartree multipole update                   :        0.012 s           0.010 s
  | Hartree multipole summation                :        0.180 s           0.181 s
  | Integration                                :        0.180 s           0.176 s
  | Solution of K.-S. eqns.                    :        0.004 s           0.002 s
  | Total energy evaluation                    :        0.000 s           0.001 s

  Partial memory accounting:
  | Current value for overall tracked memory usage on task 0  :           0.180 MB
  | Peak value for overall tracked memory usage on task 0     :           0.751 MB after allocating gradient_basis_wave
  | Largest tracked array allocation on task 0 so far         :           0.429 MB  when allocating gradient_basis_wave
  Note:  These values currently only include a subset of arrays which are explicitly tracked.
  The "true" memory usage will be greater.
------------------------------------------------------------

------------------------------------------------------------
          Begin self-consistency iteration #    8

  Date     :  20180215, Time     :  214325.014
------------------------------------------------------------
  Evaluating new KS density.
  Integration grid: deviation in total charge (<rho> - N_e) =   1.421085E-14
  Pulay mixing of updated and previous charge densities.

  Evaluating partitioned Hartree potential by multipole expansion.
  | Analytical far-field extrapolation by fixed multipoles:
  | Hartree multipole sum: apparent total charge =  -0.601174E-03
  Summing up the Hartree potential.
  Time summed over all CPUs for potential: real work        1.306 s, elapsed        1.338 s
  | RMS charge density error from multipole expansion :   0.224098E-01

  Integrating Hamiltonian matrix: batch-based integration.
  Time summed over all CPUs for integration: real work        1.309 s, elapsed        1.376 s

  Updating Kohn-Sham eigenvalues, eigenvectors, occupation numbers, and Fermi level.
  Solving generalized eigenproblem
  Updating Kohn-Sham eigenvalues and eigenfunctions.
  Solving real generalised eigenvalue problem by standard LAPACK (fast)

  Obtaining occupation numbers and chemical potential using ELSI.
  | Chemical potential (Fermi level):    -4.85326752eV
  Highest occupied state (VBM) at     -5.26268921 eV
  | Occupation number:      2.00000000

  Lowest unoccupied state (CBM) at    -1.30421451 eV
  | Occupation number:      0.00000000

  Overall HOMO-LUMO gap:      3.95847470 eV.

  Total energy components:
  | Sum of eigenvalues            :         -89.20602191 Ha       -2427.41936196 eV
  | XC energy correction          :         -24.40195262 Ha        -664.01091542 eV
  | XC potential correction       :          31.34839420 Ha         853.03320798 eV
  | Free-atom electrostatic energy:         -68.06182786 Ha       -1852.05656758 eV
  | Hartree energy correction     :          -6.70405879 Ha        -182.42672143 eV
  | vdW energy correction         :           0.00000000 Ha           0.00000000 eV
  | Entropy correction            :           0.00000000 Ha           0.00000000 eV
  | ---------------------------
  | Total energy                  :        -157.02546698 Ha       -4272.88035841 eV
  | Total energy, T -> 0          :        -157.02546698 Ha       -4272.88035841 eV  <-- do not rely on this value for anything but (periodic) metals
  | Electronic free energy        :        -157.02546698 Ha       -4272.88035841 eV

  Derived energy quantities:
  | Kinetic energy                :         156.28098398 Ha        4252.62194501 eV
  | Electrostatic energy          :        -288.90449834 Ha       -7861.49138800 eV
  | Energy correction for multipole
  | error in Hartree potential    :           0.03085882 Ha           0.83971127 eV
  | Sum of eigenvalues per atom                           :        -202.28494683 eV
  | Total energy (T->0) per atom                          :        -356.07336320 eV  <-- do not rely on this value for anything but (periodic) metals
  | Electronic free energy per atom                       :        -356.07336320 eV

  Self-consistency convergence accuracy:
  | Change of charge density      :  0.4652E-02
  | Change of sum of eigenvalues  :  0.1714E+01 eV
  | Change of total energy        :  0.9507E-03 eV

  End self-consistency iteration #     8       :  max(cpu_time)    wall_clock(cpu1)
  | Time for this iteration                    :        0.552 s           0.550 s
  | Charge density update                      :        0.176 s           0.174 s
  | Density mixing                             :        0.012 s           0.012 s
  | Hartree multipole update                   :        0.012 s           0.011 s
  | Hartree multipole summation                :        0.176 s           0.172 s
  | Integration                                :        0.180 s           0.178 s
  | Solution of K.-S. eqns.                    :        0.004 s           0.002 s
  | Total energy evaluation                    :        0.000 s           0.001 s

  Partial memory accounting:
  | Current value for overall tracked memory usage on task 0  :           0.180 MB
  | Peak value for overall tracked memory usage on task 0     :           0.751 MB after allocating gradient_basis_wave
  | Largest tracked array allocation on task 0 so far         :           0.429 MB  when allocating gradient_basis_wave
  Note:  These values currently only include a subset of arrays which are explicitly tracked.
  The "true" memory usage will be greater.
------------------------------------------------------------

------------------------------------------------------------
          Begin self-consistency iteration #    9

  Date     :  20180215, Time     :  214325.565
------------------------------------------------------------
  Evaluating new KS density.
  Integration grid: deviation in total charge (<rho> - N_e) =   7.105427E-15
  Pulay mixing of updated and previous charge densities.

  Evaluating partitioned Hartree potential by multipole expansion.
  | Analytical far-field extrapolation by fixed multipoles:
  | Hartree multipole sum: apparent total charge =  -0.602545E-03
  Summing up the Hartree potential.
  Time summed over all CPUs for potential: real work        1.296 s, elapsed        1.321 s
  | RMS charge density error from multipole expansion :   0.224168E-01

  Integrating Hamiltonian matrix: batch-based integration.
  Time summed over all CPUs for integration: real work        1.319 s, elapsed        1.367 s

  Updating Kohn-Sham eigenvalues, eigenvectors, occupation numbers, and Fermi level.
  Solving generalized eigenproblem
  Updating Kohn-Sham eigenvalues and eigenfunctions.
  Solving real generalised eigenvalue problem by standard LAPACK (fast)

  Obtaining occupation numbers and chemical potential using ELSI.
  | Chemical potential (Fermi level):    -4.84579831eV
  Highest occupied state (VBM) at     -5.25385600 eV
  | Occupation number:      2.00000000

  Lowest unoccupied state (CBM) at    -1.29605277 eV
  | Occupation number:      0.00000000

  Overall HOMO-LUMO gap:      3.95780323 eV.

  Total energy components:
  | Sum of eigenvalues            :         -89.19577191 Ha       -2427.14044520 eV
  | XC energy correction          :         -24.40312983 Ha        -664.04294875 eV
  | XC potential correction       :          31.34992475 Ha         853.07485633 eV
  | Free-atom electrostatic energy:         -68.06182786 Ha       -1852.05656758 eV
  | Hartree energy correction     :          -6.71466260 Ha        -182.71526580 eV
  | vdW energy correction         :           0.00000000 Ha           0.00000000 eV
  | Entropy correction            :           0.00000000 Ha           0.00000000 eV
  | ---------------------------
  | Total energy                  :        -157.02546745 Ha       -4272.88037099 eV
  | Total energy, T -> 0          :        -157.02546745 Ha       -4272.88037099 eV  <-- do not rely on this value for anything but (periodic) metals
  | Electronic free energy        :        -157.02546745 Ha       -4272.88037099 eV

  Derived energy quantities:
  | Kinetic energy                :         156.28336570 Ha        4252.68675503 eV
  | Electrostatic energy          :        -288.90570332 Ha       -7861.52417727 eV
  | Energy correction for multipole
  | error in Hartree potential    :           0.03081923 Ha           0.83863388 eV
  | Sum of eigenvalues per atom                           :        -202.26170377 eV
  | Total energy (T->0) per atom                          :        -356.07336425 eV  <-- do not rely on this value for anything but (periodic) metals
  | Electronic free energy per atom                       :        -356.07336425 eV

  Self-consistency convergence accuracy:
  | Change of charge density      :  0.7262E-03
  | Change of sum of eigenvalues  :  0.2789E+00 eV
  | Change of total energy        : -0.1258E-04 eV

  End self-consistency iteration #     9       :  max(cpu_time)    wall_clock(cpu1)
  | Time for this iteration                    :        0.544 s           0.542 s
  | Charge density update                      :        0.168 s           0.167 s
  | Density mixing                             :        0.016 s           0.014 s
  | Hartree multipole update                   :        0.012 s           0.010 s
  | Hartree multipole summation                :        0.172 s           0.171 s
  | Integration                                :        0.176 s           0.176 s
  | Solution of K.-S. eqns.                    :        0.004 s           0.002 s
  | Total energy evaluation                    :        0.000 s           0.001 s

  Partial memory accounting:
  | Current value for overall tracked memory usage on task 0  :           0.180 MB
  | Peak value for overall tracked memory usage on task 0     :           0.751 MB after allocating gradient_basis_wave
  | Largest tracked array allocation on task 0 so far         :           0.429 MB  when allocating gradient_basis_wave
  Note:  These values currently only include a subset of arrays which are explicitly tracked.
  The "true" memory usage will be greater.
------------------------------------------------------------

------------------------------------------------------------
          Begin self-consistency iteration #   10

  Date     :  20180215, Time     :  214326.108
------------------------------------------------------------
  Evaluating new KS density.
  Integration grid: deviation in total charge (<rho> - N_e) =   0.000000E+00
  Pulay mixing of updated and previous charge densities.

  Evaluating partitioned Hartree potential by multipole expansion.
  | Analytical far-field extrapolation by fixed multipoles:
  | Hartree multipole sum: apparent total charge =  -0.602537E-03
  Summing up the Hartree potential.
  Time summed over all CPUs for potential: real work        1.309 s, elapsed        1.359 s
  | RMS charge density error from multipole expansion :   0.224177E-01

  Integrating Hamiltonian matrix: batch-based integration.
  Time summed over all CPUs for integration: real work        1.321 s, elapsed        1.445 s

[...]
  |   Hirshfeld dipole moment :      0.08876766
  |   Hirshfeld second moments:      0.10864918      -0.00354812       0.00108618
  |                                 -0.00354812       0.09301750       0.00839017
  |                                  0.00108618       0.00839017       0.10222443
  ----------------------------------------------------------------------
  | Atom     8: H
  |   Hirshfeld charge        :      0.03523579
  |   Free atom volume        :      9.95071624
  |   Hirshfeld volume        :      6.47991732
  |   Hirshfeld dipole vector :     -0.04773434       0.07474013       0.00847350
  |   Hirshfeld dipole moment :      0.08908678
  |   Hirshfeld second moments:      0.09715368       0.00708911      -0.00290975
  |                                  0.00708911       0.08981179       0.00034661
  |                                 -0.00290975       0.00034661       0.09712877
  ----------------------------------------------------------------------
  | Atom     9: H
  |   Hirshfeld charge        :      0.03523578
  |   Free atom volume        :      9.95071624
  |   Hirshfeld volume        :      6.47991733
  |   Hirshfeld dipole vector :      0.04773434      -0.07474013       0.00847353
  |   Hirshfeld dipole moment :      0.08908678
  |   Hirshfeld second moments:      0.09715368       0.00708911       0.00290975
  |                                  0.00708911       0.08981178      -0.00034661
  |                                  0.00290975      -0.00034661       0.09712877
  ----------------------------------------------------------------------
  | Atom    10: H
  |   Hirshfeld charge        :      0.04078309
  |   Free atom volume        :      9.95071624
  |   Hirshfeld volume        :      6.27172381
  |   Hirshfeld dipole vector :     -0.03542655       0.02323737      -0.07722584
  |   Hirshfeld dipole moment :      0.08808432
  |   Hirshfeld second moments:      0.10007601      -0.00143708      -0.00557199
  |                                 -0.00143708       0.10330712       0.00819781
  |                                 -0.00557199       0.00819781       0.09155978
  ----------------------------------------------------------------------
  | Atom    11: H
  |   Hirshfeld charge        :      0.04308645
  |   Free atom volume        :      9.95071624
  |   Hirshfeld volume        :      6.13923660
  |   Hirshfeld dipole vector :      0.01204320       0.07680175       0.04285032
  |   Hirshfeld dipole moment :      0.08876766
  |   Hirshfeld second moments:      0.10864918      -0.00354813      -0.00108619
  |                                 -0.00354813       0.09301751      -0.00839017
  |                                 -0.00108619      -0.00839017       0.10222443
  ----------------------------------------------------------------------
  | Atom    12: H
  |   Hirshfeld charge        :      0.04237858
  |   Free atom volume        :      9.95071624
  |   Hirshfeld volume        :      6.08801926
  |   Hirshfeld dipole vector :      0.08071765      -0.03218199      -0.02259417
  |   Hirshfeld dipole moment :      0.08978595
  |   Hirshfeld second moments:      0.08984403       0.00392767       0.00567164
  |                                  0.00392767       0.10759293      -0.00130640
  |                                  0.00567164      -0.00130640       0.10978193
  ----------------------------------------------------------------------


  Total energy components:
  | Sum of eigenvalues            :         -89.19509140 Ha       -2427.12192754 eV
  | XC energy correction          :         -24.40327603 Ha        -664.04692701 eV
  | XC potential correction       :          31.35011210 Ha         853.07995455 eV
  | Free-atom electrostatic energy:         -68.06182786 Ha       -1852.05656758 eV
  | Hartree energy correction     :          -6.71538482 Ha        -182.73491840 eV
  | vdW energy correction         :          -0.00229240 Ha          -0.06237945 eV
  | Entropy correction            :           0.00000000 Ha           0.00000000 eV
  | ---------------------------
  | Total energy                  :        -157.02776040 Ha       -4272.94276542 eV
  | Total energy, T -> 0          :        -157.02776040 Ha       -4272.94276542 eV  <-- do not rely on this value for anything but (periodic) metals
  | Electronic free energy        :        -157.02776040 Ha       -4272.94276542 eV

  Derived energy quantities:
  | Kinetic energy                :         156.28391295 Ha        4252.70164652 eV
  | Electrostatic energy          :        -288.90610492 Ha       -7861.53510548 eV
  | Energy correction for multipole
  | error in Hartree potential    :           0.03082241 Ha           0.83872049 eV
  | Sum of eigenvalues per atom                           :        -202.26016063 eV
  | Total energy (T->0) per atom                          :        -356.07856379 eV  <-- do not rely on this value for anything but (periodic) metals
  | Electronic free energy per atom                       :        -356.07856379 eV

  atomic forces [eV/Ang]:
  -----------------------
  atom #    1
   Hellmann-Feynman              : -0.121090E+00 -0.520738E-01 -0.335781E+00
   Ionic forces                  :  0.000000E+00  0.000000E+00  0.000000E+00
   Multipole                     : -0.297433E+00 -0.360309E+00 -0.149192E+00
   Pulay + GGA                   :  0.367574E+00  0.361732E+00  0.583981E+00
   Van der Waals                 : -0.879468E-04  0.495339E-02 -0.333055E-02
   ----------------------------------------------------------------
   Total forces(   1)            : -0.510362E-01 -0.456981E-01  0.956769E-01
  atom #    2
   Hellmann-Feynman              :  0.222154E+01  0.938298E+00 -0.119043E+01
   Ionic forces                  :  0.000000E+00  0.000000E+00  0.000000E+00
   Multipole                     : -0.221463E+00 -0.112027E+00  0.222237E+00
   Pulay + GGA                   : -0.198749E+01 -0.773222E+00  0.799956E+00
   Van der Waals                 : -0.139869E-02 -0.163667E-02  0.339707E-02
   ----------------------------------------------------------------
   Total forces(   2)            :  0.111867E-01  0.514117E-01 -0.164836E+00
  atom #    3
   Hellmann-Feynman              : -0.222154E+01 -0.938298E+00 -0.119043E+01
   Ionic forces                  :  0.000000E+00  0.000000E+00  0.000000E+00
   Multipole                     :  0.221463E+00  0.112027E+00  0.222237E+00
   Pulay + GGA                   :  0.198749E+01  0.773222E+00  0.799956E+00
   Van der Waals                 :  0.139870E-02  0.163668E-02  0.339707E-02
   ----------------------------------------------------------------
   Total forces(   3)            : -0.111867E-01 -0.514117E-01 -0.164835E+00
  atom #    4
   Hellmann-Feynman              :  0.121090E+00  0.520740E-01 -0.335781E+00
   Ionic forces                  :  0.000000E+00  0.000000E+00  0.000000E+00
   Multipole                     :  0.297432E+00  0.360309E+00 -0.149192E+00
   Pulay + GGA                   : -0.367574E+00 -0.361732E+00  0.583981E+00
   Van der Waals                 :  0.879463E-04 -0.495340E-02 -0.333055E-02
   ----------------------------------------------------------------
   Total forces(   4)            :  0.510362E-01  0.456981E-01  0.956769E-01
  atom #    5
   Hellmann-Feynman              : -0.118565E+00 -0.178399E+00  0.104753E+00
   Ionic forces                  :  0.000000E+00  0.000000E+00  0.000000E+00
   Multipole                     : -0.501993E-02 -0.513199E-01 -0.106034E+00
   Pulay + GGA                   : -0.967000E-02  0.533520E-01  0.910869E-01
   Van der Waals                 :  0.294487E-03  0.183340E-02 -0.171598E-02
   ----------------------------------------------------------------
   Total forces(   5)            : -0.132960E+00 -0.174534E+00  0.880889E-01
  atom #    6
   Hellmann-Feynman              : -0.598177E-01 -0.628964E-01  0.199911E+00
   Ionic forces                  :  0.000000E+00  0.000000E+00  0.000000E+00
   Multipole                     : -0.129586E+00 -0.240512E-01 -0.663399E-01
   Pulay + GGA                   :  0.941472E-01 -0.379416E-01  0.201107E-01
   Van der Waals                 :  0.320282E-02 -0.835963E-03 -0.458087E-03
   ----------------------------------------------------------------
   Total forces(   6)            : -0.920532E-01 -0.125725E+00  0.153223E+00
  atom #    7
   Hellmann-Feynman              :  0.857374E-01  0.322976E-01  0.287842E+00
   Ionic forces                  :  0.000000E+00  0.000000E+00  0.000000E+00
   Multipole                     : -0.593195E-01 -0.121723E+00  0.228791E-01
   Pulay + GGA                   :  0.262864E-01  0.108706E+00 -0.524839E-01
   Van der Waals                 :  0.275352E-02  0.271688E-02  0.428002E-03
   ----------------------------------------------------------------
   Total forces(   7)            :  0.554578E-01  0.219974E-01  0.258665E+00
  atom #    8
   Hellmann-Feynman              :  0.678500E-01  0.103665E+00 -0.495848E+00
   Ionic forces                  :  0.000000E+00  0.000000E+00  0.000000E+00
   Multipole                     : -0.204178E-01  0.159761E+00  0.543083E-01
   Pulay + GGA                   :  0.536729E-01 -0.979582E-01  0.122141E-01
   Van der Waals                 :  0.250921E-03 -0.203771E-02  0.167955E-02
   ----------------------------------------------------------------
   Total forces(   8)            :  0.101356E+00  0.163430E+00 -0.427646E+00
  atom #    9
   Hellmann-Feynman              : -0.678500E-01 -0.103665E+00 -0.495848E+00
   Ionic forces                  :  0.000000E+00  0.000000E+00  0.000000E+00
   Multipole                     :  0.204178E-01 -0.159761E+00  0.543083E-01
   Pulay + GGA                   : -0.536729E-01  0.979582E-01  0.122141E-01
   Van der Waals                 : -0.250931E-03  0.203771E-02  0.167954E-02
   ----------------------------------------------------------------
   Total forces(   9)            : -0.101356E+00 -0.163430E+00 -0.427646E+00
  atom #   10
   Hellmann-Feynman              :  0.118565E+00  0.178399E+00  0.104753E+00
   Ionic forces                  :  0.000000E+00  0.000000E+00  0.000000E+00
   Multipole                     :  0.501993E-02  0.513200E-01 -0.106035E+00
   Pulay + GGA                   :  0.967004E-02 -0.533520E-01  0.910868E-01
   Van der Waals                 : -0.294477E-03 -0.183340E-02 -0.171598E-02
   ----------------------------------------------------------------
   Total forces(  10)            :  0.132960E+00  0.174534E+00  0.880890E-01
  atom #   11
   Hellmann-Feynman              : -0.857372E-01 -0.322976E-01  0.287842E+00
   Ionic forces                  :  0.000000E+00  0.000000E+00  0.000000E+00
   Multipole                     :  0.593195E-01  0.121723E+00  0.228791E-01
   Pulay + GGA                   : -0.262865E-01 -0.108706E+00 -0.524839E-01
   Van der Waals                 : -0.275353E-02 -0.271689E-02  0.428002E-03
   ----------------------------------------------------------------
   Total forces(  11)            : -0.554577E-01 -0.219975E-01  0.258665E+00
  atom #   12
   Hellmann-Feynman              :  0.598176E-01  0.628964E-01  0.199911E+00
   Ionic forces                  :  0.000000E+00  0.000000E+00  0.000000E+00
   Multipole                     :  0.129585E+00  0.240511E-01 -0.663400E-01
   Pulay + GGA                   : -0.941472E-01  0.379416E-01  0.201107E-01
   Van der Waals                 : -0.320282E-02  0.835962E-03 -0.458088E-03
   ----------------------------------------------------------------
   Total forces(  12)            :  0.920531E-01  0.125725E+00  0.153223E+00

  Timings for VdW correction (Tkatchenko-Scheffler 2009 or later):
  | CPU time:        0.052 s, Wall clock time:        0.053 s.
  Removing unitary transformations (pure translations, rotations) from forces on atoms.
  Atomic forces before filtering:
  | Net force on center of mass :   0.286465E-07 -0.362951E-09  0.634470E-02 eV/A
  | Net torque on center of mass:  -0.782752E-07 -0.668076E-07 -0.346885E-02 eV
  Atomic forces after filtering:
  | Net force on center of mass :   0.557519E-16  0.000000E+00 -0.669023E-16 eV/A
  | Net torque on center of mass:   0.171115E-15  0.188817E-15 -0.590053E-16 eV

  Energy and forces in a compact form:
  | Total energy uncorrected      :         -0.427294276542310E+04 eV
  | Total energy corrected        :         -0.427294276542310E+04 eV  <-- do not rely on this value for anything but (periodic) metals
  | Electronic free energy        :         -0.427294276542310E+04 eV
  Total atomic forces (unitary forces cleaned) [eV/Ang]:
  |   1         -0.509511019324250E-01         -0.458109190057930E-01          0.951481828549932E-01
  |   2          0.111870890076090E-01          0.513611708314430E-01         -0.165364264674389E+00
  |   3         -0.111870580471330E-01         -0.513612064875179E-01         -0.165364185474494E+00
  |   4          0.509510763852053E-01          0.458109259153383E-01          0.951481857107731E-01
  |   5         -0.132854495248227E+00         -0.174610804206980E+00          0.875601871406814E-01
  |   6         -0.919973122039037E-01         -0.125912228417254E+00          0.152694735815952E+00
  |   7          0.556123834232057E-01          0.218746846989347E-01          0.258136029196580E+00
  |   8          0.101285129898306E+00          0.163338965315838E+00         -0.428175071794387E+00
  |   9         -0.101285014388765E+00         -0.163339020093265E+00         -0.428174719738352E+00
  |  10          0.132854301280176E+00          0.174610885892183E+00          0.875603133220253E-01
  |  11         -0.556122780342119E-01         -0.218747085508870E-01          0.258136126477188E+00
  |  12          0.919972798601632E-01          0.125912254107959E+00          0.152694481163428E+00

  ------------------------------------ 
  Start decomposition of the XC Energy 
  ------------------------------------ 
  X and C from original XC functional choice 
  Hartree-Fock Energy :          0.000000000 Ha              0.000000000 eV
  X Energy            :        -23.387948734 Ha           -636.418465655 eV
  C Energy            :         -1.015327293 Ha            -27.628461351 eV
  Total XC Energy     :        -24.403276026 Ha           -664.046927006 eV
  ------------------------------------ 
  LDA X and C from self-consistent density 
  X Energy LDA        :        -21.140086686 Ha           -575.251027188 eV
  C Energy LDA        :         -1.973893262 Ha            -53.712368511 eV
  ------------------------------------ 
  End decomposition of the XC Energy 
  ------------------------------------ 

------------------------------------------------------------

------------------------------------------------------------------------------
  Final output of selected total energy values:

  The following output summarizes some interesting total energy values
  at the end of a run (AFTER all relaxation, molecular dynamics, etc.).

  | Total energy of the DFT / Hartree-Fock s.c.f. calculation      :          -4272.942765423 eV
  | Final zero-broadening corrected energy (caution - metals only) :          -4272.942765423 eV
  | For reference only, the value of 1 Hartree used in FHI-aims is :             27.211384500 eV

  Before relying on these values, please be sure to understand exactly which
  total energy value is referred to by a given number. Different objects may
  all carry the same name 'total energy'. Definitions:

  Total energy of the DFT / Hartree-Fock s.c.f. calculation:
  | Note that this energy does not include ANY quantities calculated after the
  | s.c.f. cycle, in particular not ANY RPA, MP2, etc. many-body perturbation terms.

  Final zero-broadening corrected energy:
  | For metallic systems only, a broadening of the occupation numbers at the Fermi
  | level can be extrapolated back to zero broadening by an electron-gas inspired
  | formula. For all systems that are not real metals, this value can be
  | meaningless and should be avoided.

------------------------------------------------------------------------------
  Methods described in the following list of references were used in this FHI-aims run.
  If you publish the results, please make sure to cite these reference if they apply.
  FHI-aims is an academic code, and for our developers (often, Ph.D. students
  and postdocs), scientific credit in the community is essential.
  Thank you for helping us!

  For any use of FHI-aims, please cite:

    Volker Blum, Ralf Gehrke, Felix Hanke, Paula Havu, Ville Havu,
    Xinguo Ren, Karsten Reuter, and Matthias Scheffler
    'Ab initio molecular simulations with numeric atom-centered orbitals'
    Computer Physics Communications 180, 2175-2196 (2009)
    http://dx.doi.org/10.1016/j.cpc.2009.06.022


  For the real-space grid partitioning and parallelization used in this calculation, please cite:

    Ville Havu, Volker Blum, Paula Havu, and Matthias Scheffler,
    'Efficient O(N) integration for all-electron electronic structure calculation'
    'using numerically tabulated basis functions'
    Journal of Computational Physics 228, 8367-8379 (2009).
    http://dx.doi.org/10.1016/j.jcp.2009.08.008

  Of course, there are many other important community references, e.g., those cited in the
  above references. Our list is limited to references that describe implementations in the
  FHI-aims code. The reason is purely practical (length of this list) - please credit others as well.

------------------------------------------------------------
          Leaving FHI-aims.
          Date     :  20180215, Time     :  214330.507

          Computational steps:
          | Number of self-consistency cycles          :           15
          | Number of SCF (re)initializations          :            1

          Detailed time accounting                     :  max(cpu_time)    wall_clock(cpu1)
          | Total time                                 :        9.900 s           9.994 s
          | Preparation time                           :        0.124 s           0.133 s
          | Boundary condition initalization           :        0.000 s           0.001 s
          | Grid partitioning                          :        0.072 s           0.072 s
          | Preloading free-atom quantities on grid    :        0.004 s           0.003 s
          | Free-atom superposition energy             :        0.024 s           0.023 s
          | Total time for integrations                :        3.020 s           3.000 s
          | Total time for solution of K.-S. equations :        0.072 s           0.048 s
          | Total time for density & force components  :        3.036 s           3.007 s
          | Total time for mixing                      :        0.172 s           0.149 s
          | Total time for Hartree multipole update    :        0.180 s           0.166 s
          | Total time for Hartree multipole sum       :        3.188 s           3.169 s
          | Total time for total energy evaluation     :        0.012 s           0.018 s
          | Total time for vdW correction              :        0.052 s           0.053 s

          Partial memory accounting:
          | Residual value for overall tracked memory usage across tasks :           0.000 MB (should be 0.000 MB)
          | Peak values for overall tracked memory usage (after allocating hessian_basis_wave):
          |   Minimum:        1.751 MB (on task 1)
          |   Maximum:        1.751 MB (on task 1)
          |   Average:        1.751 MB
          | Largest tracked array allocation (hessian_basis_wave):
          |   Minimum:        0.857 MB (on task 1)
          |   Maximum:        0.857 MB (on task 1)
          |   Average:        0.857 MB
          Note:  These values currently only include a subset of arrays which are explicitly tracked.
          The "true" memory usage will be greater.

          Have a nice day.
------------------------------------------------------------
