  MPI-parallelism will be employed.
------------------------------------------------------------
          Invoking FHI-aims ...

          When using FHI-aims, please cite the following reference:

          Volker Blum, Ralf Gehrke, Felix Hanke, Paula Havu,
          Ville Havu, Xinguo Ren, Karsten Reuter, and Matthias Scheffler,
          'Ab Initio Molecular Simulations with Numeric Atom-Centered Orbitals',
          Computer Physics Communications 180, 2175-2196 (2009)

          For any questions about FHI-aims, please visit the aimsclub website
          with its forums and wiki. Contributions to both the forums and the
          wiki are warmly encouraged - they are for you, and everyone is welcome there.

------------------------------------------------------------



  Date     :  20190817, Time     :  153150.729
  Time zero on CPU 1             :   0.336060000000000E-01  s.
  Internal wall clock time zero  :           335287910.729  s.

  FHI-aims created a unique identifier for this run for later identification
  aims_uuid : CD6F2168-61D8-450A-AC96-F4C86267923D

  Build configuration of the current instance of FHI-aims
  -------------------------------------------------------
  FHI-aims version      : 190813
  Commit number         : 3da7baeb3
  CMake host system     : Linux-4.4.180-94.97-default
  CMake version         : 3.5.2
  Fortran compiler      : /mpcdf/soft/SLE_12_SP3/packages/x86_64/intel_parallel_studio/2018.4/compilers_and_libraries_2018.5.274/linux/mpi/bin64/mpiifort (Intel) version 18.0.5.20180823
  Fortran compiler flags: -O3 -ip -fp-model precise
  C compiler            : /mpcdf/soft/SLE_12_SP3/packages/skylake/intel/18.0.5/bin/icc (Intel) version 18.0.5.20180823
  C compiler flags      : -O3 -ip -fp-model precise
  Architecture          :
  Using MPI
  Using Scalapack
  Using C files
  Using SPGlib
  Using i-PI
  Linking against: /mpcdf/soft/SLE_12_SP3/packages/x86_64/anaconda/3.5.1.0/lib/libmkl_intel_lp64.so
                   /mpcdf/soft/SLE_12_SP3/packages/x86_64/anaconda/3.5.1.0/lib/libmkl_sequential.so
                   /mpcdf/soft/SLE_12_SP3/packages/x86_64/anaconda/3.5.1.0/lib/libmkl_core.so
                   /mpcdf/soft/SLE_12_SP3/packages/x86_64/anaconda/3.5.1.0/lib/libmkl_blacs_intelmpi_lp64.so
                   /mpcdf/soft/SLE_12_SP3/packages/x86_64/anaconda/3.5.1.0/lib/libmkl_scalapack_lp64.so

  Using        8 parallel tasks.
  Task        0 on host co1631 reporting.
  Task        1 on host co1631 reporting.
  Task        2 on host co1631 reporting.
  Task        3 on host co1631 reporting.
  Task        4 on host co1631 reporting.
  Task        5 on host co1631 reporting.
  Task        6 on host co1631 reporting.
  Task        7 on host co1631 reporting.

  Performing system and environment tests:
  | Environment variable OMP_NUM_THREADS correctly set to 1.
  | Maximum stacksize for task 0: unlimited
  | Maximum stacksize for task 1: unlimited
  | Maximum stacksize for task 2: unlimited
  | Maximum stacksize for task 3: unlimited
  | Maximum stacksize for task 4: unlimited
  | Maximum stacksize for task 5: unlimited
  | Maximum stacksize for task 6: unlimited
  | Maximum stacksize for task 7: unlimited
  | Current stacksize for task 0: unlimited
  | Current stacksize for task 1: unlimited
  | Current stacksize for task 2: unlimited
  | Current stacksize for task 3: unlimited
  | Current stacksize for task 4: unlimited
  | Current stacksize for task 5: unlimited
  | Current stacksize for task 6: unlimited
  | Current stacksize for task 7: unlimited
  | Checking for scalapack...
  | Testing pdtran()...
  | All pdtran() tests passed.

  Obtaining array dimensions for all initial allocations:
  
  -----------------------------------------------------------------------
  Parsing control.in (first pass over file, find array dimensions only).
  The contents of control.in will be repeated verbatim below
  unless switched off by setting 'verbatim_writeout .false.' .
  in the first line of control.in .
  -----------------------------------------------------------------------
  
  #
   xc pbe
  # Just to test the ill-conditioned code path
   basis_threshold 1.d-3
   override_illconditioning .true.
  #
  ################################################################################
  #
  #  Modified "light" defaults for H atom (for this test only)
  #
  ################################################################################
    species        H
  #     global species definitions
      nucleus             1
      mass                1.00794
  #
      l_hartree           4
  #
      cut_pot             3.5  1.5  1.0
      basis_dep_cutoff    1e-4
  #
      radial_base         24 5.0
      radial_multiplier   1
      angular_grids       specified
        division   0.2421   50
        division   0.3822  110
        division   0.4799  194
        division   0.5341  302
  #      division   0.5626  434
  #      division   0.5922  590
  #      division   0.6542  770
  #      division   0.6868 1202
  #      outer_grid  770
        outer_grid  302
  ################################################################################
  #
  #  Definition of "minimal" basis
  #
  ################################################################################
  #     valence basis states
      valence      1  s   1.
  #     ion occupancy
      ion_occ      1  s   0.5
  ################################################################################
  #
  #  Suggested additional basis functions. For production calculations,
  #  uncomment them one after another (the most important basis functions are
  #  listed first).
  #
  #  Basis constructed for dimers: 0.5 A, 0.7 A, 1.0 A, 1.5 A, 2.5 A
  #
  ################################################################################
  #  "First tier" - improvements: -1014.90 meV to -62.69 meV
       hydro 2 s 2.1
       hydro 2 p 3.5
  #  "Second tier" - improvements: -12.89 meV to -1.83 meV
       hydro 1 s 0.85
       hydro 2 p 3.7
       hydro 2 s 1.2
       hydro 3 d 7
  #  "Third tier" - improvements: -0.25 meV to -0.12 meV
  #     hydro 4 f 11.2
  #     hydro 3 p 4.8
  #     hydro 4 d 9
  #     hydro 3 s 3.2
  ################################################################################
  #
  #  Modified "light" defaults for O atom (for this test only)
  #
  ################################################################################
    species        O
  #     global species definitions
      nucleus             8
      mass                15.9994
  #
      l_hartree           4
  #
      cut_pot             3.5  1.5  1.0
      basis_dep_cutoff    1e-4
  #
      radial_base         36 5.0
      radial_multiplier   1
       angular_grids specified
        division   0.2659   50
        division   0.4451  110
        division   0.6052  194
        division   0.7543  302
  #      division   0.8014  434
  #      division   0.8507  590
  #      division   0.8762  770
  #      division   0.9023  974
  #      division   1.2339 1202
  #      outer_grid 974
        outer_grid 302
  ################################################################################
  #
  #  Definition of "minimal" basis
  #
  ################################################################################
  #     valence basis states
      valence      2  s   2.
      valence      2  p   4.
  #     ion occupancy
      ion_occ      2  s   1.
      ion_occ      2  p   3.
  ################################################################################
  #
  #  Suggested additional basis functions. For production calculations,
  #  uncomment them one after another (the most important basis functions are
  #  listed first).
  #
  #  Constructed for dimers: 1.0 A, 1.208 A, 1.5 A, 2.0 A, 3.0 A
  #
  ################################################################################
  #  "First tier" - improvements: -699.05 meV to -159.38 meV
       hydro 2 p 1.8
       hydro 3 d 7.6
       hydro 3 s 6.4
  #  "Second tier" - improvements: -49.91 meV to -5.39 meV
       hydro 4 f 11.6
       hydro 3 p 6.2
       hydro 3 d 5.6
       hydro 5 g 17.6
       hydro 1 s 0.75
  #  "Third tier" - improvements: -2.83 meV to -0.50 meV
  #     ionic 2 p auto
  #     hydro 4 f 10.8
  #     hydro 4 d 4.7
  #     hydro 2 s 6.8
  #  "Fourth tier" - improvements: -0.40 meV to -0.12 meV
  #     hydro 3 p 5
  #     hydro 3 s 3.3
  #     hydro 5 g 15.6
  #     hydro 4 f 17.6
  #     hydro 4 d 14
  #  Further basis functions - -0.08 meV and below
  #     hydro 3 s 2.1
  #     hydro 4 d 11.6
  #     hydro 3 p 16
  #     hydro 2 s 17.2
  
  -----------------------------------------------------------------------
  Completed first pass over input file control.in .
  -----------------------------------------------------------------------
  
  
  -----------------------------------------------------------------------
  Parsing geometry.in (first pass over file, find array dimensions only).
  The contents of geometry.in will be repeated verbatim below
  unless switched off by setting 'verbatim_writeout .false.' .
  in the first line of geometry.in .
  -----------------------------------------------------------------------
  
  atom  0.00000  0.00000  0.00000  O
  atom -0.96000  0.00000  0.00000  H
  atom  0.32046 -0.90494  0.00000  H
  
  -----------------------------------------------------------------------
  Completed first pass over input file geometry.in .
  -----------------------------------------------------------------------
  

  Basic array size parameters:
  | Number of species                 :        2
  | Number of atoms                   :        3
  | Max. basis fn. angular momentum   :        4
  | Max. atomic/ionic basis occupied n:        2
  | Max. number of basis fn. types    :        2
  | Max. radial fns per species/type  :        8
  | Max. logarithmic grid size        :     1301
  | Max. radial integration grid size :       36
  | Max. angular integration grid size:      302
  | Max. angular grid division number :        8
  | Radial grid for Hartree potential :     1301
  | Number of spin channels           :        1

------------------------------------------------------------
          Reading file control.in.
------------------------------------------------------------
  XC: Using PBE gradient-corrected functionals.
  Threshold for basis singularities:  0.1000E-02
  override_illconditioning: Explicitly overriding any built-in checks for an ill-conditioned overlap matrix.
  *** WARNING: If you use this flag, you should really know what you are doing.
  *** DO NOT keep this flag set by default in all your control.in files.
 
  Reading configuration options for species H                   .
  | Found nuclear charge :   1.0000
  | Found atomic mass :    1.00794000000000      amu
  | Found l_max for Hartree potential  :   4
  | Found cutoff potl. onset [A], width [A], scale factor :    3.50000    1.50000    1.00000
  | Threshold for basis-dependent cutoff potential is   0.100000E-03
  | Found data for basic radial integration grid :    24 points, outermost radius =    5.000 A
  | Found multiplier for basic radial grid :   1
  | Found angular grid specification: user-specified.
  | Specified grid contains     5 separate shells.
  | Check grid settings after all constraints further below.
  | Found free-atom valence shell :  1 s   1.000
  | No ionic wave fns used. Skipping ion_occ.
  | Found hydrogenic basis function :  2 s   2.100
  | Found hydrogenic basis function :  2 p   3.500
  | Found hydrogenic basis function :  1 s   0.850
  | Found hydrogenic basis function :  2 p   3.700
  | Found hydrogenic basis function :  2 s   1.200
  | Found hydrogenic basis function :  3 d   7.000
  Species H                   : Missing cutoff potential type.
  Defaulting to exp(1/x)/(1-x)^2 type cutoff potential.
  Species H : No 'logarithmic' tag. Using default grid for free atom:
  | Default logarithmic grid data [bohr] : 0.1000E-03 0.1000E+03 0.1012E+01
  Species H : On-site basis accuracy parameter (for Gram-Schmidt orthonormalisation) not specified.
  Using default value basis_acc =  0.1000000E-03.
  Species H                   : Using default innermost maximum threshold i_radial=  2 for radial functions.
  Species H                   : Default cutoff onset for free atom density etc. : 0.35000000E+01 AA.
  Species H                   : Basic radial grid will be enhanced according to radial_multiplier =   1, to contain    24 grid points.
 
  Reading configuration options for species O                   .
  | Found nuclear charge :   8.0000
  | Found atomic mass :    15.9994000000000      amu
  | Found l_max for Hartree potential  :   4
  | Found cutoff potl. onset [A], width [A], scale factor :    3.50000    1.50000    1.00000
  | Threshold for basis-dependent cutoff potential is   0.100000E-03
  | Found data for basic radial integration grid :    36 points, outermost radius =    5.000 A
  | Found multiplier for basic radial grid :   1
  | Found angular grid specification: user-specified.
  | Specified grid contains     5 separate shells.
  | Check grid settings after all constraints further below.
  | Found free-atom valence shell :  2 s   2.000
  | Found free-atom valence shell :  2 p   4.000
  | No ionic wave fns used. Skipping ion_occ.
  | No ionic wave fns used. Skipping ion_occ.
  | Found hydrogenic basis function :  2 p   1.800
  | Found hydrogenic basis function :  3 d   7.600
  | Found hydrogenic basis function :  3 s   6.400
  | Found hydrogenic basis function :  4 f  11.600
  | Found hydrogenic basis function :  3 p   6.200
  | Found hydrogenic basis function :  3 d   5.600
  | Found hydrogenic basis function :  5 g  17.600
  | Found hydrogenic basis function :  1 s   0.750
  Species O                   : Missing cutoff potential type.
  Defaulting to exp(1/x)/(1-x)^2 type cutoff potential.
  Species O : No 'logarithmic' tag. Using default grid for free atom:
  | Default logarithmic grid data [bohr] : 0.1000E-03 0.1000E+03 0.1012E+01
  Species O : On-site basis accuracy parameter (for Gram-Schmidt orthonormalisation) not specified.
  Using default value basis_acc =  0.1000000E-03.
  Species O                   : Using default innermost maximum threshold i_radial=  2 for radial functions.
  Species O                   : Default cutoff onset for free atom density etc. : 0.35000000E+01 AA.
  Species O                   : Basic radial grid will be enhanced according to radial_multiplier =   1, to contain    36 grid points.
 
  Finished reading input file 'control.in'. Consistency checks are next.
 
  MPI_IN_PLACE appears to work with this MPI implementation.
  | Keeping use_mpi_in_place .true. (see manual).
  Target number of points in a grid batch is not set. Defaulting to  100
  Method for grid partitioning is not set. Defaulting to parallel hash+maxmin partitioning.
  Batch size limit is not set. Defaulting to    200
  By default, will store active basis functions for each batch.
  If in need of memory, prune_basis_once .false. can be used to disable this option.
  communication_type for Hartree potential was not specified.
  Defaulting to calc_hartree .
  Defaulting to Pulay charge density mixer.
  Pulay mixer: Number of relevant iterations not set.
  Defaulting to    8 iterations.
  Pulay mixer: Number of initial linear mixing iterations not set.
  Defaulting to    0 iterations.
  Work space size for distributed Hartree potential not set.
  Defaulting to   0.200000E+03 MB.
  Mixing parameter for charge density mixing has not been set.
  Using default: charge_mix_param =     0.0500.
  The mixing parameter will be adjusted in iteration number     2 of the first full s.c.f. cycle only.
  Algorithm-dependent basis array size parameters:
  | n_max_pulay                         :        8
 * Notice: The s.c.f. convergence criterion sc_accuracy_rho was not provided.
 * We used to stop in this case, and ask the user to provide reasonable
 * scf convergence criteria. However, this led some users to employ criteria
 * that led to extremely long run times, e.g., for simple relaxation.
 * We now preset a default value for sc_accuracy_rho if it is not set.
 * You may still wish to check if this setting is too tight or too loose for your needs.
 * Based on n_atoms, FHI-aims chose sc_accuracy_rho =  0.100000E-05 .
  Maximum number of self-consistency iterations not provided.
  Presetting  1000 iterations.
  Presetting      1001 iterations before the initial mixing cycle
  is restarted anyway using the sc_init_iter criterion / keyword.
  Presetting a factor      1.000 between actual scf density residual
  and density convergence criterion sc_accuracy_rho below which sc_init_iter
  takes no effect.
 * No s.c.f. convergence criteria (sc_accuracy_*) were provided in control.in.
 * The run will proceed with a reasonable default guess, but please check whether.
 * the s.c.f. cycles seem to take too much or too little time.
  Calculation of forces was not defined in control.in. No forces will be calculated.
  Geometry relaxation not requested: no relaxation will be performed.
  No accuracy limit for integral partition fn. given. Defaulting to  0.1000E-14.
  No threshold value for u(r) in integrations given. Defaulting to  0.1000E-05.
  No occupation type (smearing scheme) given. Defaulting to Gaussian broadening, width =  0.1000E-01 eV.
  The width will be adjusted in iteration number     2 of the first full s.c.f. cycle only.
  S.C.F. convergence parameters will be adjusted in iteration number     2 of the first full s.c.f. cycle only.
  No accuracy for occupation numbers given. Defaulting to  0.1000E-12.
  No threshold value for occupation numbers given. Defaulting to  0.0000E+00.
  No accuracy for fermi level given. Defaulting to  0.1000E-19.
  Maximum # of iterations to find E_F not set. Defaulting to  200.
  Preferred method for the eigenvalue solver ('KS_method') not specified in 'control.in'.
  Calling BLACS routine to test compilation state
  Since ScaLAPACK support is enabled, defaulting to ELPA (via ELSI).
  Will not use alltoall communication since running on < 1024 CPUs.
  partition_type (choice of integration weights) for integrals was not specified.
  | Using a version of the partition function of Stratmann and coworkers ('stratmann_sparse').
  | At each grid point, the set of atoms used to build the partition table is smoothly restricted to
  | only those atoms whose free-atom density would be non-zero at that grid point.
  Partitioning for Hartree potential was not defined. Using partition_type for integrals.
  | Adjusted default value of keyword multip_moments_threshold to:       0.10000000E-11
  | This value may affect high angular momentum components of the Hartree potential in periodic systems.
  Spin handling was not defined in control.in. Defaulting to unpolarized case.
  No q(lm)/r^(l+1) cutoff set for long-range Hartree potential.
  | Using default value of  0.100000E-09 .
  | Verify using the multipole_threshold keyword.
  Defaulting to new monopole extrapolation.
  Density update method: automatic selection selected.
  Charge integration errors on the 3D integration grid will be compensated
  by explicit normalization and distribution of residual charges.
  Use the "compensate_multipole_errors" flag to change this behaviour.
------------------------------------------------------------


------------------------------------------------------------
          Reading geometry description geometry.in.
------------------------------------------------------------
 * Warning! You did not set the 'relativistic' flag in input file 'control.in'.
 * Since you are not attempting to treat any elements beyond Ca(Z=20), FHI-aims
 * will default to 'relativistic none'.
 * You must ensure that this is really what you want!!
 * For example, DO NOT compute total-energy differences between results from
 * different settings of the 'relativistic' flag.
  Input structure read successfully.
  The structure contains        3 atoms,  and a total of         10.000 electrons.

  Input geometry:
  | No unit cell requested.
  | Atomic structure:
  |       Atom                x [A]            y [A]            z [A]
  |    1: Species O             0.00000000        0.00000000        0.00000000
  |    2: Species H            -0.96000000        0.00000000        0.00000000
  |    3: Species H             0.32046000       -0.90494000        0.00000000
  | The smallest distance between any two atoms is         0.96000000 AA.
  | The first atom of this pair is atom number                      1 .
  | The second atom of this pair is atom number                     2 .

  Number of empty states per atom not set in control.in - providing a guess from actual geometry.
  | Total number of empty states used during s.c.f. cycle:        6
  If you use a very high smearing, use empty_states (per atom!) in control.in to increase this value.

  Structure-dependent array size parameters: 
  | Maximum number of distinct radial functions  :       18
  | Maximum number of basis functions            :       69
  | Number of Kohn-Sham states (occupied + empty):       11
------------------------------------------------------------

------------------------------------------------------------
          Preparing all fixed parts of the calculation.
------------------------------------------------------------
  Determining machine precision:
    2.225073858507201E-308
  Setting up grids for atomic and cluster calculations.

  Creating wave function, potential, and density for free atoms.

  Species: H

  List of occupied orbitals and eigenvalues:
    n    l              occ      energy [Ha]    energy [eV]
    1    0           1.0000        -0.237589        -6.4651


  Species: O

  List of occupied orbitals and eigenvalues:
    n    l              occ      energy [Ha]    energy [eV]
    1    0           2.0000       -18.898188      -514.2459
    2    0           2.0000        -0.878505       -23.9053
    2    1           4.0000        -0.331779        -9.0282

  Creating fixed part of basis set: Ionic, confined, hydrogenic.
 
  H                    hydrogenic:
 
  List of hydrogenic basis orbitals: 
    n    l      effective z      eigenvalue [eV]  inner max. [A]     outer max. [A]     outer radius [A]   
    2    0         2.100000       -14.9728           0.193243           1.317208           4.583499
    2    1         3.500000       -41.6669           0.602369           0.602369           3.723403
    1    0         0.850000        -9.8241           0.624871           0.624871           4.527807
    2    1         3.700000       -46.5650           0.573622           0.573622           3.589321
    2    0         1.200000        -4.1356           0.334980           2.121851           4.639876
    3    2         7.000000       -74.0751           0.680699           0.680699           3.460068
 
 
  O                    hydrogenic:
 
  List of hydrogenic basis orbitals: 
    n    l      effective z      eigenvalue [eV]  inner max. [A]     outer max. [A]     outer radius [A]   
    2    1         1.800000       -10.9749           1.164242           1.164242           4.578029
    3    2         7.600000       -87.3180           0.624125           0.624125           3.251020
    3    0         6.400000       -61.9207           0.061167           1.081902           4.001998
    4    3        11.600000      -114.4236           0.731631           0.731631           3.291008
    3    1         6.200000       -58.1110           0.255680           1.030270           4.001998
    3    2         5.600000       -47.4078           0.847233           0.847233           4.051222
    5    4        17.600000      -168.5798           0.749740           0.749740           3.095870
    1    0         0.750000        -7.6368           0.705284           0.705284           4.578029
 

  Adding cutoff potential to free-atom effective potential.
  Creating atomic-like basis functions for current effective potential.

  Species H                   :

  List of atomic basis orbitals and eigenvalues:
    n    l      energy [Ha]    energy [eV]    outer radius [A]
    1    0        -0.237589        -6.4651       4.527807


  Species O                   :

  List of atomic basis orbitals and eigenvalues:
    n    l      energy [Ha]    energy [eV]    outer radius [A]
    1    0       -18.898188      -514.2459       1.415765
    2    0        -0.878505       -23.9053       4.413171
    2    1        -0.331779        -9.0282       4.522403

  Assembling full basis from fixed parts.
  | Species H :   atomic orbital   1 s accepted.
  | Species H :    hydro orbital   1 s accepted.
  | Species H :    hydro orbital   2 s accepted.
  | Species H :    hydro orbital   2 s accepted.
  | Species H :    hydro orbital   2 p accepted.
  | Species H :    hydro orbital   2 p accepted.
  | Species H :    hydro orbital   3 d accepted.
  | Species O :   atomic orbital   1 s accepted.
  | Species O :    hydro orbital   3 s accepted.
  | Species O :   atomic orbital   2 s accepted.
  | Species O :    hydro orbital   1 s accepted.
  | Species O :    hydro orbital   3 p accepted.
  | Species O :   atomic orbital   2 p accepted.
  | Species O :    hydro orbital   2 p accepted.
  | Species O :    hydro orbital   3 d accepted.
  | Species O :    hydro orbital   3 d accepted.
  | Species O :    hydro orbital   4 f accepted.
  | Species O :    hydro orbital   5 g accepted.
 
  Basis size parameters after reduction:
  | Total number of radial functions:       18
  | Total number of basis functions :       69
 
  Per-task memory consumption for arrays in subroutine allocate_ext:
  |           4.499020MB.
  Testing on-site integration grid accuracy.
  |  Species  Function  <phi|h_atom|phi> (log., in eV)  <phi|h_atom|phi> (rad., in eV)
           1        1                 -6.4663192853                 -6.4651273558
           1        2                 19.8761974083                 19.8780232214
           1        3                 29.6595692998                 29.7113348456 ***
           1        4                 44.1948923085                 44.6016499245 ***
           1        5                 28.8772437864                 28.8771181360
           1        6                 59.6350694609                 59.6729352502 ***
           1        7                 60.2932821694                 60.2931714086
           2        8               -514.2458688638               -514.2457643834
           2        9                 15.1795651126                 15.1795290741
           2       10                -21.5359799773                -21.5360846185
           2       11                 15.7086056296                 15.6322522523 ***
           2       12                 20.8958001590                 20.8959549546
           2       13                 -2.4779366325                 -2.4784809260
           2       14                 15.0653426425                 14.9892907367 ***
           2       15                 45.8339351984                 45.8338762260
           2       16                 52.1632076210                 52.1667901920
           2       17                 85.4166947573                 85.4166424075
           2       18                142.1072510147                142.1072740677
 * Note: Onsite integrals marked "***" above are less accurate than
 * onsite_accuracy_threshold =    0.03000 eV. Usually, this is harmless.
 * When in doubt, tighten the "radial" and/or "radial_multiplier" flags to check.

  Preparing densities etc. for the partition functions (integrals / Hartree potential).

  Preparations completed.
  max(cpu_time)          :      0.101 s.
  Wall clock time (cpu1) :      0.101 s.
------------------------------------------------------------

------------------------------------------------------------
          Begin self-consistency loop: Initialization.

          Date     :  20190817, Time     :  153150.877
------------------------------------------------------------

  Initializing index lists of integration centers etc. from given atomic structure:
  | Number of centers in hartree potential         :         3
  | Number of centers in hartree multipole         :         3
  | Number of centers in electron density summation:         3
  | Number of centers in basis integrals           :         3
  | Number of centers in integrals                 :         3
  | Number of centers in hamiltonian               :         3
  * Using 8 tasks for Scalapack Eigenvalue solver.
  Detailed listing of tasks and assigned k-points:
  (for non-periodic systems, the "k-point" denotes an internal label only)
   Task     0 k-point     1 on co1631
   Task     1 k-point     1 on co1631
   Task     2 k-point     1 on co1631
   Task     3 k-point     1 on co1631
   Task     4 k-point     1 on co1631
   Task     5 k-point     1 on co1631
   Task     6 k-point     1 on co1631
   Task     7 k-point     1 on co1631
  Tasks:     8 split into      4 X      2 BLACS grid
  Calculating block size based on n_basis =           69  max_nprow =            4  max_npcol =            2
  ScaLAPACK block size set to:           16
  Allocating        0.006 MB for ovlp
  Allocating        0.006 MB for ham
  Allocating        0.006 MB for eigenvec
  Required Scalapack workspace - INTEGER:            1  REAL:             1
  Partitioning the integration grid into batches with parallel hashing+maxmin method.
  | Number of batches:      224
  | Maximal batch size:      86
  | Minimal batch size:      58
  | Average batch size:      71.089
  | Standard deviation of batch sizes:       7.380

  Integration load balanced across     8 MPI tasks.
  Work distribution over tasks is as follows:
  Task     0 has       2027 integration points.
  Task     1 has       1980 integration points.
  Task     2 has       1993 integration points.
  Task     3 has       1991 integration points.
  Task     4 has       1979 integration points.
  Task     5 has       2001 integration points.
  Task     6 has       2000 integration points.
  Task     7 has       1953 integration points.
  Initializing partition tables, free-atom densities, potentials, etc. across the integration grid (initialize_grid_storage).
  | initialize_grid_storage: Actual outermost partition radius vs. multipole_radius_free
  | (-- VB: in principle, multipole_radius_free should be larger, hence this output)
  | Species        1: Confinement radius =              4.999999999999999 AA, multipole_radius_free =              5.054417573612229 AA.
  | Species        1: outer_partition_radius set to              5.054417573612229 AA .
  | Species        2: Confinement radius =              4.999999999999999 AA, multipole_radius_free =              5.048384829883283 AA.
  | Species        2: outer_partition_radius set to              5.048384829883283 AA .
  | The sparse table of interatomic distances needs          0.09 kbyte instead of         0.07 kbyte of memory.
  | Using the partition_type stratmann_smoother will reduce your memory usage.
  | Net number of integration points:    15924
  | of which are non-zero points    :    14498
  Renormalizing the initial density to the exact electron count on the 3D integration grid.
  | Initial density: Formal number of electrons (from input files) :      10.0000000000
  | Integrated number of electrons on 3D grid     :       9.9999469282
  | Charge integration error                      :      -0.0000530718
  | Normalization factor for density and gradient :       1.0000053072
  Renormalizing the free-atom superposition density to the exact electron count on the 3D integration grid.
  | Formal number of electrons (from input files) :      10.0000000000
  | Integrated number of electrons on 3D grid     :       9.9999469282
  | Charge integration error                      :      -0.0000530718
  | Normalization factor for density and gradient :       1.0000053072
  Obtaining max. number of non-zero basis functions in each batch (get_n_compute_maxes).
  | Maximal number of non-zero basis functions:       69 in task     0
  | Maximal number of non-zero basis functions:       69 in task     1
  | Maximal number of non-zero basis functions:       69 in task     2
  | Maximal number of non-zero basis functions:       69 in task     3
  | Maximal number of non-zero basis functions:       69 in task     4
  | Maximal number of non-zero basis functions:       69 in task     5
  | Maximal number of non-zero basis functions:       69 in task     6
  | Maximal number of non-zero basis functions:       69 in task     7
  Selecting the method for density update.
  Loop over occupied states selected for charge density update.
  Allocating        0.006 MB for KS_eigenvector
  Integrating Hamiltonian matrix: batch-based integration.
  Time summed over all CPUs for integration: real work        0.057 s, elapsed        0.063 s
  Integrating overlap matrix.
  Time summed over all CPUs for integration: real work        0.020 s, elapsed        0.022 s
  Deallocating overlap matrix.

  Updating Kohn-Sham eigenvalues and eigenvectors using ELSI and the ELPA eigensolver.
  Overlap matrix is singular
  | Lowest and highest eigenvalues :  0.2451E-03,  0.2961E+01
  | Number of basis functions reduced to :        67
  Finished singularity check of overlap matrix
  | Time :     0.004 s
  Starting ELPA eigensolver
  Finished transformation to standard eigenproblem
  | Time :     0.003 s
  Finished solving standard eigenproblem
  | Time :     0.001 s
  Finished back-transformation of eigenvectors
  | Time :     0.000 s

  The overlap matrix is singular
  The lowest eigenvalue of the overlap matrix  0.2451E-03 is below the prescribed threshold  0.1000E-02

  Obtaining occupation numbers and chemical potential using ELSI.
  | Chemical potential (Fermi level):   -11.83726735 eV
  Writing Kohn-Sham eigenvalues.

  State    Occupation    Eigenvalue [Ha]    Eigenvalue [eV]
      1       2.00000         -19.007393         -517.21747
      2       2.00000          -1.098778          -29.89926
      3       2.00000          -0.642381          -17.48009
      4       2.00000          -0.504086          -13.71689
      5       2.00000          -0.439024          -11.94646
      6       0.00000          -0.057260           -1.55812
      7       0.00000           0.013991            0.38071
      8       0.00000           0.128446            3.49520
      9       0.00000           0.134296            3.65437
     10       0.00000           0.152317            4.14476
     11       0.00000           0.164097            4.46532

  Highest occupied state (VBM) at    -11.94646213 eV
  | Occupation number:      2.00000000

  Lowest unoccupied state (CBM) at    -1.55811712 eV
  | Occupation number:      0.00000000

  Overall HOMO-LUMO gap:     10.38834501 eV.
  Calculating total energy contributions from superposition of free atom densities.

  Total energy components:
  | Sum of eigenvalues            :         -43.38332439 Ha       -1180.52032096 eV
  | XC energy correction          :          -9.01752310 Ha        -245.37928830 eV
  | XC potential correction       :          11.59473636 Ha         315.50882924 eV
  | Free-atom electrostatic energy:         -35.65686294 Ha        -970.27260761 eV
  | Hartree energy correction     :           0.00000000 Ha           0.00000000 eV
  | Entropy correction            :          -0.00000000 Ha          -0.00000000 eV
  | ---------------------------
  | Total energy                  :         -76.46297408 Ha       -2080.66338763 eV
  | Total energy, T -> 0          :         -76.46297408 Ha       -2080.66338763 eV  <-- do not rely on this value for anything but (periodic) metals
  | Electronic free energy        :         -76.46297408 Ha       -2080.66338763 eV

  Derived energy quantities:
  | Kinetic energy                :          75.53072509 Ha        2055.29560194 eV
  | Electrostatic energy          :        -142.97617607 Ha       -3890.57970126 eV
  | Energy correction for multipole
  | error in Hartree potential    :           0.00000000 Ha           0.00000000 eV
  | Sum of eigenvalues per atom                           :        -393.50677365 eV
  | Total energy (T->0) per atom                          :        -693.55446254 eV  <-- do not rely on this value for anything but (periodic) metals
  | Electronic free energy per atom                       :        -693.55446254 eV
  Initialize hartree_potential_storage
  Max. number of atoms included in rho_multipole:            3

  End scf initialization - timings             :  max(cpu_time)    wall_clock(cpu1)
  | Time for scf. initialization               :        0.032 s           0.032 s
  | Boundary condition initialization          :        0.000 s           0.000 s
  | Integration                                :        0.011 s           0.012 s
  | Solution of K.-S. eqns.                    :        0.008 s           0.008 s
  | Grid partitioning                          :        0.005 s           0.004 s
  | Preloading free-atom quantities on grid    :        0.002 s           0.001 s
  | Free-atom superposition energy             :        0.002 s           0.002 s
  | Total energy evaluation                    :        0.000 s           0.000 s

  Partial memory accounting:
  | Current value for overall tracked memory usage:
  |   Minimum:        0.037 MB (on task 3)
  |   Maximum:        0.043 MB (on task 0)
  |   Average:        0.039 MB
  | Peak value for overall tracked memory usage:
  |   Minimum:        0.229 MB (on task 3 after allocating wave)
  |   Maximum:        0.235 MB (on task 0 after allocating wave)
  |   Average:        0.231 MB
  | Largest tracked array allocation so far:
  |   Minimum:        0.045 MB (H_times_psi on task 0)
  |   Maximum:        0.061 MB (all_coords on task 3)
  |   Average:        0.051 MB
  Note:  These values currently only include a subset of arrays which are explicitly tracked.
  The "true" memory usage will be greater.
------------------------------------------------------------

------------------------------------------------------------
          Begin self-consistency iteration #    1

  Date     :  20190817, Time     :  153150.910
------------------------------------------------------------
  Evaluating new KS density.
  Integration grid: deviation in total charge (<rho> - N_e) =   0.000000E+00
  Pulay mixing of updated and previous charge densities.
  Renormalizing the density to the exact electron count on the 3D integration grid.
  | Formal number of electrons (from input files) :      10.0000000000
  | Integrated number of electrons on 3D grid     :      10.0000000000
  | Charge integration error                      :      -0.0000000000
  | Normalization factor for density and gradient :       1.0000000000

  Evaluating partitioned Hartree potential by multipole expansion.
  | Original multipole sum: apparent total charge =   0.983910E-16
  | Sum of charges compensated after spline to logarithmic grids =   0.123745E-04
  | Analytical far-field extrapolation by fixed multipoles:
  | Hartree multipole sum: apparent total charge =   0.175259E-15
  Summing up the Hartree potential.
  Time summed over all CPUs for potential: real work        0.026 s, elapsed        0.028 s
  | RMS charge density error from multipole expansion :   0.392184E-03

  Integrating Hamiltonian matrix: batch-based integration.
  Time summed over all CPUs for integration: real work        0.055 s, elapsed        0.059 s

  Updating Kohn-Sham eigenvalues and eigenvectors using ELSI and the ELPA eigensolver.
  Starting ELPA eigensolver
  Finished transformation to standard eigenproblem
  | Time :     0.000 s
  Finished solving standard eigenproblem
  | Time :     0.001 s
  Finished back-transformation of eigenvectors
  | Time :     0.000 s

  Obtaining occupation numbers and chemical potential using ELSI.
  | Chemical potential (Fermi level):    -3.58327281 eV
  Writing Kohn-Sham eigenvalues.

  State    Occupation    Eigenvalue [Ha]    Eigenvalue [eV]
      1       2.00000         -18.967230         -516.12458
      2       2.00000          -1.079149          -29.36514
      3       2.00000          -0.625326          -17.01600
      4       2.00000          -0.483963          -13.16931
      5       2.00000          -0.418295          -11.38239
      6       0.00000          -0.053546           -1.45705
      7       0.00000           0.018013            0.49015
      8       0.00000           0.133790            3.64061
      9       0.00000           0.138935            3.78061
     10       0.00000           0.156403            4.25595
     11       0.00000           0.167294            4.55230

  Highest occupied state (VBM) at    -11.38238773 eV
  | Occupation number:      2.00000000

  Lowest unoccupied state (CBM) at    -1.45705299 eV
  | Occupation number:      0.00000000

  Overall HOMO-LUMO gap:      9.92533474 eV.

  Total energy components:
  | Sum of eigenvalues            :         -43.14792727 Ha       -1174.11483940 eV
  | XC energy correction          :          -9.04397636 Ha        -246.09911803 eV
  | XC potential correction       :          11.62938199 Ha         316.45158492 eV
  | Free-atom electrostatic energy:         -35.65686294 Ha        -970.27260761 eV
  | Hartree energy correction     :          -0.22562264 Ha          -6.13950442 eV
  | Entropy correction            :           0.00000000 Ha           0.00000000 eV
  | ---------------------------
  | Total energy                  :         -76.44500722 Ha       -2080.17448454 eV
  | Total energy, T -> 0          :         -76.44500722 Ha       -2080.17448454 eV  <-- do not rely on this value for anything but (periodic) metals
  | Electronic free energy        :         -76.44500722 Ha       -2080.17448454 eV

  Derived energy quantities:
  | Kinetic energy                :          75.69310091 Ha        2059.71407285 eV
  | Electrostatic energy          :        -143.09413177 Ha       -3893.78943936 eV
  | Energy correction for multipole
  | error in Hartree potential    :           0.00016083 Ha           0.00437639 eV
  | Sum of eigenvalues per atom                           :        -391.37161313 eV
  | Total energy (T->0) per atom                          :        -693.39149485 eV  <-- do not rely on this value for anything but (periodic) metals
  | Electronic free energy per atom                       :        -693.39149485 eV

  Self-consistency convergence accuracy:
  | Change of charge density      :  0.3170E+00
  | Change of sum of eigenvalues  :  0.6405E+01 eV
  | Change of total energy        :  0.4889E+00 eV

  End self-consistency iteration #     1       :  max(cpu_time)    wall_clock(cpu1)
  | Time for this iteration                    :        0.021 s           0.020 s
  | Charge density update                      :        0.006 s           0.005 s
  | Density mixing                             :        0.000 s           0.000 s
  | Hartree multipole update                   :        0.001 s           0.002 s
  | Hartree multipole summation                :        0.004 s           0.004 s
  | Integration                                :        0.008 s           0.007 s
  | Solution of K.-S. eqns.                    :        0.002 s           0.002 s
  | Total energy evaluation                    :        0.000 s           0.000 s

  Partial memory accounting:
  | Current value for overall tracked memory usage:
  |   Minimum:        0.037 MB (on task 3)
  |   Maximum:        0.043 MB (on task 0)
  |   Average:        0.039 MB
  | Peak value for overall tracked memory usage:
  |   Minimum:        0.229 MB (on task 3 after allocating wave)
  |   Maximum:        0.235 MB (on task 0 after allocating wave)
  |   Average:        0.231 MB
  | Largest tracked array allocation so far:
  |   Minimum:        0.136 MB (gradient_basis_wave on task 0)
  |   Maximum:        0.136 MB (gradient_basis_wave on task 0)
  |   Average:        0.136 MB
  Note:  These values currently only include a subset of arrays which are explicitly tracked.
  The "true" memory usage will be greater.
------------------------------------------------------------

------------------------------------------------------------
          Begin self-consistency iteration #    2

  Date     :  20190817, Time     :  153150.930
------------------------------------------------------------
  Evaluating new KS density.
  Integration grid: deviation in total charge (<rho> - N_e) =   5.329071E-15
  Pulay mixing of updated and previous charge densities.
  Renormalizing the density to the exact electron count on the 3D integration grid.
  | Formal number of electrons (from input files) :      10.0000000000
  | Integrated number of electrons on 3D grid     :      10.0000000000
  | Charge integration error                      :       0.0000000000
  | Normalization factor for density and gradient :       1.0000000000

  Evaluating partitioned Hartree potential by multipole expansion.
  | Original multipole sum: apparent total charge =   0.728093E-14
  | Sum of charges compensated after spline to logarithmic grids =   0.871274E-04
  | Analytical far-field extrapolation by fixed multipoles:
  | Hartree multipole sum: apparent total charge =   0.696116E-14
  Summing up the Hartree potential.
  Time summed over all CPUs for potential: real work        0.027 s, elapsed        0.028 s
  | RMS charge density error from multipole expansion :   0.273093E-02

  Integrating Hamiltonian matrix: batch-based integration.
  Time summed over all CPUs for integration: real work        0.055 s, elapsed        0.058 s

  Updating Kohn-Sham eigenvalues and eigenvectors using ELSI and the ELPA eigensolver.
  Starting ELPA eigensolver
  Finished transformation to standard eigenproblem
  | Time :     0.000 s
  Finished solving standard eigenproblem
  | Time :     0.001 s
  Finished back-transformation of eigenvectors
  | Time :     0.000 s

  Obtaining occupation numbers and chemical potential using ELSI.
  | Chemical potential (Fermi level):    -2.92627631 eV
  Highest occupied state (VBM) at     -8.24829254 eV
  | Occupation number:      2.00000000

  Lowest unoccupied state (CBM) at    -0.87305529 eV
  | Occupation number:      0.00000000

  Overall HOMO-LUMO gap:      7.37523725 eV.

  Checking to see if s.c.f. parameters should be adjusted.
  The system likely has a gap. Increased the default Pulay mixing parameter (charge_mix_param). Value:   0.200000 .
  Kept the default occupation width. Value:   0.010000 eV.

  Total energy components:
  | Sum of eigenvalues            :         -41.83253291 Ha       -1138.32113766 eV
  | XC energy correction          :          -9.19908894 Ha        -250.31994612 eV
  | XC potential correction       :          11.83251402 Ha         321.97908855 eV
  | Free-atom electrostatic energy:         -35.65686294 Ha        -970.27260761 eV
  | Hartree energy correction     :          -1.53509480 Ha         -41.77205492 eV
  | Entropy correction            :           0.00000000 Ha           0.00000000 eV
  | ---------------------------
  | Total energy                  :         -76.39106558 Ha       -2078.70665776 eV
  | Total energy, T -> 0          :         -76.39106558 Ha       -2078.70665776 eV  <-- do not rely on this value for anything but (periodic) metals
  | Electronic free energy        :         -76.39106558 Ha       -2078.70665776 eV

  Derived energy quantities:
  | Kinetic energy                :          76.52085252 Ha        2082.23834018 eV
  | Electrostatic energy          :        -143.71282916 Ha       -3910.62505182 eV
  | Energy correction for multipole
  | error in Hartree potential    :           0.00082351 Ha           0.02240881 eV
  | Sum of eigenvalues per atom                           :        -379.44037922 eV
  | Total energy (T->0) per atom                          :        -692.90221925 eV  <-- do not rely on this value for anything but (periodic) metals
  | Electronic free energy per atom                       :        -692.90221925 eV

  Self-consistency convergence accuracy:
  | Change of charge density      :  0.2774E+00
  | Change of sum of eigenvalues  :  0.3579E+02 eV
  | Change of total energy        :  0.1468E+01 eV

  End self-consistency iteration #     2       :  max(cpu_time)    wall_clock(cpu1)
  | Time for this iteration                    :        0.020 s           0.020 s
  | Charge density update                      :        0.006 s           0.005 s
  | Density mixing                             :        0.001 s           0.001 s
  | Hartree multipole update                   :        0.001 s           0.000 s
  | Hartree multipole summation                :        0.004 s           0.004 s
  | Integration                                :        0.007 s           0.008 s
  | Solution of K.-S. eqns.                    :        0.002 s           0.001 s
  | Total energy evaluation                    :        0.000 s           0.000 s

  Partial memory accounting:
  | Current value for overall tracked memory usage:
  |   Minimum:        0.037 MB (on task 3)
  |   Maximum:        0.043 MB (on task 0)
  |   Average:        0.039 MB
  | Peak value for overall tracked memory usage:
  |   Minimum:        0.229 MB (on task 3 after allocating wave)
  |   Maximum:        0.235 MB (on task 0 after allocating wave)
  |   Average:        0.231 MB
  | Largest tracked array allocation so far:
  |   Minimum:        0.136 MB (gradient_basis_wave on task 0)
  |   Maximum:        0.136 MB (gradient_basis_wave on task 0)
  |   Average:        0.136 MB
  Note:  These values currently only include a subset of arrays which are explicitly tracked.
  The "true" memory usage will be greater.
------------------------------------------------------------

------------------------------------------------------------
          Begin self-consistency iteration #    3

  Date     :  20190817, Time     :  153150.951
------------------------------------------------------------
  Evaluating new KS density.
  Integration grid: deviation in total charge (<rho> - N_e) =  -5.329071E-15
  Pulay mixing of updated and previous charge densities.
  Renormalizing the density to the exact electron count on the 3D integration grid.
  | Formal number of electrons (from input files) :      10.0000000000
  | Integrated number of electrons on 3D grid     :      10.0000000000
  | Charge integration error                      :      -0.0000000000
  | Normalization factor for density and gradient :       1.0000000000

  Evaluating partitioned Hartree potential by multipole expansion.
  | Original multipole sum: apparent total charge =   0.639541E-14
  | Sum of charges compensated after spline to logarithmic grids =   0.848375E-04
  | Analytical far-field extrapolation by fixed multipoles:
  | Hartree multipole sum: apparent total charge =   0.590346E-14
  Summing up the Hartree potential.
  Time summed over all CPUs for potential: real work        0.027 s, elapsed        0.028 s
  | RMS charge density error from multipole expansion :   0.411483E-02

  Integrating Hamiltonian matrix: batch-based integration.
  Time summed over all CPUs for integration: real work        0.055 s, elapsed        0.063 s

  Updating Kohn-Sham eigenvalues and eigenvectors using ELSI and the ELPA eigensolver.
  Starting ELPA eigensolver
  Finished transformation to standard eigenproblem
  | Time :     0.001 s
  Finished solving standard eigenproblem
  | Time :     0.000 s
  Finished back-transformation of eigenvectors
  | Time :     0.000 s

  Obtaining occupation numbers and chemical potential using ELSI.
  | Chemical potential (Fermi level):    -2.98184176 eV
  Highest occupied state (VBM) at     -8.92000604 eV
  | Occupation number:      2.00000000

  Lowest unoccupied state (CBM) at    -0.91813567 eV
  | Occupation number:      0.00000000

  Overall HOMO-LUMO gap:      8.00187037 eV.

  Total energy components:
  | Sum of eigenvalues            :         -42.19375451 Ha       -1148.15047761 eV
  | XC energy correction          :          -9.15511306 Ha        -249.12330162 eV
  | XC potential correction       :          11.77443899 Ha         320.39878650 eV
  | Free-atom electrostatic energy:         -35.65686294 Ha        -970.27260761 eV
  | Hartree energy correction     :          -1.16535721 Ha         -31.71098299 eV
  | Entropy correction            :           0.00000000 Ha           0.00000000 eV
  | ---------------------------
  | Total energy                  :         -76.39664874 Ha       -2078.85858332 eV
  | Total energy, T -> 0          :         -76.39664874 Ha       -2078.85858332 eV  <-- do not rely on this value for anything but (periodic) metals
  | Electronic free energy        :         -76.39664874 Ha       -2078.85858332 eV

  Derived energy quantities:
  | Kinetic energy                :          76.04138949 Ha        2069.19148732 eV
  | Electrostatic energy          :        -143.28292517 Ha       -3898.92676902 eV
  | Energy correction for multipole
  | error in Hartree potential    :          -0.00101701 Ha          -0.02767416 eV
  | Sum of eigenvalues per atom                           :        -382.71682587 eV
  | Total energy (T->0) per atom                          :        -692.95286111 eV  <-- do not rely on this value for anything but (periodic) metals
  | Electronic free energy per atom                       :        -692.95286111 eV

  Self-consistency convergence accuracy:
  | Change of charge density      :  0.1213E+00
  | Change of sum of eigenvalues  : -0.9829E+01 eV
  | Change of total energy        : -0.1519E+00 eV

  End self-consistency iteration #     3       :  max(cpu_time)    wall_clock(cpu1)
  | Time for this iteration                    :        0.020 s           0.020 s
  | Charge density update                      :        0.005 s           0.005 s
  | Density mixing                             :        0.001 s           0.000 s
  | Hartree multipole update                   :        0.001 s           0.001 s
  | Hartree multipole summation                :        0.004 s           0.004 s
  | Integration                                :        0.008 s           0.008 s
  | Solution of K.-S. eqns.                    :        0.002 s           0.002 s
  | Total energy evaluation                    :        0.000 s           0.000 s

  Partial memory accounting:
  | Current value for overall tracked memory usage:
  |   Minimum:        0.037 MB (on task 3)
  |   Maximum:        0.043 MB (on task 0)
  |   Average:        0.039 MB
  | Peak value for overall tracked memory usage:
  |   Minimum:        0.229 MB (on task 3 after allocating wave)
  |   Maximum:        0.235 MB (on task 0 after allocating wave)
  |   Average:        0.231 MB
  | Largest tracked array allocation so far:
  |   Minimum:        0.136 MB (gradient_basis_wave on task 0)
  |   Maximum:        0.136 MB (gradient_basis_wave on task 0)
  |   Average:        0.136 MB
  Note:  These values currently only include a subset of arrays which are explicitly tracked.
  The "true" memory usage will be greater.
------------------------------------------------------------

------------------------------------------------------------
          Begin self-consistency iteration #    4

  Date     :  20190817, Time     :  153150.971
------------------------------------------------------------
  Evaluating new KS density.
  Integration grid: deviation in total charge (<rho> - N_e) =   1.598721E-14
  Pulay mixing of updated and previous charge densities.
  Renormalizing the density to the exact electron count on the 3D integration grid.
  | Formal number of electrons (from input files) :      10.0000000000
  | Integrated number of electrons on 3D grid     :      10.0000000000
  | Charge integration error                      :      -0.0000000000
  | Normalization factor for density and gradient :       1.0000000000

  Evaluating partitioned Hartree potential by multipole expansion.
  | Original multipole sum: apparent total charge =   0.295173E-14
  | Sum of charges compensated after spline to logarithmic grids =   0.134704E-03
  | Analytical far-field extrapolation by fixed multipoles:
  | Hartree multipole sum: apparent total charge =   0.317311E-14
  Summing up the Hartree potential.
  Time summed over all CPUs for potential: real work        0.027 s, elapsed        0.031 s
  | RMS charge density error from multipole expansion :   0.677575E-02

  Integrating Hamiltonian matrix: batch-based integration.
  Time summed over all CPUs for integration: real work        0.055 s, elapsed        0.061 s

  Updating Kohn-Sham eigenvalues and eigenvectors using ELSI and the ELPA eigensolver.
  Starting ELPA eigensolver
  Finished transformation to standard eigenproblem
  | Time :     0.000 s
  Finished solving standard eigenproblem
  | Time :     0.001 s
  Finished back-transformation of eigenvectors
  | Time :     0.000 s

  Obtaining occupation numbers and chemical potential using ELSI.
  | Chemical potential (Fermi level):    -2.53268899 eV
  Highest occupied state (VBM) at     -7.53599962 eV
  | Occupation number:      2.00000000

  Lowest unoccupied state (CBM) at    -0.55102560 eV
  | Occupation number:      0.00000000

  Overall HOMO-LUMO gap:      6.98497402 eV.

  Total energy components:
  | Sum of eigenvalues            :         -41.66970202 Ha       -1133.89028374 eV
  | XC energy correction          :          -9.22356930 Ha        -250.98609062 eV
  | XC potential correction       :          11.86378555 Ha         322.83003029 eV
  | Free-atom electrostatic energy:         -35.65686294 Ha        -970.27260761 eV
  | Hartree energy correction     :          -1.70078996 Ha         -46.28084943 eV
  | Entropy correction            :           0.00000000 Ha           0.00000000 eV
  | ---------------------------
  | Total energy                  :         -76.38713867 Ha       -2078.59980111 eV
  | Total energy, T -> 0          :         -76.38713867 Ha       -2078.59980111 eV  <-- do not rely on this value for anything but (periodic) metals
  | Electronic free energy        :         -76.38713867 Ha       -2078.59980111 eV

  Derived energy quantities:
  | Kinetic energy                :          76.13688150 Ha        2071.78995709 eV
  | Electrostatic energy          :        -143.30045087 Ha       -3899.40366758 eV
  | Energy correction for multipole
  | error in Hartree potential    :          -0.00226705 Ha          -0.06168950 eV
  | Sum of eigenvalues per atom                           :        -377.96342791 eV
  | Total energy (T->0) per atom                          :        -692.86660037 eV  <-- do not rely on this value for anything but (periodic) metals
  | Electronic free energy per atom                       :        -692.86660037 eV

  Self-consistency convergence accuracy:
  | Change of charge density      :  0.1131E+00
  | Change of sum of eigenvalues  :  0.1426E+02 eV
  | Change of total energy        :  0.2588E+00 eV

  End self-consistency iteration #     4       :  max(cpu_time)    wall_clock(cpu1)
  | Time for this iteration                    :        0.020 s           0.021 s
  | Charge density update                      :        0.005 s           0.005 s
  | Density mixing                             :        0.001 s           0.001 s
  | Hartree multipole update                   :        0.001 s           0.001 s
  | Hartree multipole summation                :        0.004 s           0.004 s
  | Integration                                :        0.008 s           0.008 s
  | Solution of K.-S. eqns.                    :        0.002 s           0.001 s
  | Total energy evaluation                    :        0.000 s           0.001 s

  Partial memory accounting:
  | Current value for overall tracked memory usage:
  |   Minimum:        0.037 MB (on task 3)
  |   Maximum:        0.043 MB (on task 0)
  |   Average:        0.039 MB
  | Peak value for overall tracked memory usage:
  |   Minimum:        0.229 MB (on task 3 after allocating wave)
  |   Maximum:        0.235 MB (on task 0 after allocating wave)
  |   Average:        0.231 MB
  | Largest tracked array allocation so far:
  |   Minimum:        0.136 MB (gradient_basis_wave on task 0)
  |   Maximum:        0.136 MB (gradient_basis_wave on task 0)
  |   Average:        0.136 MB
  Note:  These values currently only include a subset of arrays which are explicitly tracked.
  The "true" memory usage will be greater.
------------------------------------------------------------

------------------------------------------------------------
          Begin self-consistency iteration #    5

  Date     :  20190817, Time     :  153150.992
------------------------------------------------------------
  Evaluating new KS density.
  Integration grid: deviation in total charge (<rho> - N_e) =   0.000000E+00
  Pulay mixing of updated and previous charge densities.
  Renormalizing the density to the exact electron count on the 3D integration grid.
  | Formal number of electrons (from input files) :      10.0000000000
  | Integrated number of electrons on 3D grid     :      10.0000000000
  | Charge integration error                      :       0.0000000000
  | Normalization factor for density and gradient :       1.0000000000

  Evaluating partitioned Hartree potential by multipole expansion.
  | Original multipole sum: apparent total charge =   0.998668E-14
  | Sum of charges compensated after spline to logarithmic grids =   0.138805E-03
  | Analytical far-field extrapolation by fixed multipoles:
  | Hartree multipole sum: apparent total charge =   0.915036E-14
  Summing up the Hartree potential.
  Time summed over all CPUs for potential: real work        0.027 s, elapsed        0.029 s
  | RMS charge density error from multipole expansion :   0.677545E-02

  Integrating Hamiltonian matrix: batch-based integration.
  Time summed over all CPUs for integration: real work        0.055 s, elapsed        0.059 s

  Updating Kohn-Sham eigenvalues and eigenvectors using ELSI and the ELPA eigensolver.
  Starting ELPA eigensolver
  Finished transformation to standard eigenproblem
  | Time :     0.000 s
  Finished solving standard eigenproblem
  | Time :     0.001 s
  Finished back-transformation of eigenvectors
  | Time :     0.000 s

  Obtaining occupation numbers and chemical potential using ELSI.
  | Chemical potential (Fermi level):    -2.51619719 eV
  Highest occupied state (VBM) at     -7.48535210 eV
  | Occupation number:      2.00000000

  Lowest unoccupied state (CBM) at    -0.53740723 eV
  | Occupation number:      0.00000000

  Overall HOMO-LUMO gap:      6.94794487 eV.

  Total energy components:
  | Sum of eigenvalues            :         -41.65093417 Ha       -1133.37958445 eV
  | XC energy correction          :          -9.22596353 Ha        -251.05124101 eV
  | XC potential correction       :          11.86695186 Ha         322.91618999 eV
  | Free-atom electrostatic energy:         -35.65686294 Ha        -970.27260761 eV
  | Hartree energy correction     :          -1.72021644 Ha         -46.80947108 eV
  | Entropy correction            :           0.00000000 Ha           0.00000000 eV
  | ---------------------------
  | Total energy                  :         -76.38702522 Ha       -2078.59671416 eV
  | Total energy, T -> 0          :         -76.38702522 Ha       -2078.59671416 eV  <-- do not rely on this value for anything but (periodic) metals
  | Electronic free energy        :         -76.38702522 Ha       -2078.59671416 eV

  Derived energy quantities:
  | Kinetic energy                :          76.13961293 Ha        2071.86428302 eV
  | Electrostatic energy          :        -143.30067462 Ha       -3899.40975616 eV
  | Energy correction for multipole
  | error in Hartree potential    :          -0.00239492 Ha          -0.06516917 eV
  | Sum of eigenvalues per atom                           :        -377.79319482 eV
  | Total energy (T->0) per atom                          :        -692.86557139 eV  <-- do not rely on this value for anything but (periodic) metals
  | Electronic free energy per atom                       :        -692.86557139 eV

  Self-consistency convergence accuracy:
  | Change of charge density      :  0.2037E-01
  | Change of sum of eigenvalues  :  0.5107E+00 eV
  | Change of total energy        :  0.3087E-02 eV

  End self-consistency iteration #     5       :  max(cpu_time)    wall_clock(cpu1)
  | Time for this iteration                    :        0.021 s           0.020 s
  | Charge density update                      :        0.005 s           0.005 s
  | Density mixing                             :        0.001 s           0.001 s
  | Hartree multipole update                   :        0.001 s           0.001 s
  | Hartree multipole summation                :        0.004 s           0.004 s
  | Integration                                :        0.008 s           0.007 s
  | Solution of K.-S. eqns.                    :        0.002 s           0.002 s
  | Total energy evaluation                    :        0.000 s           0.000 s

  Partial memory accounting:
  | Current value for overall tracked memory usage:
  |   Minimum:        0.037 MB (on task 3)
  |   Maximum:        0.043 MB (on task 0)
  |   Average:        0.039 MB
  | Peak value for overall tracked memory usage:
  |   Minimum:        0.229 MB (on task 3 after allocating wave)
  |   Maximum:        0.235 MB (on task 0 after allocating wave)
  |   Average:        0.231 MB
  | Largest tracked array allocation so far:
  |   Minimum:        0.136 MB (gradient_basis_wave on task 0)
  |   Maximum:        0.136 MB (gradient_basis_wave on task 0)
  |   Average:        0.136 MB
  Note:  These values currently only include a subset of arrays which are explicitly tracked.
  The "true" memory usage will be greater.
------------------------------------------------------------

------------------------------------------------------------
          Begin self-consistency iteration #    6

  Date     :  20190817, Time     :  153151.013
------------------------------------------------------------
  Evaluating new KS density.
  Integration grid: deviation in total charge (<rho> - N_e) =  -7.105427E-15
  Pulay mixing of updated and previous charge densities.
  Renormalizing the density to the exact electron count on the 3D integration grid.
  | Formal number of electrons (from input files) :      10.0000000000
  | Integrated number of electrons on 3D grid     :      10.0000000000
  | Charge integration error                      :      -0.0000000000
  | Normalization factor for density and gradient :       1.0000000000

  Evaluating partitioned Hartree potential by multipole expansion.
  | Original multipole sum: apparent total charge =   0.956852E-14
  | Sum of charges compensated after spline to logarithmic grids =   0.159078E-03
  | Analytical far-field extrapolation by fixed multipoles:
  | Hartree multipole sum: apparent total charge =   0.954392E-14
  Summing up the Hartree potential.
  Time summed over all CPUs for potential: real work        0.027 s, elapsed        0.031 s
  | RMS charge density error from multipole expansion :   0.699474E-02

  Integrating Hamiltonian matrix: batch-based integration.
  Time summed over all CPUs for integration: real work        0.055 s, elapsed        0.059 s

  Updating Kohn-Sham eigenvalues and eigenvectors using ELSI and the ELPA eigensolver.
  Starting ELPA eigensolver
  Finished transformation to standard eigenproblem
  | Time :     0.000 s
  Finished solving standard eigenproblem
  | Time :     0.001 s
  Finished back-transformation of eigenvectors
  | Time :     0.000 s

  Obtaining occupation numbers and chemical potential using ELSI.
  | Chemical potential (Fermi level):    -2.41424449 eV
  Highest occupied state (VBM) at     -7.20676838 eV
  | Occupation number:      2.00000000

  Lowest unoccupied state (CBM) at    -0.45247517 eV
  | Occupation number:      0.00000000

  Overall HOMO-LUMO gap:      6.75429320 eV.

  Total energy components:
  | Sum of eigenvalues            :         -41.54934256 Ha       -1130.61513613 eV
  | XC energy correction          :          -9.23946158 Ha        -251.41854171 eV
  | XC potential correction       :          11.88474112 Ha         323.40026037 eV
  | Free-atom electrostatic energy:         -35.65686294 Ha        -970.27260761 eV
  | Hartree energy correction     :          -1.82580571 Ha         -49.68270130 eV
  | Entropy correction            :           0.00000000 Ha           0.00000000 eV
  | ---------------------------
  | Total energy                  :         -76.38673168 Ha       -2078.58872638 eV
  | Total energy, T -> 0          :         -76.38673168 Ha       -2078.58872638 eV  <-- do not rely on this value for anything but (periodic) metals
  | Electronic free energy        :         -76.38673168 Ha       -2078.58872638 eV

  Derived energy quantities:
  | Kinetic energy                :          76.14537549 Ha        2072.02109040 eV
  | Electrostatic energy          :        -143.29264559 Ha       -3899.19127507 eV
  | Energy correction for multipole
  | error in Hartree potential    :          -0.00305243 Ha          -0.08306091 eV
  | Sum of eigenvalues per atom                           :        -376.87171204 eV
  | Total energy (T->0) per atom                          :        -692.86290879 eV  <-- do not rely on this value for anything but (periodic) metals
  | Electronic free energy per atom                       :        -692.86290879 eV

  Self-consistency convergence accuracy:
  | Change of charge density      :  0.1736E-01
  | Change of sum of eigenvalues  :  0.2764E+01 eV
  | Change of total energy        :  0.7988E-02 eV

  End self-consistency iteration #     6       :  max(cpu_time)    wall_clock(cpu1)
  | Time for this iteration                    :        0.021 s           0.020 s
  | Charge density update                      :        0.005 s           0.005 s
  | Density mixing                             :        0.001 s           0.001 s
  | Hartree multipole update                   :        0.001 s           0.001 s
  | Hartree multipole summation                :        0.004 s           0.004 s
  | Integration                                :        0.008 s           0.007 s
  | Solution of K.-S. eqns.                    :        0.002 s           0.002 s
  | Total energy evaluation                    :        0.000 s           0.000 s

  Partial memory accounting:
  | Current value for overall tracked memory usage:
  |   Minimum:        0.037 MB (on task 3)
  |   Maximum:        0.043 MB (on task 0)
  |   Average:        0.039 MB
  | Peak value for overall tracked memory usage:
  |   Minimum:        0.229 MB (on task 3 after allocating wave)
  |   Maximum:        0.235 MB (on task 0 after allocating wave)
  |   Average:        0.231 MB
  | Largest tracked array allocation so far:
  |   Minimum:        0.136 MB (gradient_basis_wave on task 0)
  |   Maximum:        0.136 MB (gradient_basis_wave on task 0)
  |   Average:        0.136 MB
  Note:  These values currently only include a subset of arrays which are explicitly tracked.
  The "true" memory usage will be greater.
------------------------------------------------------------

------------------------------------------------------------
          Begin self-consistency iteration #    7

  Date     :  20190817, Time     :  153151.033
------------------------------------------------------------
  Evaluating new KS density.
  Integration grid: deviation in total charge (<rho> - N_e) =   3.552714E-15
  Pulay mixing of updated and previous charge densities.
  Renormalizing the density to the exact electron count on the 3D integration grid.
  | Formal number of electrons (from input files) :      10.0000000000
  | Integrated number of electrons on 3D grid     :      10.0000000000
  | Charge integration error                      :       0.0000000000
  | Normalization factor for density and gradient :       1.0000000000

  Evaluating partitioned Hartree potential by multipole expansion.
  | Original multipole sum: apparent total charge =   0.415702E-14
  | Sum of charges compensated after spline to logarithmic grids =   0.160511E-03
  | Analytical far-field extrapolation by fixed multipoles:
  | Hartree multipole sum: apparent total charge =   0.356667E-14
  Summing up the Hartree potential.
  Time summed over all CPUs for potential: real work        0.026 s, elapsed        0.027 s
  | RMS charge density error from multipole expansion :   0.701357E-02

  Integrating Hamiltonian matrix: batch-based integration.
  Time summed over all CPUs for integration: real work        0.056 s, elapsed        0.059 s

  Updating Kohn-Sham eigenvalues and eigenvectors using ELSI and the ELPA eigensolver.
  Starting ELPA eigensolver
  Finished transformation to standard eigenproblem
  | Time :     0.001 s
  Finished solving standard eigenproblem
  | Time :     0.001 s
  Finished back-transformation of eigenvectors
  | Time :     0.000 s

  Obtaining occupation numbers and chemical potential using ELSI.
  | Chemical potential (Fermi level):    -2.40599347 eV
  Highest occupied state (VBM) at     -7.18427077 eV
  | Occupation number:      2.00000000

  Lowest unoccupied state (CBM) at    -0.44570739 eV
  | Occupation number:      0.00000000

  Overall HOMO-LUMO gap:      6.73856339 eV.

  Total energy components:
  | Sum of eigenvalues            :         -41.54096368 Ha       -1130.38713521 eV
  | XC energy correction          :          -9.24069516 Ha        -251.45210898 eV
  | XC potential correction       :          11.88635935 Ha         323.44429450 eV
  | Free-atom electrostatic energy:         -35.65686294 Ha        -970.27260761 eV
  | Hartree energy correction     :          -1.83456818 Ha         -49.92114012 eV
  | Entropy correction            :           0.00000000 Ha           0.00000000 eV
  | ---------------------------
  | Total energy                  :         -76.38673061 Ha       -2078.58869742 eV
  | Total energy, T -> 0          :         -76.38673061 Ha       -2078.58869742 eV  <-- do not rely on this value for anything but (periodic) metals
  | Electronic free energy        :         -76.38673061 Ha       -2078.58869742 eV

  Derived energy quantities:
  | Kinetic energy                :          76.14806787 Ha        2072.09435373 eV
  | Electrostatic energy          :        -143.29410333 Ha       -3899.23094217 eV
  | Energy correction for multipole
  | error in Hartree potential    :          -0.00309413 Ha          -0.08419560 eV
  | Sum of eigenvalues per atom                           :        -376.79571174 eV
  | Total energy (T->0) per atom                          :        -692.86289914 eV  <-- do not rely on this value for anything but (periodic) metals
  | Electronic free energy per atom                       :        -692.86289914 eV

  Self-consistency convergence accuracy:
  | Change of charge density      :  0.1365E-02
  | Change of sum of eigenvalues  :  0.2280E+00 eV
  | Change of total energy        :  0.2896E-04 eV

  End self-consistency iteration #     7       :  max(cpu_time)    wall_clock(cpu1)
  | Time for this iteration                    :        0.020 s           0.021 s
  | Charge density update                      :        0.005 s           0.005 s
  | Density mixing                             :        0.001 s           0.001 s
  | Hartree multipole update                   :        0.001 s           0.001 s
  | Hartree multipole summation                :        0.004 s           0.003 s
  | Integration                                :        0.008 s           0.008 s
  | Solution of K.-S. eqns.                    :        0.002 s           0.002 s
  | Total energy evaluation                    :        0.000 s           0.000 s

  Partial memory accounting:
  | Current value for overall tracked memory usage:
  |   Minimum:        0.037 MB (on task 3)
  |   Maximum:        0.043 MB (on task 0)
  |   Average:        0.039 MB
  | Peak value for overall tracked memory usage:
  |   Minimum:        0.229 MB (on task 3 after allocating wave)
  |   Maximum:        0.235 MB (on task 0 after allocating wave)
  |   Average:        0.231 MB
  | Largest tracked array allocation so far:
  |   Minimum:        0.136 MB (gradient_basis_wave on task 0)
  |   Maximum:        0.136 MB (gradient_basis_wave on task 0)
  |   Average:        0.136 MB
  Note:  These values currently only include a subset of arrays which are explicitly tracked.
  The "true" memory usage will be greater.
------------------------------------------------------------

------------------------------------------------------------
          Begin self-consistency iteration #    8

  Date     :  20190817, Time     :  153151.054
------------------------------------------------------------
  Evaluating new KS density.
  Integration grid: deviation in total charge (<rho> - N_e) =  -1.065814E-14
  Pulay mixing of updated and previous charge densities.
  Renormalizing the density to the exact electron count on the 3D integration grid.
  | Formal number of electrons (from input files) :      10.0000000000
  | Integrated number of electrons on 3D grid     :      10.0000000000
  | Charge integration error                      :      -0.0000000000
  | Normalization factor for density and gradient :       1.0000000000

  Evaluating partitioned Hartree potential by multipole expansion.
  | Original multipole sum: apparent total charge =   0.233679E-14
  | Sum of charges compensated after spline to logarithmic grids =   0.160367E-03
  | Analytical far-field extrapolation by fixed multipoles:
  | Hartree multipole sum: apparent total charge =   0.260736E-14
  Summing up the Hartree potential.
  Time summed over all CPUs for potential: real work        0.026 s, elapsed        0.030 s
  | RMS charge density error from multipole expansion :   0.701253E-02

  Integrating Hamiltonian matrix: batch-based integration.
  Time summed over all CPUs for integration: real work        0.055 s, elapsed        0.059 s

  Updating Kohn-Sham eigenvalues and eigenvectors using ELSI and the ELPA eigensolver.
  Starting ELPA eigensolver
  Finished transformation to standard eigenproblem
  | Time :     0.001 s
  Finished solving standard eigenproblem
  | Time :     0.000 s
  Finished back-transformation of eigenvectors
  | Time :     0.000 s

  Obtaining occupation numbers and chemical potential using ELSI.
  | Chemical potential (Fermi level):    -2.40667153 eV
  Highest occupied state (VBM) at     -7.18612725 eV
  | Occupation number:      2.00000000

  Lowest unoccupied state (CBM) at    -0.44626716 eV
  | Occupation number:      0.00000000

  Overall HOMO-LUMO gap:      6.73986009 eV.

  Total energy components:
  | Sum of eigenvalues            :         -41.54166984 Ha       -1130.40635087 eV
  | XC energy correction          :          -9.24060208 Ha        -251.44957630 eV
  | XC potential correction       :          11.88623661 Ha         323.44095457 eV
  | Free-atom electrostatic energy:         -35.65686294 Ha        -970.27260761 eV
  | Hartree energy correction     :          -1.83383232 Ha         -49.90111644 eV
  | Entropy correction            :           0.00000000 Ha           0.00000000 eV
  | ---------------------------
  | Total energy                  :         -76.38673059 Ha       -2078.58869665 eV
  | Total energy, T -> 0          :         -76.38673059 Ha       -2078.58869665 eV  <-- do not rely on this value for anything but (periodic) metals
  | Electronic free energy        :         -76.38673059 Ha       -2078.58869665 eV

  Derived energy quantities:
  | Kinetic energy                :          76.14794971 Ha        2072.09113841 eV
[...]
  The "true" memory usage will be greater.
------------------------------------------------------------

------------------------------------------------------------
          Begin self-consistency iteration #   11

  Date     :  20190817, Time     :  153151.116
------------------------------------------------------------
  Evaluating new KS density.
  Integration grid: deviation in total charge (<rho> - N_e) =  -1.776357E-15
  Pulay mixing of updated and previous charge densities.
  Renormalizing the density to the exact electron count on the 3D integration grid.
  | Formal number of electrons (from input files) :      10.0000000000
  | Integrated number of electrons on 3D grid     :      10.0000000000
  | Charge integration error                      :      -0.0000000000
  | Normalization factor for density and gradient :       1.0000000000

  Evaluating partitioned Hartree potential by multipole expansion.
  | Original multipole sum: apparent total charge =   0.489495E-14
  | Sum of charges compensated after spline to logarithmic grids =   0.160240E-03
  | Analytical far-field extrapolation by fixed multipoles:
  | Hartree multipole sum: apparent total charge =   0.543610E-14
  Summing up the Hartree potential.
  Time summed over all CPUs for potential: real work        0.027 s, elapsed        0.028 s
  | RMS charge density error from multipole expansion :   0.701223E-02

  Integrating Hamiltonian matrix: batch-based integration.
  Time summed over all CPUs for integration: real work        0.054 s, elapsed        0.057 s

  Updating Kohn-Sham eigenvalues and eigenvectors using ELSI and the ELPA eigensolver.
  Starting ELPA eigensolver
  Finished transformation to standard eigenproblem
  | Time :     0.001 s
  Finished solving standard eigenproblem
  | Time :     0.000 s
  Finished back-transformation of eigenvectors
  | Time :     0.000 s

  Obtaining occupation numbers and chemical potential using ELSI.
  | Chemical potential (Fermi level):    -2.40709175 eV
  Highest occupied state (VBM) at     -7.18702539 eV
  | Occupation number:      2.00000000

  Lowest unoccupied state (CBM) at    -0.44661825 eV
  | Occupation number:      0.00000000

  Overall HOMO-LUMO gap:      6.74040714 eV.

  Total energy components:
  | Sum of eigenvalues            :         -41.54198829 Ha       -1130.41501633 eV
  | XC energy correction          :          -9.24055926 Ha        -251.44841110 eV
  | XC potential correction       :          11.88617986 Ha         323.43941049 eV
  | Free-atom electrostatic energy:         -35.65686294 Ha        -970.27260761 eV
  | Hartree energy correction     :          -1.83349994 Ha         -49.89207184 eV
  | Entropy correction            :           0.00000000 Ha           0.00000000 eV
  | ---------------------------
  | Total energy                  :         -76.38673058 Ha       -2078.58869638 eV
  | Total energy, T -> 0          :         -76.38673058 Ha       -2078.58869638 eV  <-- do not rely on this value for anything but (periodic) metals
  | Electronic free energy        :         -76.38673058 Ha       -2078.58869638 eV

  Derived energy quantities:
  | Kinetic energy                :          76.14801194 Ha        2072.09283183 eV
  | Electrostatic energy          :        -143.29418325 Ha       -3899.23311712 eV
  | Energy correction for multipole
  | error in Hartree potential    :          -0.00308641 Ha          -0.08398555 eV
  | Sum of eigenvalues per atom                           :        -376.80500544 eV
  | Total energy (T->0) per atom                          :        -692.86289879 eV  <-- do not rely on this value for anything but (periodic) metals
  | Electronic free energy per atom                       :        -692.86289879 eV

  Self-consistency convergence accuracy:
  | Change of charge density      :  0.3581E-05
  | Change of sum of eigenvalues  :  0.4951E-03 eV
  | Change of total energy        :  0.3572E-07 eV

  End self-consistency iteration #    11       :  max(cpu_time)    wall_clock(cpu1)
  | Time for this iteration                    :        0.019 s           0.019 s
  | Charge density update                      :        0.005 s           0.005 s
  | Density mixing                             :        0.001 s           0.000 s
  | Hartree multipole update                   :        0.001 s           0.001 s
  | Hartree multipole summation                :        0.004 s           0.004 s
  | Integration                                :        0.007 s           0.007 s
  | Solution of K.-S. eqns.                    :        0.001 s           0.002 s
  | Total energy evaluation                    :        0.000 s           0.000 s

  Partial memory accounting:
  | Current value for overall tracked memory usage:
  |   Minimum:        0.037 MB (on task 3)
  |   Maximum:        0.043 MB (on task 0)
  |   Average:        0.039 MB
  | Peak value for overall tracked memory usage:
  |   Minimum:        0.229 MB (on task 3 after allocating wave)
  |   Maximum:        0.235 MB (on task 0 after allocating wave)
  |   Average:        0.231 MB
  | Largest tracked array allocation so far:
  |   Minimum:        0.136 MB (gradient_basis_wave on task 0)
  |   Maximum:        0.136 MB (gradient_basis_wave on task 0)
  |   Average:        0.136 MB
  Note:  These values currently only include a subset of arrays which are explicitly tracked.
  The "true" memory usage will be greater.
------------------------------------------------------------

------------------------------------------------------------
          Begin self-consistency iteration #   12

  Date     :  20190817, Time     :  153151.135
------------------------------------------------------------
  Evaluating new KS density.
  Integration grid: deviation in total charge (<rho> - N_e) =   1.065814E-14
  Pulay mixing of updated and previous charge densities.
  Renormalizing the density to the exact electron count on the 3D integration grid.
  | Formal number of electrons (from input files) :      10.0000000000
  | Integrated number of electrons on 3D grid     :      10.0000000000
  | Charge integration error                      :       0.0000000000
  | Normalization factor for density and gradient :       1.0000000000

  Evaluating partitioned Hartree potential by multipole expansion.
  | Original multipole sum: apparent total charge =   0.929795E-14
  | Sum of charges compensated after spline to logarithmic grids =   0.160240E-03
  | Analytical far-field extrapolation by fixed multipoles:
  | Hartree multipole sum: apparent total charge =   0.865840E-14
  Summing up the Hartree potential.
  Time summed over all CPUs for potential: real work        0.026 s, elapsed        0.028 s
  | RMS charge density error from multipole expansion :   0.701223E-02

  Integrating Hamiltonian matrix: batch-based integration.
  Time summed over all CPUs for integration: real work        0.054 s, elapsed        0.058 s

  Updating Kohn-Sham eigenvalues and eigenvectors using ELSI and the ELPA eigensolver.
  Starting ELPA eigensolver
  Finished transformation to standard eigenproblem
  | Time :     0.000 s
  Finished solving standard eigenproblem
  | Time :     0.001 s
  Finished back-transformation of eigenvectors
  | Time :     0.000 s

  Obtaining occupation numbers and chemical potential using ELSI.
  | Chemical potential (Fermi level):    -2.40709343 eV
  Highest occupied state (VBM) at     -7.18703127 eV
  | Occupation number:      2.00000000

  Lowest unoccupied state (CBM) at    -0.44661968 eV
  | Occupation number:      0.00000000

  Overall HOMO-LUMO gap:      6.74041159 eV.

  Total energy components:
  | Sum of eigenvalues            :         -41.54199019 Ha       -1130.41506800 eV
  | XC energy correction          :          -9.24055902 Ha        -251.44840457 eV
  | XC potential correction       :          11.88617955 Ha         323.43940193 eV
  | Free-atom electrostatic energy:         -35.65686294 Ha        -970.27260761 eV
  | Hartree energy correction     :          -1.83349797 Ha         -49.89201813 eV
  | Entropy correction            :           0.00000000 Ha           0.00000000 eV
  | ---------------------------
  | Total energy                  :         -76.38673057 Ha       -2078.58869637 eV
  | Total energy, T -> 0          :         -76.38673057 Ha       -2078.58869637 eV  <-- do not rely on this value for anything but (periodic) metals
  | Electronic free energy        :         -76.38673057 Ha       -2078.58869637 eV

  Derived energy quantities:
  | Kinetic energy                :          76.14801154 Ha        2072.09282083 eV
  | Electrostatic energy          :        -143.29418309 Ha       -3899.23311263 eV
  | Energy correction for multipole
  | error in Hartree potential    :          -0.00308640 Ha          -0.08398511 eV
  | Sum of eigenvalues per atom                           :        -376.80502267 eV
  | Total energy (T->0) per atom                          :        -692.86289879 eV  <-- do not rely on this value for anything but (periodic) metals
  | Electronic free energy per atom                       :        -692.86289879 eV

  Self-consistency convergence accuracy:
  | Change of charge density      :  0.4208E-06
  | Change of sum of eigenvalues  : -0.5167E-04 eV
  | Change of total energy        :  0.8927E-08 eV

  Writing Kohn-Sham eigenvalues.

  State    Occupation    Eigenvalue [Ha]    Eigenvalue [eV]
      1       2.00000         -18.755038         -510.35055
      2       2.00000          -0.926694          -25.21663
      3       2.00000          -0.492474          -13.40091
      4       2.00000          -0.332670           -9.05241
      5       2.00000          -0.264119           -7.18703
      6       0.00000          -0.016413           -0.44662
      7       0.00000           0.056475            1.53677
      8       0.00000           0.181994            4.95231
      9       0.00000           0.182471            4.96528
     10       0.00000           0.203615            5.54066
     11       0.00000           0.207836            5.65550

  Highest occupied state (VBM) at     -7.18703127 eV
  | Occupation number:      2.00000000

  Lowest unoccupied state (CBM) at    -0.44661968 eV
  | Occupation number:      0.00000000

  Overall HOMO-LUMO gap:      6.74041159 eV.

  Self-consistency cycle converged.

  End self-consistency iteration #    12       :  max(cpu_time)    wall_clock(cpu1)
  | Time for this iteration                    :        0.020 s           0.020 s
  | Charge density update                      :        0.005 s           0.005 s
  | Density mixing                             :        0.001 s           0.001 s
  | Hartree multipole update                   :        0.001 s           0.001 s
  | Hartree multipole summation                :        0.004 s           0.003 s
  | Integration                                :        0.007 s           0.008 s
  | Solution of K.-S. eqns.                    :        0.001 s           0.001 s
  | Total energy evaluation                    :        0.000 s           0.000 s

  Partial memory accounting:
  | Current value for overall tracked memory usage:
  |   Minimum:        0.037 MB (on task 3)
  |   Maximum:        0.043 MB (on task 0)
  |   Average:        0.039 MB
  | Peak value for overall tracked memory usage:
  |   Minimum:        0.229 MB (on task 3 after allocating wave)
  |   Maximum:        0.235 MB (on task 0 after allocating wave)
  |   Average:        0.231 MB
  | Largest tracked array allocation so far:
  |   Minimum:        0.136 MB (gradient_basis_wave on task 0)
  |   Maximum:        0.136 MB (gradient_basis_wave on task 0)
  |   Average:        0.136 MB
  Note:  These values currently only include a subset of arrays which are explicitly tracked.
  The "true" memory usage will be greater.
------------------------------------------------------------

  Energy and forces in a compact form:
  | Total energy uncorrected      :         -0.207858869637359E+04 eV
  | Total energy corrected        :         -0.207858869637359E+04 eV  <-- do not rely on this value for anything but (periodic) metals
  | Electronic free energy        :         -0.207858869637359E+04 eV

  ------------------------------------ 
  Start decomposition of the XC Energy 
  ------------------------------------ 
  X and C from original XC functional choice 
  Hartree-Fock Energy :          0.000000000 Ha              0.000000000 eV
  X Energy            :         -8.916027700 Ha           -242.617457951 eV
  C Energy            :         -0.324531323 Ha             -8.830946621 eV
  Total XC Energy     :         -9.240559023 Ha           -251.448404572 eV
  ------------------------------------ 
  LDA X and C from self-consistent density 
  X Energy LDA        :         -8.100419028 Ha           -220.423616795 eV
  C Energy LDA        :         -0.659432524 Ha            -17.944071973 eV
  ------------------------------------ 
  End decomposition of the XC Energy 
  ------------------------------------ 

------------------------------------------------------------
  |------------------------------------------------------
  | Final ELSI Output
  |------------------------------------------------------
  |
  | Physical Properties
  |   Number of electrons       :        0.10000000E+02
  |   Number of spins           :                     1
  |   Number of k-points        :                     1
  |   Number of states          :                    11
  |
  | Matrix Properties
  |   Matrix format             :           BLACS_DENSE
  |   Number of basis functions :                    69
  |   Matrix sparsity           :        0.43436253E+00
  |
  | Computational Details
  |   Parallel mode             :            MULTI_PROC
  |   Number of MPI tasks       :                     8
  |   Solver requested          :                  ELPA
  |   Number of ELSI calls      :                    13
  |
  |------------------------------------------------------
  | ELSI Project (c)  elsi-interchange.org
  |------------------------------------------------------

------------------------------------------------------------------------------
  Final output of selected total energy values:

  The following output summarizes some interesting total energy values
  at the end of a run (AFTER all relaxation, molecular dynamics, etc.).

  | Total energy of the DFT / Hartree-Fock s.c.f. calculation      :          -2078.588696374 eV
  | Final zero-broadening corrected energy (caution - metals only) :          -2078.588696374 eV
  | For reference only, the value of 1 Hartree used in FHI-aims is :             27.211384500 eV

  Before relying on these values, please be sure to understand exactly which
  total energy value is referred to by a given number. Different objects may
  all carry the same name 'total energy'. Definitions:

  Total energy of the DFT / Hartree-Fock s.c.f. calculation:
  | Note that this energy does not include ANY quantities calculated after the
  | s.c.f. cycle, in particular not ANY RPA, MP2, etc. many-body perturbation terms.

  Final zero-broadening corrected energy:
  | For metallic systems only, a broadening of the occupation numbers at the Fermi
  | level can be extrapolated back to zero broadening by an electron-gas inspired
  | formula. For all systems that are not real metals, this value can be
  | meaningless and should be avoided.

------------------------------------------------------------------------------
  Methods described in the following list of references were used in this FHI-aims run.
  If you publish the results, please make sure to cite these reference if they apply.
  FHI-aims is an academic code, and for our developers (often, Ph.D. students
  and postdocs), scientific credit in the community is essential.
  Thank you for helping us!

  For any use of FHI-aims, please cite:

    Volker Blum, Ralf Gehrke, Felix Hanke, Paula Havu, Ville Havu,
    Xinguo Ren, Karsten Reuter, and Matthias Scheffler
    'Ab initio molecular simulations with numeric atom-centered orbitals'
    Computer Physics Communications 180, 2175-2196 (2009)
    http://dx.doi.org/10.1016/j.cpc.2009.06.022


  The ELSI infrastructure was used in your run to solve the Kohn-Sham electronic structure.
  Please check out http://elsi-interchange.org to learn more.
  If scalability is important for your project, please acknowledge ELSI by citing:

    V. W-z. Yu, F. Corsetti, A. Garcia, W. P. Huhn, M. Jacquelin, W. Jia,
    B. Lange, L. Lin, J. Lu, W. Mi, A. Seifitokaldani, A. Vazquez-Mayagoitia,
    C. Yang, H. Yang, and V. Blum
    'ELSI: A unified software interface for Kohn-Sham electronic structure solvers'
    Computer Physics Communications 222, 267-285 (2018).
    http://dx.doi.org/10.1016/j.cpc.2017.09.007


  For the real-space grid partitioning and parallelization used in this calculation, please cite:

    Ville Havu, Volker Blum, Paula Havu, and Matthias Scheffler,
    'Efficient O(N) integration for all-electron electronic structure calculation'
    'using numerically tabulated basis functions'
    Journal of Computational Physics 228, 8367-8379 (2009).
    http://dx.doi.org/10.1016/j.jcp.2009.08.008

  Of course, there are many other important community references, e.g., those cited in the
  above references. Our list is limited to references that describe implementations in the
  FHI-aims code. The reason is purely practical (length of this list) - please credit others as well.

------------------------------------------------------------
          Leaving FHI-aims.
          Date     :  20190817, Time     :  153151.158

          Computational steps:
          | Number of self-consistency cycles          :           12
          | Number of SCF (re)initializations          :            1

          Detailed time accounting                     :  max(cpu_time)    wall_clock(cpu1)
          | Total time                                 :        0.428 s           0.429 s
          | Preparation time                           :        0.101 s           0.101 s
          | Boundary condition initalization           :        0.000 s           0.000 s
          | Grid partitioning                          :        0.005 s           0.004 s
          | Preloading free-atom quantities on grid    :        0.002 s           0.001 s
          | Free-atom superposition energy             :        0.002 s           0.002 s
          | Total time for integrations                :        0.102 s           0.102 s
          | Total time for solution of K.-S. equations :        0.027 s           0.027 s
          | Total time for density update              :        0.063 s           0.060 s
          | Total time for mixing                      :        0.010 s           0.011 s
          | Total time for Hartree multipole update    :        0.011 s           0.010 s
          | Total time for Hartree multipole sum       :        0.045 s           0.045 s
          | Total time for total energy evaluation     :        0.001 s           0.001 s

          Partial memory accounting:
          | Residual value for overall tracked memory usage across tasks:     0.000000 MB (should be 0.000000 MB)
          | Peak values for overall tracked memory usage:
          |   Minimum:        0.229 MB (on task 3 after allocating wave)
          |   Maximum:        0.235 MB (on task 0 after allocating wave)
          |   Average:        0.231 MB
          | Largest tracked array allocation:
          |   Minimum:        0.136 MB (gradient_basis_wave on task 0)
          |   Maximum:        0.136 MB (gradient_basis_wave on task 0)
          |   Average:        0.136 MB
          Note:  These values currently only include a subset of arrays which are explicitly tracked.
          The "true" memory usage will be greater.

          Have a nice day.
------------------------------------------------------------
