  MPI-parallelism will be employed.
------------------------------------------------------------
          Invoking FHI-aims ...
          Version 180101-
          Git rev. (modified): fa29f3a Merge branch master of fhiaims.rzberlin.mp[...]
          Compiled on 2018/01/19 at 14:47:46 on host theobook132.

          When using FHI-aims, please cite the following reference:

          Volker Blum, Ralf Gehrke, Felix Hanke, Paula Havu,
          Ville Havu, Xinguo Ren, Karsten Reuter, and Matthias Scheffler,
          'Ab Initio Molecular Simulations with Numeric Atom-Centered Orbitals',
          Computer Physics Communications 180, 2175-2196 (2009)

          For any questions about FHI-aims, please visit the aimsclub website
          with its forums and wiki. Contributions to both the forums and the
          wiki are warmly encouraged - they are for you, and everyone is welcome there.

------------------------------------------------------------



  Date     :  20180215, Time     :  214443.970
  Time zero on CPU 1             :   0.600000000000000E-01  s.
  Internal wall clock time zero  :           287963083.970  s.

  FHI-aims created a unique identifier for this run for later identification
  aims_uuid : 5024E1A9-C65A-4246-A999-70FEA97C24E4

  Using        8 parallel tasks.
  Task        0 on host theobook132 reporting.
  Task        1 on host theobook132 reporting.
  Task        2 on host theobook132 reporting.
  Task        3 on host theobook132 reporting.
  Task        4 on host theobook132 reporting.
  Task        5 on host theobook132 reporting.
  Task        6 on host theobook132 reporting.
  Task        7 on host theobook132 reporting.

  Performing system and environment tests:
  *** Environment variable OMP_NUM_THREADS is not set
  *** For performance reasons you might want to set it to 1
  | Stacksize not measured: no C compiler
  | Checking for scalapack...
  | No scalapack compiled in.

  Obtaining array dimensions for all initial allocations:
  
  -----------------------------------------------------------------------
  Parsing control.in (first pass over file, find array dimensions only).
  The contents of control.in will be repeated verbatim below
  unless switched off by setting 'verbatim_writeout .false.' .
  in the first line of control.in .
  -----------------------------------------------------------------------
  
  ################################################################################
  #
  #		Control.in generated by mkcontrol
  #
  ################################################################################
  xc			pbe
  vdw_correction_hirshfeld
  relativistic		none
  sc_accuracy_rho		1E-5
  sc_accuracy_eev		1E-3
  sc_accuracy_etot	1E-6
  sc_iter_limit		1000	
  
  compute_forces .true.
  final_forces_cleaned .true.
  
  ################################################################################
  #
  #  FHI-aims code project
  #  VB, Fritz-Haber Institut, 2009
  #
  #  Suggested "light" defaults for H atom (to be pasted into control.in file)
  #  Be sure to double-check any results obtained with these settings for post-processing,
  #  e.g., with the "tight" defaults and larger basis sets.
  #
  ################################################################################
    species        H
  #     global species definitions
      nucleus             1
      mass                1.00794
  #
      l_hartree           4
  #
      cut_pot             3.5  1.5  1.0
      basis_dep_cutoff    1e-4
  #
      radial_base         24 5.0
      radial_multiplier   1
      angular_grids       specified
        division   0.2421   50
        division   0.3822  110
        division   0.4799  194
        division   0.5341  302
  #      division   0.5626  434
  #      division   0.5922  590
  #      division   0.6542  770
  #      division   0.6868 1202
  #      outer_grid  770
        outer_grid  302
  ################################################################################
  #
  #  Definition of "minimal" basis
  #
  ################################################################################
  #     valence basis states
      valence      1  s   1.
  #     ion occupancy
      ion_occ      1  s   0.5
  ################################################################################
  #
  #  Suggested additional basis functions. For production calculations,
  #  uncomment them one after another (the most important basis functions are
  #  listed first).
  #
  #  Basis constructed for dimers: 0.5 A, 0.7 A, 1.0 A, 1.5 A, 2.5 A
  #
  ################################################################################
  #  "First tier" - improvements: -1014.90 meV to -62.69 meV
       hydro 2 s 2.1
       hydro 2 p 3.5
  #  "Second tier" - improvements: -12.89 meV to -1.83 meV
  #     hydro 1 s 0.85
  #     hydro 2 p 3.7
  #     hydro 2 s 1.2
  #     hydro 3 d 7
  #  "Third tier" - improvements: -0.25 meV to -0.12 meV
  #     hydro 4 f 11.2
  #     hydro 3 p 4.8
  #     hydro 4 d 9
  #     hydro 3 s 3.2
  
  ################################################################################
  #
  #  FHI-aims code project
  #  VB, Fritz-Haber Institut, 2009
  #
  #  Suggested "light" defaults for C atom (to be pasted into control.in file)
  #  Be sure to double-check any results obtained with these settings forpost-processing,
  #  e.g., with the "tight" defaults and larger basis sets.
  #
  ################################################################################
    species        C
  #     global species definitions
      nucleus             6
      mass                12.0107
  #
      l_hartree           4
  #
      cut_pot             3.5  1.5  1.0
      basis_dep_cutoff    1e-4
  #
      radial_base         34 5.0
      radial_multiplier   1
      angular_grids specified
        division   0.3326   50
        division   0.5710  110
        division   0.7727  194
        division   0.8772  302
  #      division   0.9334  434
  #      division   0.9625  590
  #      division   0.9924  770
  #      division   1.0230  974
  #      division   1.4589 1202
  #     outer_grid  974
       outer_grid 302
  ################################################################################
  #
  #  Definition of "minimal" basis
  #
  ################################################################################
  #     valence basis states
      valence      2  s   2.
      valence      2  p   2.
  #     ion occupancy
      ion_occ      2  s   1.
      ion_occ      2  p   1.
  ################################################################################
  #
  #  Suggested additional basis functions. For production calculations,
  #  uncomment them one after another (the most important basis functions are
  #  listed first).
  #
  #  Constructed for dimers: 1.0 A, 1.25 A, 1.5 A, 2.0 A, 3.0 A
  #
  ################################################################################
  #  "First tier" - improvements: -1214.57 meV to -155.61 meV
       hydro 2 p 1.7
       hydro 3 d 6
       hydro 2 s 4.9
  #  "Second tier" - improvements: -67.75 meV to -5.23 meV
  #     hydro 4 f 9.8
  #     hydro 3 p 5.2
  #     hydro 3 s 4.3
  #     hydro 5 g 14.4
  #     hydro 3 d 6.2
  #  "Third tier" - improvements: -2.43 meV to -0.60 meV
  #     hydro 2 p 5.6
  #     hydro 2 s 1.4
  #     hydro 3 d 4.9
  #     hydro 4 f 11.2
  #  "Fourth tier" - improvements: -0.39 meV to -0.18 meV
  #     hydro 2 p 2.1
  #     hydro 5 g 16.4
  #     hydro 4 d 13.2
  #     hydro 3 s 13.6
  #     hydro 4 f 17.6
  #  Further basis functions - improvements: -0.08 meV and below
  #     hydro 3 s 2
  #     hydro 3 p 6
  #     hydro 4 d 20
  
  -----------------------------------------------------------------------
  Completed first pass over input file control.in .
  -----------------------------------------------------------------------
  
  
  -----------------------------------------------------------------------
  Parsing geometry.in (first pass over file, find array dimensions only).
  The contents of geometry.in will be repeated verbatim below
  unless switched off by setting 'verbatim_writeout .false.' .
  in the first line of geometry.in .
  -----------------------------------------------------------------------
  
  #=======================================#
  # iterations/iteration0037/aims-chain-node-0.63426/geometry.in
  #=======================================#
  atom -1.2980976363429395 -0.9317697937201250 -0.4035776279102631 C
  atom -0.5519174358173643 -0.3827702334846439 0.7774860212538044 C
  atom 0.5519174088496874 0.3827702808373153 0.7774860176716388 C
  atom 1.2980976476688020 0.9317697748235221 -0.4035776395016892 C
  atom -0.7595725135530254 -0.8048672060986573 -1.3516935264512671 H
  atom -2.2884648027647092 -0.4587649150672145 -0.5105543457891085 H
  atom -1.4835112909823758 -2.0086881662247911 -0.2664337703715711 H
  atom -0.9652151035283741 -0.6540983792936959 1.7547732823318383 H
  atom 0.9652150505220164 0.6540984719793874 1.7547732770070805 H
  atom 0.7595724886886088 0.8048672628162479 -1.3516935278641469 H
  atom 1.4835114313951898 2.0086881227278313 -0.2664337702851706 H
  atom 2.2884647558644513 0.4587647807048134 -0.5105543900911482 H
  
  -----------------------------------------------------------------------
  Completed first pass over input file geometry.in .
  -----------------------------------------------------------------------
  

  Basic array size parameters:
  | Number of species                 :        2
  | Number of atoms                   :       12
  | Max. basis fn. angular momentum   :        2
  | Max. atomic/ionic basis occupied n:        2
  | Max. number of basis fn. types    :        2
  | Max. radial fns per species/type  :        3
  | Max. logarithmic grid size        :     1277
  | Max. radial integration grid size :       34
  | Max. angular integration grid size:      302
  | Max. angular grid division number :        8
  | Radial grid for Hartree potential :     1277
  | Number of spin channels           :        1

------------------------------------------------------------
          Reading file control.in.
------------------------------------------------------------
  XC: Using PBE gradient-corrected functionals.
  Non-relativistic treatment of kinetic energy.
  Convergence accuracy of self-consistent charge density:  0.1000E-04
  Convergence accuracy of sum of eigenvalues:  0.1000E-02
  Convergence accuracy of total energy:  0.1000E-05
  Maximum number of s.-c. iterations  :  1000
  Forces will be computed.
  Cleaning forces before final output.
 
  Reading configuration options for species H                   .
  | Found nuclear charge :   1.0000
  | Found atomic mass :    1.00794000000000      amu
  | Found l_max for Hartree potential  :   4
  | Found cutoff potl. onset [A], width [A], scale factor :    3.50000    1.50000    1.00000
  | Threshold for basis-dependent cutoff potential is   0.100000E-03
  | Found data for basic radial integration grid :    24 points, outermost radius =    5.000 A
  | Found multiplier for basic radial grid :   1
  | Found angular grid specification: user-specified.
  | Specified grid contains     5 separate shells.
  | Check grid settings after all constraints further below.
  | Found free-atom valence shell :  1 s   1.000
  | No ionic wave fns used. Skipping ion_occ.
  | Found hydrogenic basis function :  2 s   2.100
  | Found hydrogenic basis function :  2 p   3.500
  Species H                   : Missing cutoff potential type.
  Defaulting to exp(1/x)/(1-x)^2 type cutoff potential.
  Species H : No 'logarithmic' tag. Using default grid for free atom:
  | Default logarithmic grid data [bohr] : 0.1000E-03 0.1000E+03 0.1012E+01
  Species H : On-site basis accuracy parameter (for Gram-Schmidt orthonormalisation) not specified.
  Using default value basis_acc =  0.1000000E-03.
  Species H                   : Using default innermost maximum threshold i_radial=  2 for radial functions.
  Species H                   : Default cutoff onset for free atom density etc. : 0.35000000E+01 AA.
  Species H                   : Basic radial grid will be enhanced according to radial_multiplier =   1, to contain    24 grid points.
 
  Reading configuration options for species C                   .
  | Found nuclear charge :   6.0000
  | Found atomic mass :    12.0107000000000      amu
  | Found l_max for Hartree potential  :   4
  | Found cutoff potl. onset [A], width [A], scale factor :    3.50000    1.50000    1.00000
  | Threshold for basis-dependent cutoff potential is   0.100000E-03
  | Found data for basic radial integration grid :    34 points, outermost radius =    5.000 A
  | Found multiplier for basic radial grid :   1
  | Found angular grid specification: user-specified.
  | Specified grid contains     5 separate shells.
  | Check grid settings after all constraints further below.
  | Found free-atom valence shell :  2 s   2.000
  | Found free-atom valence shell :  2 p   2.000
  | No ionic wave fns used. Skipping ion_occ.
  | No ionic wave fns used. Skipping ion_occ.
  | Found hydrogenic basis function :  2 p   1.700
  | Found hydrogenic basis function :  3 d   6.000
  | Found hydrogenic basis function :  2 s   4.900
  Species C                   : Missing cutoff potential type.
  Defaulting to exp(1/x)/(1-x)^2 type cutoff potential.
  Species C : No 'logarithmic' tag. Using default grid for free atom:
  | Default logarithmic grid data [bohr] : 0.1000E-03 0.1000E+03 0.1012E+01
  Species C : On-site basis accuracy parameter (for Gram-Schmidt orthonormalisation) not specified.
  Using default value basis_acc =  0.1000000E-03.
  Species C                   : Using default innermost maximum threshold i_radial=  2 for radial functions.
  Species C                   : Default cutoff onset for free atom density etc. : 0.35000000E+01 AA.
  Species C                   : Basic radial grid will be enhanced according to radial_multiplier =   1, to contain    34 grid points.
 
  Finished reading input file 'control.in'. Consistency checks are next.
 
  MPI_IN_PLACE appears to work with this MPI implementation.
  | Keeping use_mpi_in_place .true. (see manual).
  Target number of points in a grid batch is not set. Defaulting to  100
  Method for grid partitioning is not set. Defaulting to parallel hash+maxmin partitioning.
  Batch size limit is not set. Defaulting to    200
  By default, will store active basis functions for each batch.
  If in need of memory, prune_basis_once .false. can be used to disable this option.
  communication_type for Hartree potential was not specified.
  Defaulting to calc_hartree .
  Defaulting to Pulay charge density mixer.
  Pulay mixer: Number of relevant iterations not set.
  Defaulting to    8 iterations.
  Pulay mixer: Number of initial linear mixing iterations not set.
  Defaulting to    0 iterations.
  Work space size for distributed Hartree potential not set.
  Defaulting to   0.200000E+03 MB.
  Mixing parameter for charge density mixing has not been set.
  Using default: charge_mix_param =     0.0500.
  The mixing parameter will be adjusted in iteration number     2 of the first full s.c.f. cycle only.
  Algorithm-dependent basis array size parameters:
  | n_max_pulay                         :        8
  Presetting        40 iterations before the initial mixing cycle
  is restarted anyway using the sc_init_iter criterion / keyword.
  Presetting a factor      1.000 between actual scf density residual
  and density convergence criterion sc_accuracy_rho below which sc_init_iter
  takes no effect.
  Geometry relaxation not requested: no relaxation will be performed.
  Force calculation: scf convergence accuracy of forces not set.
  Defaulting to 'sc_accuracy_forces not_checked'.
  Handling of forces: Unphysical translation and rotation will be removed from forces.
  No accuracy limit for integral partition fn. given. Defaulting to  0.1000E-14.
  No threshold value for u(r) in integrations given. Defaulting to  0.1000E-05.
  No occupation type (smearing scheme) given. Defaulting to Gaussian broadening, width =  0.1000E-01 eV.
  The width will be adjusted in iteration number     2 of the first full s.c.f. cycle only.
  S.C.F. convergence parameters will be adjusted in iteration number     2 of the first full s.c.f. cycle only.
  No accuracy for occupation numbers given. Defaulting to  0.1000E-12.
  No threshold value for occupation numbers given. Defaulting to  0.0000E+00.
  No accuracy for fermi level given. Defaulting to  0.1000E-19.
  Maximum # of iterations to find E_F not set. Defaulting to  200.
  Preferred method for the eigenvalue solver ('KS_method') not specified in 'control.in'.
  Calling BLACS routine to test compilation state
  The best choice would be 'elsi', but your version of FHI-aims is compiled without ScaLAPACK support.
  Defaulting to 'lapack_fast' instead (serial solution, time will not improve with more CPUs).
  Will not use alltoall communication since running on < 1024 CPUs.
  Threshold for basis singularities not set.
  Default threshold for basis singularities:  0.1000E-04
  partition_type (choice of integration weights) for integrals was not specified.
  | Using a version of the partition function of Stratmann and coworkers ('stratmann_smoother').
  | At each grid point, the set of atoms used to build the partition table is smoothly restricted to
  | only those atoms whose free-atom density would be non-zero at that grid point.
  Partitioning for Hartree potential was not defined. Using partition_type for integrals.
  | Adjusted default value of keyword multip_moments_threshold to:       0.10000000E-11
  | This value may affect high angular momentum components of the Hartree potential in periodic systems.
  Spin handling was not defined in control.in. Defaulting to unpolarized case.
  No q(lm)/r^(l+1) cutoff set for long-range Hartree potential.
  | Using default value of  0.100000E-09 .
  | Verify using the multipole_threshold keyword.
  Defaulting to new monopole extrapolation.
  Density update method: automatic selection selected.
------------------------------------------------------------


------------------------------------------------------------
          Reading geometry description geometry.in.
------------------------------------------------------------
  Input structure read successfully.
  The structure contains       12 atoms,  and a total of         32.000 electrons.

  Input geometry:
  | No unit cell requested.
  | Atomic structure:
  |       Atom                x [A]            y [A]            z [A]
  |    1: Species C            -1.29809764       -0.93176979       -0.40357763
  |    2: Species C            -0.55191744       -0.38277023        0.77748602
  |    3: Species C             0.55191741        0.38277028        0.77748602
  |    4: Species C             1.29809765        0.93176977       -0.40357764
  |    5: Species H            -0.75957251       -0.80486721       -1.35169353
  |    6: Species H            -2.28846480       -0.45876492       -0.51055435
  |    7: Species H            -1.48351129       -2.00868817       -0.26643377
  |    8: Species H            -0.96521510       -0.65409838        1.75477328
  |    9: Species H             0.96521505        0.65409847        1.75477328
  |   10: Species H             0.75957249        0.80486726       -1.35169353
  |   11: Species H             1.48351143        2.00868812       -0.26643377
  |   12: Species H             2.28846476        0.45876478       -0.51055439
  |

  | The smallest distance between any two atoms is         1.09522797 AA.
  |
  | The first atom of this pair is atom number                      3 .
  | The second atom of this pair is atom number                     9 .

  Number of empty states per atom not set in control.in - providing a guess from actual geometry.
  | Total number of empty states used during s.c.f. cycle:       24
  If you use a very high smearing, use empty_states (per atom!) in control.in to increase this value.

  Structure-dependent array size parameters: 
  | Maximum number of distinct radial functions  :        9
  | Maximum number of basis functions            :       96
  | Number of Kohn-Sham states (occupied + empty):       40
------------------------------------------------------------

------------------------------------------------------------
          Preparing all fixed parts of the calculation.
------------------------------------------------------------
  Determining machine precision:
    2.225073858507201E-308
  Setting up grids for atomic and cluster calculations.

  Creating wave function, potential, and density for free atoms.

  Species: H

  List of occupied orbitals and eigenvalues:
    n    l              occ      energy [Ha]    energy [eV]
    1    0           1.0000        -0.237589        -6.4651


  Species: C

  List of occupied orbitals and eigenvalues:
    n    l              occ      energy [Ha]    energy [eV]
    1    0           2.0000       -10.038835      -273.1706
    2    0           2.0000        -0.502696       -13.6791
    2    1           2.0000        -0.191971        -5.2238

  Creating fixed part of basis set: Ionic, confined, hydrogenic.
 
  H                    hydrogenic:
 
  List of hydrogenic basis orbitals: 
    n    l      effective z      eigenvalue [eV]  inner max. [A]     outer max. [A]     outer radius [A]   
    2    0         2.100000       -14.9728           0.193243           1.317208           4.583499
    2    1         3.500000       -41.6669           0.602369           0.602369           3.723403
 
 
  C                    hydrogenic:
 
  List of hydrogenic basis orbitals: 
    n    l      effective z      eigenvalue [eV]  inner max. [A]     outer max. [A]     outer radius [A]   
    2    1         1.700000        -9.7616           1.230570           1.230570           4.607917
    3    2         6.000000       -54.4224           0.792453           0.792453           3.883070
    2    0         4.900000       -81.6679           0.082559           0.562749           3.078220
 

  Adding cutoff potential to free-atom effective potential.
  Creating atomic-like basis functions for current effective potential.

  Species H                   :

  List of atomic basis orbitals and eigenvalues:
    n    l      energy [Ha]    energy [eV]    outer radius [A]
    1    0        -0.237589        -6.4651       4.527807


  Species C                   :

  List of atomic basis orbitals and eigenvalues:
    n    l      energy [Ha]    energy [eV]    outer radius [A]
    1    0       -10.038835      -273.1706       1.934409
    2    0        -0.502696       -13.6791       4.496620
    2    1        -0.191971        -5.2238       4.551928

  Assembling full basis from fixed parts.
  | Species H :   atomic orbital   1 s accepted.
  | Species H :    hydro orbital   2 s accepted.
  | Species H :    hydro orbital   2 p accepted.
  | Species C :   atomic orbital   1 s accepted.
  | Species C :    hydro orbital   2 s accepted.
  | Species C :   atomic orbital   2 s accepted.
  | Species C :   atomic orbital   2 p accepted.
  | Species C :    hydro orbital   2 p accepted.
  | Species C :    hydro orbital   3 d accepted.
 
  Basis size parameters after reduction:
  | Total number of radial functions:        9
  | Total number of basis functions :       96
 
  Per-task memory consumption for arrays in subroutine allocate_ext:
  |           2.209696MB.
  Testing on-site integration grid accuracy.
  |  Species  Function  <phi|h_atom|phi> (log., in eV)  <phi|h_atom|phi> (rad., in eV)
           1        1                 -6.4663192853                 -6.4651273558
           1        2                 13.7111246313                 13.7170609718
           1        3                 25.2673269279                 25.2674696378
           2        4               -273.1705927641               -273.1705631568
           2        5                -10.7109323383                -10.7107120029
           2        6                 17.4381822266                 17.4352413244
           2        7                 -5.2255326521                 -5.2270484734
           2        8                  8.6835629259                  8.6603288385
           2        9                 27.4952418996                 27.4953360207

  Preparing densities etc. for the partition functions (integrals / Hartree potential).

  Preparations completed.
  max(cpu_time)          :      0.128 s.
  Wall clock time (cpu1) :      0.145 s.
------------------------------------------------------------

------------------------------------------------------------
          Begin self-consistency loop: Initialization.

          Date     :  20180215, Time     :  214444.125
------------------------------------------------------------

  Initializing index lists of integration centers etc. from given atomic structure:
  | Number of centers in hartree potential         :        12
  | Number of centers in hartree multipole         :        12
  | Number of centers in electron density summation:        12
  | Number of centers in basis integrals           :        12
  | Number of centers in integrals                 :        12
  | Number of centers in hamiltonian               :        12
  Partitioning the integration grid into batches with parallel hashing+maxmin method.
  | Number of batches:      855
  | Maximal batch size:     142
  | Minimal batch size:      53
  | Average batch size:      71.280
  | Standard deviation of batch sizes:      22.456

  Integration load balanced across     8 MPI tasks.
  Work distribution over tasks is as follows:
  Task     0 has       7584 integration points.
  Task     1 has       7594 integration points.
  Task     2 has       7616 integration points.
  Task     3 has       7719 integration points.
  Task     4 has       7589 integration points.
  Task     5 has       7652 integration points.
  Task     6 has       7577 integration points.
  Task     7 has       7613 integration points.
  Initializing partition tables, free-atom densities, potentials, etc. across the integration grid (initialize_grid_storage).
  | initialize_grid_storage: Actual outermost partition radius vs. multipole_radius_free
  | (-- VB: in principle, multipole_radius_free should be larger, hence this output)
  | Species        1: Confinement radius =              4.999999999999999 AA, multipole_radius_free =              5.054417573612229 AA.
  | Species        1: outer_partition_radius set to              5.054417573612229 AA .
  | Species        2: Confinement radius =              4.999999999999999 AA, multipole_radius_free =              5.019602836301480 AA.
  | Species        2: outer_partition_radius set to              5.019602836301480 AA .
  | Original list of interatomic distances with          12 x         12 entries is created.
  | Net number of integration points:    60944
  | of which are non-zero points    :    52372
  Renormalizing the initial density to the exact electron count on the 3D integration grid.
  | Initial density: Formal number of electrons (from input files) :      32.0000000000
  | Integrated number of electrons on 3D grid     :      31.9999127117
  | Charge integration error                      :      -0.0000872883
  | Normalization factor for density and gradient :       1.0000027278
  Obtaining max. number of non-zero basis functions in each batch (get_n_compute_maxes).
  | Maximal number of non-zero basis functions:       96 in task     0
  | Maximal number of non-zero basis functions:       96 in task     1
  | Maximal number of non-zero basis functions:       96 in task     2
  | Maximal number of non-zero basis functions:       96 in task     3
  | Maximal number of non-zero basis functions:       96 in task     4
  | Maximal number of non-zero basis functions:       96 in task     5
  | Maximal number of non-zero basis functions:       96 in task     6
  | Maximal number of non-zero basis functions:       96 in task     7
  Selecting the method for density update.
  Loop over occupied states selected for charge density update.
  Allocating        0.031 MB for KS_eigenvector
  Integrating Hamiltonian matrix: batch-based integration.
  Time summed over all CPUs for integration: real work        1.358 s, elapsed        1.402 s
  Integrating overlap matrix.
  Time summed over all CPUs for integration: real work        0.527 s, elapsed        0.641 s

  Updating Kohn-Sham eigenvalues, eigenvectors, occupation numbers, and Fermi level.
  Solving generalized eigenproblem
  Updating Kohn-Sham eigenvalues and eigenfunctions.
  Transforming overlap matrix and checking for singularities.
  Overlap matrix is nonsingular:
  | Lowest eigenvalue:  0.318362E-02
  Solving real generalised eigenvalue problem by standard LAPACK (fast)

  Obtaining occupation numbers and chemical potential using ELSI.
  | Chemical potential (Fermi level):    -8.66370564eV
  Writing Kohn-Sham eigenvalues.

  State    Occupation    Eigenvalue [Ha]    Eigenvalue [eV]
      1       2.00000         -10.166626         -276.64796
      2       2.00000         -10.166626         -276.64796
      3       2.00000         -10.151178         -276.22760
      4       2.00000         -10.150540         -276.21025
      5       2.00000          -0.926853          -25.22097
      6       2.00000          -0.850847          -23.15272
      7       2.00000          -0.795473          -21.64592
      8       2.00000          -0.656414          -17.86193
      9       2.00000          -0.611043          -16.62734
     10       2.00000          -0.573940          -15.61771
     11       2.00000          -0.546824          -14.87983
     12       2.00000          -0.533399          -14.51452
     13       2.00000          -0.526833          -14.33587
     14       2.00000          -0.502120          -13.66339
     15       2.00000          -0.478714          -13.02646
     16       2.00000          -0.385576          -10.49207
     17       0.00000          -0.177665           -4.83450
     18       0.00000          -0.048100           -1.30886
     19       0.00000          -0.029291           -0.79706
     20       0.00000          -0.002898           -0.07885
     21       0.00000           0.004111            0.11185
     22       0.00000           0.014671            0.39922
     23       0.00000           0.026154            0.71168
     24       0.00000           0.027045            0.73592
     25       0.00000           0.039751            1.08167
     26       0.00000           0.050331            1.36958
     27       0.00000           0.132673            3.61022
     28       0.00000           0.168822            4.59389
     29       0.00000           0.188336            5.12488
     30       0.00000           0.205391            5.58898
     31       0.00000           0.237800            6.47088
     32       0.00000           0.270756            7.36765
     33       0.00000           0.271728            7.39408
     34       0.00000           0.301745            8.21090
     35       0.00000           0.309883            8.43236
     36       0.00000           0.312858            8.51329
     37       0.00000           0.403796           10.98784
     38       0.00000           0.452060           12.30117
     39       0.00000           0.513599           13.97574
     40       0.00000           0.516211           14.04682

  Highest occupied state (VBM) at    -10.49206961 eV
  | Occupation number:      2.00000000

  Lowest unoccupied state (CBM) at    -4.83450005 eV
  | Occupation number:      0.00000000

  Overall HOMO-LUMO gap:      5.65756957 eV.
  Calculating total energy contributions from superposition of free atom densities.

  Total energy components:
  | Sum of eigenvalues            :         -96.04601276 Ha       -2613.54498282 eV
  | XC energy correction          :         -23.66038436 Ha        -643.83181624 eV
  | XC potential correction       :          30.39398554 Ha         827.06242692 eV
  | Free-atom electrostatic energy:         -68.01361916 Ha       -1850.74474214 eV
  | Hartree energy correction     :           0.00000000 Ha           0.00000000 eV
  | vdW energy correction         :           0.00000000 Ha           0.00000000 eV
  | Entropy correction            :           0.00000000 Ha           0.00000000 eV
  | ---------------------------
  | Total energy                  :        -157.32603074 Ha       -4281.05911428 eV
  | Total energy, T -> 0          :        -157.32603074 Ha       -4281.05911428 eV  <-- do not rely on this value for anything but (periodic) metals
  | Electronic free energy        :        -157.32603074 Ha       -4281.05911428 eV

  Derived energy quantities:
  | Kinetic energy                :         154.19413875 Ha        4195.83599723 eV
  | Electrostatic energy          :        -287.85978513 Ha       -7833.06329527 eV
  | Energy correction for multipole
  | error in Hartree potential    :           0.00000000 Ha           0.00000000 eV
  | Sum of eigenvalues per atom                           :        -217.79541524 eV
  | Total energy (T->0) per atom                          :        -356.75492619 eV  <-- do not rely on this value for anything but (periodic) metals
  | Electronic free energy per atom                       :        -356.75492619 eV
  Initialize hartree_potential_storage
  Max. number of atoms included in rho_multipole:           12

  End scf initialization - timings             :  max(cpu_time)    wall_clock(cpu1)
  | Time for scf. initialization               :        0.480 s           0.481 s
  | Boundary condition initialization          :        0.000 s           0.000 s
  | Integration                                :        0.268 s           0.269 s
  | Solution of K.-S. eqns.                    :        0.012 s           0.013 s
  | Grid partitioning                          :        0.080 s           0.080 s
  | Preloading free-atom quantities on grid    :        0.004 s           0.003 s
  | Free-atom superposition energy             :        0.032 s           0.031 s
  | Total energy evaluation                    :        0.000 s           0.001 s

  Partial memory accounting:
  | Current value for overall tracked memory usage on task 0  :           0.179 MB
  | Peak value for overall tracked memory usage on task 0     :           0.509 MB after allocating wave
  | Largest tracked array allocation on task 0 so far         :           0.109 MB  when allocating H_times_psi
  Note:  These values currently only include a subset of arrays which are explicitly tracked.
  The "true" memory usage will be greater.
------------------------------------------------------------

------------------------------------------------------------
          Begin self-consistency iteration #    1

  Date     :  20180215, Time     :  214444.607
------------------------------------------------------------
  Evaluating new KS density.
  Integration grid: deviation in total charge (<rho> - N_e) =   1.421085E-14
  Pulay mixing of updated and previous charge densities.

  Evaluating partitioned Hartree potential by multipole expansion.
  | Analytical far-field extrapolation by fixed multipoles:
  | Hartree multipole sum: apparent total charge =  -0.118690E-03
  Summing up the Hartree potential.
  Time summed over all CPUs for potential: real work        1.266 s, elapsed        1.280 s
  | RMS charge density error from multipole expansion :   0.134122E-02

  Integrating Hamiltonian matrix: batch-based integration.
  Time summed over all CPUs for integration: real work        1.357 s, elapsed        1.439 s

  Updating Kohn-Sham eigenvalues, eigenvectors, occupation numbers, and Fermi level.
  Solving generalized eigenproblem
  Updating Kohn-Sham eigenvalues and eigenfunctions.
  Solving real generalised eigenvalue problem by standard LAPACK (fast)

  Obtaining occupation numbers and chemical potential using ELSI.
  | Chemical potential (Fermi level):    -8.25512424eV
  Writing Kohn-Sham eigenvalues.

  State    Occupation    Eigenvalue [Ha]    Eigenvalue [eV]
      1       2.00000         -10.131834         -275.70122
      2       2.00000         -10.131834         -275.70122
      3       2.00000         -10.121747         -275.42675
      4       2.00000         -10.121109         -275.40938
      5       2.00000          -0.906582          -24.66934
      6       2.00000          -0.831920          -22.63769
      7       2.00000          -0.776206          -21.12164
      8       2.00000          -0.639426          -17.39967
      9       2.00000          -0.594073          -16.16555
     10       2.00000          -0.553888          -15.07206
     11       2.00000          -0.530323          -14.43083
     12       2.00000          -0.517020          -14.06883
     13       2.00000          -0.509435          -13.86244
     14       2.00000          -0.485494          -13.21097
     15       2.00000          -0.461586          -12.56039
     16       2.00000          -0.368469          -10.02656
     17       0.00000          -0.161197           -4.38640
     18       0.00000          -0.039130           -1.06477
     19       0.00000          -0.020142           -0.54809
     20       0.00000           0.005772            0.15706
     21       0.00000           0.020718            0.56377
     22       0.00000           0.024453            0.66540
     23       0.00000           0.036382            0.99000
     24       0.00000           0.038628            1.05111
     25       0.00000           0.049863            1.35685
     26       0.00000           0.061091            1.66237
     27       0.00000           0.145623            3.96259
     28       0.00000           0.178960            4.86975
     29       0.00000           0.200438            5.45419
     30       0.00000           0.215729            5.87030
     31       0.00000           0.251373            6.84022
     32       0.00000           0.282236            7.68002
     33       0.00000           0.282613            7.69030
     34       0.00000           0.312423            8.50147
     35       0.00000           0.322934            8.78747
     36       0.00000           0.324701            8.83555
     37       0.00000           0.415439           11.30466
     38       0.00000           0.464566           12.64148
     39       0.00000           0.524384           14.26922
     40       0.00000           0.529550           14.40980

  Highest occupied state (VBM) at    -10.02656141 eV
  | Occupation number:      2.00000000

  Lowest unoccupied state (CBM) at    -4.38639733 eV
  | Occupation number:      0.00000000

  Overall HOMO-LUMO gap:      5.64016408 eV.

  Total energy components:
  | Sum of eigenvalues            :         -95.36189235 Ha       -2594.92911929 eV
  | XC energy correction          :         -23.72072254 Ha        -645.47370175 eV
  | XC potential correction       :          30.47218034 Ha         829.19021574 eV
  | Free-atom electrostatic energy:         -68.01361916 Ha       -1850.74474214 eV
  | Hartree energy correction     :          -0.65286774 Ha         -17.76543505 eV
  | vdW energy correction         :           0.00000000 Ha           0.00000000 eV
  | Entropy correction            :           0.00000000 Ha           0.00000000 eV
  | ---------------------------
  | Total energy                  :        -157.27692145 Ha       -4279.72278250 eV
  | Total energy, T -> 0          :        -157.27692145 Ha       -4279.72278250 eV  <-- do not rely on this value for anything but (periodic) metals
  | Electronic free energy        :        -157.27692145 Ha       -4279.72278250 eV

  Derived energy quantities:
  | Kinetic energy                :         154.52132533 Ha        4204.73919701 eV
  | Electrostatic energy          :        -288.07752423 Ha       -7838.98827775 eV
  | Energy correction for multipole
  | error in Hartree potential    :           0.00230869 Ha           0.06282269 eV
  | Sum of eigenvalues per atom                           :        -216.24409327 eV
  | Total energy (T->0) per atom                          :        -356.64356521 eV  <-- do not rely on this value for anything but (periodic) metals
  | Electronic free energy per atom                       :        -356.64356521 eV

  Self-consistency convergence accuracy:
  | Change of charge density      :  0.4878E+00
  | Change of sum of eigenvalues  :  0.1862E+02 eV
  | Change of total energy        :  0.1336E+01 eV

  End self-consistency iteration #     1       :  max(cpu_time)    wall_clock(cpu1)
  | Time for this iteration                    :        0.588 s           0.585 s
  | Charge density update                      :        0.212 s           0.210 s
  | Density mixing                             :        0.004 s           0.002 s
  | Hartree multipole update                   :        0.012 s           0.010 s
  | Hartree multipole summation                :        0.172 s           0.169 s
  | Integration                                :        0.192 s           0.190 s
  | Solution of K.-S. eqns.                    :        0.004 s           0.002 s
  | Total energy evaluation                    :        0.000 s           0.001 s

  Partial memory accounting:
  | Current value for overall tracked memory usage on task 0  :           0.179 MB
  | Peak value for overall tracked memory usage on task 0     :           0.615 MB after allocating gradient_basis_wave
  | Largest tracked array allocation on task 0 so far         :           0.327 MB  when allocating gradient_basis_wave
  Note:  These values currently only include a subset of arrays which are explicitly tracked.
  The "true" memory usage will be greater.
------------------------------------------------------------

------------------------------------------------------------
          Begin self-consistency iteration #    2

  Date     :  20180215, Time     :  214445.193
------------------------------------------------------------
  Evaluating new KS density.
  Integration grid: deviation in total charge (<rho> - N_e) =  -1.776357E-14
  Pulay mixing of updated and previous charge densities.

  Evaluating partitioned Hartree potential by multipole expansion.
  | Analytical far-field extrapolation by fixed multipoles:
  | Hartree multipole sum: apparent total charge =  -0.392474E-03
  Summing up the Hartree potential.
  Time summed over all CPUs for potential: real work        1.272 s, elapsed        1.335 s
  | RMS charge density error from multipole expansion :   0.131479E-01

  Integrating Hamiltonian matrix: batch-based integration.
  Time summed over all CPUs for integration: real work        1.321 s, elapsed        1.351 s

  Updating Kohn-Sham eigenvalues, eigenvectors, occupation numbers, and Fermi level.
  Solving generalized eigenproblem
  Updating Kohn-Sham eigenvalues and eigenfunctions.
  Solving real generalised eigenvalue problem by standard LAPACK (fast)

  Obtaining occupation numbers and chemical potential using ELSI.
  | Chemical potential (Fermi level):    -4.67528769eV
  Highest occupied state (VBM) at     -6.20379568 eV
  | Occupation number:      2.00000000

  Lowest unoccupied state (CBM) at    -0.73756649 eV
  | Occupation number:      0.00000000

  Overall HOMO-LUMO gap:      5.46622919 eV.

  Checking to see if s.c.f. parameters should be adjusted.
  The system likely has a gap. Increased the default Pulay mixing parameter (charge_mix_param). Value:   0.200000 .
  Kept the default occupation width. Value:   0.010000 eV.

  Total energy components:
  | Sum of eigenvalues            :         -89.66913532 Ha       -2440.02131904 eV
  | XC energy correction          :         -24.27437541 Ha        -660.53936289 eV
  | XC potential correction       :          31.18931997 Ha         848.70457812 eV
  | Free-atom electrostatic energy:         -68.01361916 Ha       -1850.74474214 eV
  | Hartree energy correction     :          -6.30810891 Ha        -171.65237703 eV
  | vdW energy correction         :           0.00000000 Ha           0.00000000 eV
  | Entropy correction            :           0.00000000 Ha           0.00000000 eV
  | ---------------------------
  | Total energy                  :        -157.07591883 Ha       -4274.25322298 eV
  | Total energy, T -> 0          :        -157.07591883 Ha       -4274.25322298 eV  <-- do not rely on this value for anything but (periodic) metals
  | Electronic free energy        :        -157.07591883 Ha       -4274.25322298 eV

  Derived energy quantities:
  | Kinetic energy                :         156.92772790 Ha        4270.22074268 eV
  | Electrostatic energy          :        -289.72927132 Ha       -7883.93460277 eV
  | Energy correction for multipole
  | error in Hartree potential    :           0.02181857 Ha           0.59371337 eV
  | Sum of eigenvalues per atom                           :        -203.33510992 eV
  | Total energy (T->0) per atom                          :        -356.18776858 eV  <-- do not rely on this value for anything but (periodic) metals
  | Electronic free energy per atom                       :        -356.18776858 eV

  Self-consistency convergence accuracy:
  | Change of charge density      :  0.4488E+00
  | Change of sum of eigenvalues  :  0.1549E+03 eV
  | Change of total energy        :  0.5470E+01 eV

  End self-consistency iteration #     2       :  max(cpu_time)    wall_clock(cpu1)
  | Time for this iteration                    :        0.572 s           0.569 s
  | Charge density update                      :        0.200 s           0.197 s
  | Density mixing                             :        0.004 s           0.003 s
  | Hartree multipole update                   :        0.012 s           0.011 s
  | Hartree multipole summation                :        0.176 s           0.176 s
  | Integration                                :        0.180 s           0.178 s
  | Solution of K.-S. eqns.                    :        0.004 s           0.002 s
  | Total energy evaluation                    :        0.000 s           0.001 s

  Partial memory accounting:
  | Current value for overall tracked memory usage on task 0  :           0.180 MB
  | Peak value for overall tracked memory usage on task 0     :           0.615 MB after allocating gradient_basis_wave
  | Largest tracked array allocation on task 0 so far         :           0.327 MB  when allocating gradient_basis_wave
  Note:  These values currently only include a subset of arrays which are explicitly tracked.
  The "true" memory usage will be greater.
------------------------------------------------------------

------------------------------------------------------------
          Begin self-consistency iteration #    3

  Date     :  20180215, Time     :  214445.763
------------------------------------------------------------
  Evaluating new KS density.
  Integration grid: deviation in total charge (<rho> - N_e) =  -3.552714E-15
  Pulay mixing of updated and previous charge densities.

  Evaluating partitioned Hartree potential by multipole expansion.
  | Analytical far-field extrapolation by fixed multipoles:
  | Hartree multipole sum: apparent total charge =  -0.381180E-03
  Summing up the Hartree potential.
  Time summed over all CPUs for potential: real work        1.261 s, elapsed        1.285 s
  | RMS charge density error from multipole expansion :   0.163434E-01

  Integrating Hamiltonian matrix: batch-based integration.
  Time summed over all CPUs for integration: real work        1.320 s, elapsed        1.342 s

  Updating Kohn-Sham eigenvalues, eigenvectors, occupation numbers, and Fermi level.
  Solving generalized eigenproblem
  Updating Kohn-Sham eigenvalues and eigenfunctions.
  Solving real generalised eigenvalue problem by standard LAPACK (fast)

  Obtaining occupation numbers and chemical potential using ELSI.
  | Chemical potential (Fermi level):    -5.14811504eV
  Highest occupied state (VBM) at     -6.85601807 eV
  | Occupation number:      2.00000000

  Lowest unoccupied state (CBM) at    -1.36492607 eV
  | Occupation number:      0.00000000

  Overall HOMO-LUMO gap:      5.49109200 eV.

  Total energy components:
  | Sum of eigenvalues            :         -90.62703928 Ha       -2466.08721192 eV
  | XC energy correction          :         -24.23164881 Ha        -659.37671285 eV
  | XC potential correction       :          31.13032794 Ha         847.09932324 eV
  | Free-atom electrostatic energy:         -68.01361916 Ha       -1850.74474214 eV
  | Hartree energy correction     :          -5.32822526 Ha        -144.98838623 eV
  | vdW energy correction         :           0.00000000 Ha           0.00000000 eV
  | Entropy correction            :           0.00000000 Ha           0.00000000 eV
  | ---------------------------
  | Total energy                  :        -157.07020456 Ha       -4274.09772990 eV
  | Total energy, T -> 0          :        -157.07020456 Ha       -4274.09772990 eV  <-- do not rely on this value for anything but (periodic) metals
  | Electronic free energy        :        -157.07020456 Ha       -4274.09772990 eV

  Derived energy quantities:
  | Kinetic energy                :         156.27534157 Ha        4252.46840721 eV
  | Electrostatic energy          :        -289.11389732 Ha       -7867.18942426 eV
  | Energy correction for multipole
  | error in Hartree potential    :           0.02634684 Ha           0.71693393 eV
  | Sum of eigenvalues per atom                           :        -205.50726766 eV
  | Total energy (T->0) per atom                          :        -356.17481083 eV  <-- do not rely on this value for anything but (periodic) metals
  | Electronic free energy per atom                       :        -356.17481083 eV

  Self-consistency convergence accuracy:
  | Change of charge density      :  0.2106E+00
  | Change of sum of eigenvalues  : -0.2607E+02 eV
  | Change of total energy        :  0.1555E+00 eV

  End self-consistency iteration #     3       :  max(cpu_time)    wall_clock(cpu1)
  | Time for this iteration                    :        0.544 s           0.542 s
  | Charge density update                      :        0.172 s           0.171 s
  | Density mixing                             :        0.008 s           0.005 s
  | Hartree multipole update                   :        0.016 s           0.016 s
  | Hartree multipole summation                :        0.172 s           0.170 s
  | Integration                                :        0.180 s           0.176 s
  | Solution of K.-S. eqns.                    :        0.004 s           0.002 s
  | Total energy evaluation                    :        0.000 s           0.001 s

  Partial memory accounting:
  | Current value for overall tracked memory usage on task 0  :           0.180 MB
  | Peak value for overall tracked memory usage on task 0     :           0.616 MB after allocating gradient_basis_wave
  | Largest tracked array allocation on task 0 so far         :           0.327 MB  when allocating gradient_basis_wave
  Note:  These values currently only include a subset of arrays which are explicitly tracked.
  The "true" memory usage will be greater.
------------------------------------------------------------

------------------------------------------------------------
          Begin self-consistency iteration #    4

  Date     :  20180215, Time     :  214446.306
------------------------------------------------------------
  Evaluating new KS density.
  Integration grid: deviation in total charge (<rho> - N_e) =  -1.421085E-14
  Pulay mixing of updated and previous charge densities.

  Evaluating partitioned Hartree potential by multipole expansion.
  | Analytical far-field extrapolation by fixed multipoles:
  | Hartree multipole sum: apparent total charge =  -0.458392E-03
  Summing up the Hartree potential.
  Time summed over all CPUs for potential: real work        1.263 s, elapsed        1.279 s
  | RMS charge density error from multipole expansion :   0.220604E-01

  Integrating Hamiltonian matrix: batch-based integration.
  Time summed over all CPUs for integration: real work        1.601 s, elapsed        2.361 s => Consider using load balancing!

  Updating Kohn-Sham eigenvalues, eigenvectors, occupation numbers, and Fermi level.
  Solving generalized eigenproblem
  Updating Kohn-Sham eigenvalues and eigenfunctions.
  Solving real generalised eigenvalue problem by standard LAPACK (fast)

  Obtaining occupation numbers and chemical potential using ELSI.
  | Chemical potential (Fermi level):    -4.41877813eV
  Highest occupied state (VBM) at     -6.20265942 eV
  | Occupation number:      2.00000000

  Lowest unoccupied state (CBM) at    -0.74580906 eV
  | Occupation number:      0.00000000

  Overall HOMO-LUMO gap:      5.45685036 eV.

  Total energy components:
  | Sum of eigenvalues            :         -89.71141783 Ha       -2441.17188457 eV
  | XC energy correction          :         -24.37037556 Ha        -663.15165991 eV
  | XC potential correction       :          31.30771156 Ha         851.92617712 eV
  | Free-atom electrostatic energy:         -68.01361916 Ha       -1850.74474214 eV
  | Hartree energy correction     :          -6.27190929 Ha        -170.66733519 eV
  | vdW energy correction         :           0.00000000 Ha           0.00000000 eV
  | Entropy correction            :           0.00000000 Ha           0.00000000 eV
  | ---------------------------
  | Total energy                  :        -157.05961028 Ha       -4273.80944470 eV
  | Total energy, T -> 0          :        -157.05961028 Ha       -4273.80944470 eV  <-- do not rely on this value for anything but (periodic) metals
  | Electronic free energy        :        -157.05961028 Ha       -4273.80944470 eV

  Derived energy quantities:
  | Kinetic energy                :         156.35260165 Ha        4254.57076115 eV
  | Electrostatic energy          :        -289.04183637 Ha       -7865.22854594 eV
  | Energy correction for multipole
  | error in Hartree potential    :           0.03401276 Ha           0.92553432 eV
  | Sum of eigenvalues per atom                           :        -203.43099038 eV
  | Total energy (T->0) per atom                          :        -356.15078706 eV  <-- do not rely on this value for anything but (periodic) metals
  | Electronic free energy per atom                       :        -356.15078706 eV

  Self-consistency convergence accuracy:
  | Change of charge density      :  0.1272E+00
  | Change of sum of eigenvalues  :  0.2492E+02 eV
  | Change of total energy        :  0.2883E+00 eV

  End self-consistency iteration #     4       :  max(cpu_time)    wall_clock(cpu1)
  | Time for this iteration                    :        0.672 s           0.671 s
  | Charge density update                      :        0.172 s           0.172 s
  | Density mixing                             :        0.008 s           0.006 s
  | Hartree multipole update                   :        0.012 s           0.010 s
  | Hartree multipole summation                :        0.172 s           0.169 s
  | Integration                                :        0.312 s           0.311 s
  | Solution of K.-S. eqns.                    :        0.004 s           0.002 s
  | Total energy evaluation                    :        0.004 s           0.001 s

  Partial memory accounting:
  | Current value for overall tracked memory usage on task 0  :           0.180 MB
  | Peak value for overall tracked memory usage on task 0     :           0.616 MB after allocating gradient_basis_wave
  | Largest tracked array allocation on task 0 so far         :           0.327 MB  when allocating gradient_basis_wave
  Note:  These values currently only include a subset of arrays which are explicitly tracked.
  The "true" memory usage will be greater.
------------------------------------------------------------

------------------------------------------------------------
          Begin self-consistency iteration #    5

  Date     :  20180215, Time     :  214446.978
------------------------------------------------------------
  Evaluating new KS density.
  Integration grid: deviation in total charge (<rho> - N_e) =   7.105427E-15
  Pulay mixing of updated and previous charge densities.

  Evaluating partitioned Hartree potential by multipole expansion.
  | Analytical far-field extrapolation by fixed multipoles:
  | Hartree multipole sum: apparent total charge =  -0.489294E-03
  Summing up the Hartree potential.
  Time summed over all CPUs for potential: real work        1.282 s, elapsed        1.442 s
  | RMS charge density error from multipole expansion :   0.227899E-01

  Integrating Hamiltonian matrix: batch-based integration.
  Time summed over all CPUs for integration: real work        1.368 s, elapsed        1.489 s

  Updating Kohn-Sham eigenvalues, eigenvectors, occupation numbers, and Fermi level.
  Solving generalized eigenproblem
  Updating Kohn-Sham eigenvalues and eigenfunctions.
  Solving real generalised eigenvalue problem by standard LAPACK (fast)

  Obtaining occupation numbers and chemical potential using ELSI.
  | Chemical potential (Fermi level):    -4.19023496eV
  Highest occupied state (VBM) at     -5.93396958 eV
  | Occupation number:      2.00000000

  Lowest unoccupied state (CBM) at    -0.48002161 eV
  | Occupation number:      0.00000000

  Overall HOMO-LUMO gap:      5.45394797 eV.

  Total energy components:
  | Sum of eigenvalues            :         -89.43137982 Ha       -2433.55166258 eV
  | XC energy correction          :         -24.39425353 Ha        -663.80141243 eV
  | XC potential correction       :          31.33870181 Ha         852.76946461 eV
  | Free-atom electrostatic energy:         -68.01361916 Ha       -1850.74474214 eV
  | Hartree energy correction     :          -6.55768576 Ha        -178.44370859 eV
  | vdW energy correction         :           0.00000000 Ha           0.00000000 eV
  | Entropy correction            :           0.00000000 Ha           0.00000000 eV
  | ---------------------------
  | Total energy                  :        -157.05823646 Ha       -4273.77206113 eV
  | Total energy, T -> 0          :        -157.05823646 Ha       -4273.77206113 eV  <-- do not rely on this value for anything but (periodic) metals
  | Electronic free energy        :        -157.05823646 Ha       -4273.77206113 eV

  Derived energy quantities:
  | Kinetic energy                :         156.32466171 Ha        4253.81047656 eV
  | Electrostatic energy          :        -288.98864463 Ha       -7863.78112527 eV
  | Energy correction for multipole
  | error in Hartree potential    :           0.03359052 Ha           0.91404447 eV
  | Sum of eigenvalues per atom                           :        -202.79597188 eV
  | Total energy (T->0) per atom                          :        -356.14767176 eV  <-- do not rely on this value for anything but (periodic) metals
  | Electronic free energy per atom                       :        -356.14767176 eV

  Self-consistency convergence accuracy:
  | Change of charge density      :  0.3397E-01
  | Change of sum of eigenvalues  :  0.7620E+01 eV
  | Change of total energy        :  0.3738E-01 eV

  End self-consistency iteration #     5       :  max(cpu_time)    wall_clock(cpu1)
  | Time for this iteration                    :        0.584 s           0.582 s
  | Charge density update                      :        0.172 s           0.171 s
  | Density mixing                             :        0.008 s           0.007 s
  | Hartree multipole update                   :        0.016 s           0.014 s
  | Hartree multipole summation                :        0.192 s           0.190 s
  | Integration                                :        0.200 s           0.197 s
  | Solution of K.-S. eqns.                    :        0.004 s           0.002 s
  | Total energy evaluation                    :        0.000 s           0.001 s

  Partial memory accounting:
  | Current value for overall tracked memory usage on task 0  :           0.180 MB
  | Peak value for overall tracked memory usage on task 0     :           0.616 MB after allocating gradient_basis_wave
  | Largest tracked array allocation on task 0 so far         :           0.327 MB  when allocating gradient_basis_wave
  Note:  These values currently only include a subset of arrays which are explicitly tracked.
  The "true" memory usage will be greater.
------------------------------------------------------------

------------------------------------------------------------
          Begin self-consistency iteration #    6

  Date     :  20180215, Time     :  214447.561
------------------------------------------------------------
  Evaluating new KS density.
  Integration grid: deviation in total charge (<rho> - N_e) =   7.105427E-15
  Pulay mixing of updated and previous charge densities.

  Evaluating partitioned Hartree potential by multipole expansion.
  | Analytical far-field extrapolation by fixed multipoles:
  | Hartree multipole sum: apparent total charge =  -0.507541E-03
  Summing up the Hartree potential.
  Time summed over all CPUs for potential: real work        1.305 s, elapsed        1.439 s
  | RMS charge density error from multipole expansion :   0.230654E-01

  Integrating Hamiltonian matrix: batch-based integration.
  Time summed over all CPUs for integration: real work        1.366 s, elapsed        1.476 s

  Updating Kohn-Sham eigenvalues, eigenvectors, occupation numbers, and Fermi level.
  Solving generalized eigenproblem
  Updating Kohn-Sham eigenvalues and eigenfunctions.
  Solving real generalised eigenvalue problem by standard LAPACK (fast)

  Obtaining occupation numbers and chemical potential using ELSI.
  | Chemical potential (Fermi level):    -4.12446538eV
  Highest occupied state (VBM) at     -5.86186226 eV
  | Occupation number:      2.00000000

  Lowest unoccupied state (CBM) at    -0.40815263 eV
  | Occupation number:      0.00000000

  Overall HOMO-LUMO gap:      5.45370963 eV.

  Total energy components:
  | Sum of eigenvalues            :         -89.34697816 Ha       -2431.25497664 eV
  | XC energy correction          :         -24.40338258 Ha        -664.04982650 eV
  | XC potential correction       :          31.35053751 Ha         853.09153036 eV
  | Free-atom electrostatic energy:         -68.01361916 Ha       -1850.74474214 eV
  | Hartree energy correction     :          -6.64458491 Ha        -180.80835494 eV
  | vdW energy correction         :           0.00000000 Ha           0.00000000 eV
  | Entropy correction            :           0.00000000 Ha           0.00000000 eV
  | ---------------------------
  | Total energy                  :        -157.05802731 Ha       -4273.76636985 eV
  | Total energy, T -> 0          :        -157.05802731 Ha       -4273.76636985 eV  <-- do not rely on this value for anything but (periodic) metals
  | Electronic free energy        :        -157.05802731 Ha       -4273.76636985 eV

  Derived energy quantities:
  | Kinetic energy                :         156.27982996 Ha        4252.59054261 eV
  | Electrostatic energy          :        -288.93447469 Ha       -7862.30708597 eV
  | Energy correction for multipole
  | error in Hartree potential    :           0.03285154 Ha           0.89393593 eV
  | Sum of eigenvalues per atom                           :        -202.60458139 eV
  | Total energy (T->0) per atom                          :        -356.14719749 eV  <-- do not rely on this value for anything but (periodic) metals
  | Electronic free energy per atom                       :        -356.14719749 eV

  Self-consistency convergence accuracy:
  | Change of charge density      :  0.1518E-01
  | Change of sum of eigenvalues  :  0.2297E+01 eV
  | Change of total energy        :  0.5691E-02 eV

  End self-consistency iteration #     6       :  max(cpu_time)    wall_clock(cpu1)
  | Time for this iteration                    :        0.588 s           0.588 s
  | Charge density update                      :        0.180 s           0.178 s
  | Density mixing                             :        0.012 s           0.011 s
  | Hartree multipole update                   :        0.012 s           0.011 s
  | Hartree multipole summation                :        0.192 s           0.190 s
  | Integration                                :        0.196 s           0.195 s
  | Solution of K.-S. eqns.                    :        0.004 s           0.002 s
  | Total energy evaluation                    :        0.000 s           0.001 s

  Partial memory accounting:
  | Current value for overall tracked memory usage on task 0  :           0.180 MB
  | Peak value for overall tracked memory usage on task 0     :           0.616 MB after allocating gradient_basis_wave
  | Largest tracked array allocation on task 0 so far         :           0.327 MB  when allocating gradient_basis_wave
  Note:  These values currently only include a subset of arrays which are explicitly tracked.
  The "true" memory usage will be greater.
------------------------------------------------------------

------------------------------------------------------------
          Begin self-consistency iteration #    7

  Date     :  20180215, Time     :  214448.150
------------------------------------------------------------
  Evaluating new KS density.
  Integration grid: deviation in total charge (<rho> - N_e) =   1.421085E-14
  Pulay mixing of updated and previous charge densities.

  Evaluating partitioned Hartree potential by multipole expansion.
  | Analytical far-field extrapolation by fixed multipoles:
  | Hartree multipole sum: apparent total charge =  -0.511334E-03
  Summing up the Hartree potential.
  Time summed over all CPUs for potential: real work        1.262 s, elapsed        1.324 s
  | RMS charge density error from multipole expansion :   0.230479E-01

  Integrating Hamiltonian matrix: batch-based integration.
  Time summed over all CPUs for integration: real work        1.338 s, elapsed        1.388 s

  Updating Kohn-Sham eigenvalues, eigenvectors, occupation numbers, and Fermi level.
  Solving generalized eigenproblem
  Updating Kohn-Sham eigenvalues and eigenfunctions.
  Solving real generalised eigenvalue problem by standard LAPACK (fast)

  Obtaining occupation numbers and chemical potential using ELSI.
  | Chemical potential (Fermi level):    -4.10420602eV
  Highest occupied state (VBM) at     -5.83582166 eV
  | Occupation number:      2.00000000

  Lowest unoccupied state (CBM) at    -0.38252363 eV
  | Occupation number:      0.00000000

  Overall HOMO-LUMO gap:      5.45329802 eV.

  Total energy components:
  | Sum of eigenvalues            :         -89.31931859 Ha       -2430.50232131 eV
  | XC energy correction          :         -24.40511177 Ha        -664.09688020 eV
  | XC potential correction       :          31.35284046 Ha         853.15419687 eV
  | Free-atom electrostatic energy:         -68.01361916 Ha       -1850.74474214 eV
  | Hartree energy correction     :          -6.67277439 Ha        -181.57542954 eV
  | vdW energy correction         :           0.00000000 Ha           0.00000000 eV
  | Entropy correction            :           0.00000000 Ha           0.00000000 eV
  | ---------------------------
  | Total energy                  :        -157.05798345 Ha       -4273.76517632 eV
  | Total energy, T -> 0          :        -157.05798345 Ha       -4273.76517632 eV  <-- do not rely on this value for anything but (periodic) metals
  | Electronic free energy        :        -157.05798345 Ha       -4273.76517632 eV

  Derived energy quantities:
  | Kinetic energy                :         156.27929197 Ha        4252.57590317 eV
  | Electrostatic energy          :        -288.93216364 Ha       -7862.24419929 eV
  | Energy correction for multipole
  | error in Hartree potential    :           0.03259998 Ha           0.88709049 eV
  | Sum of eigenvalues per atom                           :        -202.54186011 eV
  | Total energy (T->0) per atom                          :        -356.14709803 eV  <-- do not rely on this value for anything but (periodic) metals
  | Electronic free energy per atom                       :        -356.14709803 eV

  Self-consistency convergence accuracy:
  | Change of charge density      :  0.6947E-02
  | Change of sum of eigenvalues  :  0.7527E+00 eV
  | Change of total energy        :  0.1194E-02 eV

  End self-consistency iteration #     7       :  max(cpu_time)    wall_clock(cpu1)
  | Time for this iteration                    :        0.572 s           0.571 s
  | Charge density update                      :        0.184 s           0.183 s
  | Density mixing                             :        0.016 s           0.013 s
  | Hartree multipole update                   :        0.016 s           0.014 s
  | Hartree multipole summation                :        0.176 s           0.175 s
  | Integration                                :        0.184 s           0.182 s
  | Solution of K.-S. eqns.                    :        0.004 s           0.003 s
  | Total energy evaluation                    :        0.000 s           0.001 s

  Partial memory accounting:
  | Current value for overall tracked memory usage on task 0  :           0.180 MB
  | Peak value for overall tracked memory usage on task 0     :           0.616 MB after allocating gradient_basis_wave
  | Largest tracked array allocation on task 0 so far         :           0.327 MB  when allocating gradient_basis_wave
  Note:  These values currently only include a subset of arrays which are explicitly tracked.
  The "true" memory usage will be greater.
------------------------------------------------------------

------------------------------------------------------------
          Begin self-consistency iteration #    8

  Date     :  20180215, Time     :  214448.722
------------------------------------------------------------
  Evaluating new KS density.
  Integration grid: deviation in total charge (<rho> - N_e) =   1.421085E-14
  Pulay mixing of updated and previous charge densities.

  Evaluating partitioned Hartree potential by multipole expansion.
  | Analytical far-field extrapolation by fixed multipoles:
  | Hartree multipole sum: apparent total charge =  -0.521476E-03
  Summing up the Hartree potential.
  Time summed over all CPUs for potential: real work        1.300 s, elapsed        1.493 s
  | RMS charge density error from multipole expansion :   0.230998E-01

  Integrating Hamiltonian matrix: batch-based integration.
  Time summed over all CPUs for integration: real work        1.379 s, elapsed        1.511 s

  Updating Kohn-Sham eigenvalues, eigenvectors, occupation numbers, and Fermi level.
  Solving generalized eigenproblem
  Updating Kohn-Sham eigenvalues and eigenfunctions.
  Solving real generalised eigenvalue problem by standard LAPACK (fast)

  Obtaining occupation numbers and chemical potential using ELSI.
  | Chemical potential (Fermi level):    -4.04755062eV
  Highest occupied state (VBM) at     -5.76777422 eV
  | Occupation number:      2.00000000

  Lowest unoccupied state (CBM) at    -0.31686066 eV
  | Occupation number:      0.00000000

  Overall HOMO-LUMO gap:      5.45091356 eV.

  Total energy components:
  | Sum of eigenvalues            :         -89.24796278 Ha       -2428.56063109 eV
  | XC energy correction          :         -24.41165528 Ha        -664.27493824 eV
  | XC potential correction       :          31.36140833 Ha         853.38734042 eV
  | Free-atom electrostatic energy:         -68.01361916 Ha       -1850.74474214 eV
  | Hartree energy correction     :          -6.74610212 Ha        -183.57077863 eV
  | vdW energy correction         :           0.00000000 Ha           0.00000000 eV
  | Entropy correction            :           0.00000000 Ha           0.00000000 eV
  | ---------------------------
  | Total energy                  :        -157.05793102 Ha       -4273.76374967 eV
  | Total energy, T -> 0          :        -157.05793102 Ha       -4273.76374967 eV  <-- do not rely on this value for anything but (periodic) metals
  | Electronic free energy        :        -157.05793102 Ha       -4273.76374967 eV

  Derived energy quantities:
  | Kinetic energy                :         156.28003211 Ha        4252.59604338 eV
  | Electrostatic energy          :        -288.92630784 Ha       -7862.08485481 eV
  | Energy correction for multipole
  | error in Hartree potential    :           0.03215865 Ha           0.87508129 eV
  | Sum of eigenvalues per atom                           :        -202.38005259 eV
  | Total energy (T->0) per atom                          :        -356.14697914 eV  <-- do not rely on this value for anything but (periodic) metals
  | Electronic free energy per atom                       :        -356.14697914 eV

  Self-consistency convergence accuracy:
  | Change of charge density      :  0.5410E-02
  | Change of sum of eigenvalues  :  0.1942E+01 eV
  | Change of total energy        :  0.1427E-02 eV

  End self-consistency iteration #     8       :  max(cpu_time)    wall_clock(cpu1)
  | Time for this iteration                    :        0.620 s           0.618 s
  | Charge density update                      :        0.184 s           0.181 s
  | Density mixing                             :        0.012 s           0.026 s
  | Hartree multipole update                   :        0.012 s           0.011 s
  | Hartree multipole summation                :        0.196 s           0.197 s
  | Integration                                :        0.200 s           0.199 s
  | Solution of K.-S. eqns.                    :        0.004 s           0.002 s
  | Total energy evaluation                    :        0.004 s           0.001 s

  Partial memory accounting:
  | Current value for overall tracked memory usage on task 0  :           0.180 MB
  | Peak value for overall tracked memory usage on task 0     :           0.616 MB after allocating gradient_basis_wave
  | Largest tracked array allocation on task 0 so far         :           0.327 MB  when allocating gradient_basis_wave
  Note:  These values currently only include a subset of arrays which are explicitly tracked.
  The "true" memory usage will be greater.
------------------------------------------------------------

------------------------------------------------------------
          Begin self-consistency iteration #    9

  Date     :  20180215, Time     :  214449.341
------------------------------------------------------------
  Evaluating new KS density.
  Integration grid: deviation in total charge (<rho> - N_e) =   0.000000E+00
  Pulay mixing of updated and previous charge densities.

  Evaluating partitioned Hartree potential by multipole expansion.
  | Analytical far-field extrapolation by fixed multipoles:
  | Hartree multipole sum: apparent total charge =  -0.523700E-03
  Summing up the Hartree potential.
  Time summed over all CPUs for potential: real work        1.273 s, elapsed        1.329 s
  | RMS charge density error from multipole expansion :   0.231117E-01

  Integrating Hamiltonian matrix: batch-based integration.
  Time summed over all CPUs for integration: real work        1.329 s, elapsed        1.411 s

  Updating Kohn-Sham eigenvalues, eigenvectors, occupation numbers, and Fermi level.
  Solving generalized eigenproblem
  Updating Kohn-Sham eigenvalues and eigenfunctions.
  Solving real generalised eigenvalue problem by standard LAPACK (fast)

  Obtaining occupation numbers and chemical potential using ELSI.
  | Chemical potential (Fermi level):    -4.03469850eV
  Highest occupied state (VBM) at     -5.75358702 eV
  | Occupation number:      2.00000000

  Lowest unoccupied state (CBM) at    -0.30340981 eV
  | Occupation number:      0.00000000

  Overall HOMO-LUMO gap:      5.45017721 eV.

  Total energy components:
  | Sum of eigenvalues            :         -89.23122325 Ha       -2428.10512514 eV
  | XC energy correction          :         -24.41340501 Ha        -664.32255073 eV
  | XC potential correction       :          31.36368918 Ha         853.44940561 eV
  | Free-atom electrostatic energy:         -68.01361916 Ha       -1850.74474214 eV
  | Hartree energy correction     :          -6.76337136 Ha        -184.04069871 eV
  | vdW energy correction         :           0.00000000 Ha           0.00000000 eV
  | Entropy correction            :           0.00000000 Ha           0.00000000 eV
  | ---------------------------
  | Total energy                  :        -157.05792960 Ha       -4273.76371112 eV
  | Total energy, T -> 0          :        -157.05792960 Ha       -4273.76371112 eV  <-- do not rely on this value for anything but (periodic) metals
  | Electronic free energy        :        -157.05792960 Ha       -4273.76371112 eV

  Derived energy quantities:
  | Kinetic energy                :         156.28306473 Ha        4252.67856520 eV
  | Electrostatic energy          :        -288.92758932 Ha       -7862.11972558 eV
  | Energy correction for multipole
  | error in Hartree potential    :           0.03209006 Ha           0.87321484 eV
  | Sum of eigenvalues per atom                           :        -202.34209376 eV
  | Total energy (T->0) per atom                          :        -356.14697593 eV  <-- do not rely on this value for anything but (periodic) metals
  | Electronic free energy per atom                       :        -356.14697593 eV

  Self-consistency convergence accuracy:
  | Change of charge density      :  0.1059E-02
  | Change of sum of eigenvalues  :  0.4555E+00 eV
  | Change of total energy        :  0.3855E-04 eV

  End self-consistency iteration #     9       :  max(cpu_time)    wall_clock(cpu1)
  | Time for this iteration                    :        0.568 s           0.568 s
  | Charge density update                      :        0.176 s           0.175 s
  | Density mixing                             :        0.012 s           0.013 s
  | Hartree multipole update                   :        0.016 s           0.014 s
  | Hartree multipole summation                :        0.176 s           0.176 s
  | Integration                                :        0.188 s           0.186 s
  | Solution of K.-S. eqns.                    :        0.004 s           0.002 s
  | Total energy evaluation                    :        0.000 s           0.001 s

  Partial memory accounting:
  | Current value for overall tracked memory usage on task 0  :           0.180 MB
  | Peak value for overall tracked memory usage on task 0     :           0.616 MB after allocating gradient_basis_wave
  | Largest tracked array allocation on task 0 so far         :           0.327 MB  when allocating gradient_basis_wave
  Note:  These values currently only include a subset of arrays which are explicitly tracked.
  The "true" memory usage will be greater.
------------------------------------------------------------

------------------------------------------------------------
          Begin self-consistency iteration #   10

  Date     :  20180215, Time     :  214449.910
------------------------------------------------------------
  Evaluating new KS density.
  Integration grid: deviation in total charge (<rho> - N_e) =   1.421085E-14
  Pulay mixing of updated and previous charge densities.

  Evaluating partitioned Hartree potential by multipole expansion.
  | Analytical far-field extrapolation by fixed multipoles:
  | Hartree multipole sum: apparent total charge =  -0.523654E-03
  Summing up the Hartree potential.
  Time summed over all CPUs for potential: real work        1.271 s, elapsed        1.318 s
  | RMS charge density error from multipole expansion :   0.231133E-01

  Integrating Hamiltonian matrix: batch-based integration.
[...]
  |   Hirshfeld dipole moment :      0.08900643
  |   Hirshfeld second moments:      0.10750136      -0.00474711      -0.00258120
  |                                 -0.00474711       0.08820515       0.00088316
  |                                 -0.00258120       0.00088316       0.10992946
  ----------------------------------------------------------------------
  | Atom     8: H
  |   Hirshfeld charge        :      0.03701879
  |   Free atom volume        :      9.95071624
  |   Hirshfeld volume        :      6.41315536
  |   Hirshfeld dipole vector :     -0.03730272      -0.02448575       0.07944895
  |   Hirshfeld dipole moment :      0.09112179
  |   Hirshfeld second moments:      0.09814418       0.00125981       0.00734688
  |                                  0.00125981       0.09676825       0.00460861
  |                                  0.00734688       0.00460861       0.09317945
  ----------------------------------------------------------------------
  | Atom     9: H
  |   Hirshfeld charge        :      0.03701879
  |   Free atom volume        :      9.95071624
  |   Hirshfeld volume        :      6.41315536
  |   Hirshfeld dipole vector :      0.03730272       0.02448575       0.07944895
  |   Hirshfeld dipole moment :      0.09112179
  |   Hirshfeld second moments:      0.09814418       0.00125981      -0.00734688
  |                                  0.00125981       0.09676825      -0.00460861
  |                                 -0.00734688      -0.00460861       0.09317945
  ----------------------------------------------------------------------
  | Atom    10: H
  |   Hirshfeld charge        :      0.04084653
  |   Free atom volume        :      9.95071624
  |   Hirshfeld volume        :      6.37184679
  |   Hirshfeld dipole vector :     -0.03766683      -0.00519626      -0.07719317
  |   Hirshfeld dipole moment :      0.08604985
  |   Hirshfeld second moments:      0.09593194      -0.00849730      -0.00755013
  |                                 -0.00849730       0.10344336      -0.00148788
  |                                 -0.00755013      -0.00148788       0.09035717
  ----------------------------------------------------------------------
  | Atom    11: H
  |   Hirshfeld charge        :      0.04338019
  |   Free atom volume        :      9.95071624
  |   Hirshfeld volume        :      6.11657975
  |   Hirshfeld dipole vector :      0.01666425       0.08679717       0.01052141
  |   Hirshfeld dipole moment :      0.08900643
  |   Hirshfeld second moments:      0.10750136      -0.00474711       0.00258120
  |                                 -0.00474711       0.08820515      -0.00088316
  |                                  0.00258120      -0.00088316       0.10992946
  ----------------------------------------------------------------------
  | Atom    12: H
  |   Hirshfeld charge        :      0.04320223
  |   Free atom volume        :      9.95071624
  |   Hirshfeld volume        :      6.14371343
  |   Hirshfeld dipole vector :      0.07992822      -0.03600510      -0.00973149
  |   Hirshfeld dipole moment :      0.08820198
  |   Hirshfeld second moments:      0.09031564       0.00727672       0.00480291
  |                                  0.00727672       0.10432765       0.00114071
  |                                  0.00480291       0.00114071       0.10900871
  ----------------------------------------------------------------------


  Total energy components:
  | Sum of eigenvalues            :         -89.23121345 Ha       -2428.10485851 eV
  | XC energy correction          :         -24.41352531 Ha        -664.32582413 eV
  | XC potential correction       :          31.36384097 Ha         853.45353607 eV
  | Free-atom electrostatic energy:         -68.01361916 Ha       -1850.74474214 eV
  | Hartree energy correction     :          -6.76341337 Ha        -184.04184180 eV
  | vdW energy correction         :          -0.00233163 Ha          -0.06344688 eV
  | Entropy correction            :           0.00000000 Ha           0.00000000 eV
  | ---------------------------
  | Total energy                  :        -157.06026194 Ha       -4273.82717739 eV
  | Total energy, T -> 0          :        -157.06026194 Ha       -4273.82717739 eV  <-- do not rely on this value for anything but (periodic) metals
  | Electronic free energy        :        -157.06026194 Ha       -4273.82717739 eV

  Derived energy quantities:
  | Kinetic energy                :         156.28362041 Ha        4252.69368591 eV
  | Electrostatic energy          :        -288.92802541 Ha       -7862.13159229 eV
  | Energy correction for multipole
  | error in Hartree potential    :           0.03209905 Ha           0.87345963 eV
  | Sum of eigenvalues per atom                           :        -202.34207154 eV
  | Total energy (T->0) per atom                          :        -356.15226478 eV  <-- do not rely on this value for anything but (periodic) metals
  | Electronic free energy per atom                       :        -356.15226478 eV

  atomic forces [eV/Ang]:
  -----------------------
  atom #    1
   Hellmann-Feynman              :  0.275606E+00  0.222903E+00  0.346462E+00
   Ionic forces                  :  0.000000E+00  0.000000E+00  0.000000E+00
   Multipole                     : -0.454415E+00 -0.362740E+00 -0.603150E+00
   Pulay + GGA                   :  0.193910E+00  0.154142E+00  0.253198E+00
   Van der Waals                 : -0.106696E-01 -0.874315E-02  0.303910E-02
   ----------------------------------------------------------------
   Total forces(   1)            :  0.443159E-02  0.556198E-02 -0.450953E-03
  atom #    2
   Hellmann-Feynman              :  0.149808E+01  0.958305E+00  0.147407E+00
   Ionic forces                  :  0.000000E+00  0.000000E+00  0.000000E+00
   Multipole                     : -0.109566E-01  0.364461E-01  0.376621E+00
   Pulay + GGA                   : -0.148437E+01 -0.100194E+01 -0.523483E+00
   Van der Waals                 :  0.636469E-03 -0.565928E-04  0.541943E-02
   ----------------------------------------------------------------
   Total forces(   2)            :  0.338412E-02 -0.724736E-02  0.596458E-02
  atom #    3
   Hellmann-Feynman              : -0.149808E+01 -0.958305E+00  0.147407E+00
   Ionic forces                  :  0.000000E+00  0.000000E+00  0.000000E+00
   Multipole                     :  0.109566E-01 -0.364460E-01  0.376621E+00
   Pulay + GGA                   :  0.148437E+01  0.100194E+01 -0.523483E+00
   Van der Waals                 : -0.636469E-03  0.565926E-04  0.541943E-02
   ----------------------------------------------------------------
   Total forces(   3)            : -0.338412E-02  0.724735E-02  0.596458E-02
  atom #    4
   Hellmann-Feynman              : -0.275606E+00 -0.222903E+00  0.346462E+00
   Ionic forces                  :  0.000000E+00  0.000000E+00  0.000000E+00
   Multipole                     :  0.454415E+00  0.362740E+00 -0.603150E+00
   Pulay + GGA                   : -0.193910E+00 -0.154142E+00  0.253198E+00
   Van der Waals                 :  0.106696E-01  0.874315E-02  0.303910E-02
   ----------------------------------------------------------------
   Total forces(   4)            : -0.443159E-02 -0.556198E-02 -0.450953E-03
  atom #    5
   Hellmann-Feynman              :  0.590049E-01  0.979122E-01  0.383720E-01
   Ionic forces                  :  0.000000E+00  0.000000E+00  0.000000E+00
   Multipole                     :  0.109571E-01 -0.324102E-01 -0.131702E+00
   Pulay + GGA                   : -0.614809E-01 -0.297305E-01  0.968580E-01
   Van der Waals                 : -0.768880E-02 -0.741764E-02 -0.483149E-02
   ----------------------------------------------------------------
   Total forces(   5)            :  0.792255E-03  0.283538E-01 -0.130322E-02
  atom #    6
   Hellmann-Feynman              : -0.511218E-02  0.148127E-01  0.443258E-01
   Ionic forces                  :  0.000000E+00  0.000000E+00  0.000000E+00
   Multipole                     : -0.970388E-01  0.214947E-01 -0.434521E-01
   Pulay + GGA                   :  0.102355E+00 -0.309140E-01  0.144074E-01
   Van der Waals                 :  0.405047E-02  0.308913E-02 -0.257339E-02
   ----------------------------------------------------------------
   Total forces(   6)            :  0.425412E-02  0.848246E-02  0.127077E-01
  atom #    7
   Hellmann-Feynman              :  0.102704E-01 -0.645454E-02  0.317997E-01
   Ionic forces                  :  0.000000E+00  0.000000E+00  0.000000E+00
   Multipole                     : -0.361162E-01 -0.969533E-01 -0.376753E-01
   Pulay + GGA                   :  0.288467E-01  0.103236E+00 -0.142671E-01
   Van der Waals                 :  0.326216E-02  0.141691E-02 -0.317653E-02
   ----------------------------------------------------------------
   Total forces(   7)            :  0.626308E-02  0.124528E-02 -0.233192E-01
  atom #    8
   Hellmann-Feynman              : -0.336014E-01 -0.442417E-01 -0.550679E-01
   Ionic forces                  :  0.000000E+00  0.000000E+00  0.000000E+00
   Multipole                     : -0.116657E-01 -0.114444E-01  0.152281E+00
   Pulay + GGA                   :  0.487878E-01  0.319739E-01 -0.943877E-01
   Van der Waals                 :  0.382069E-02  0.297042E-02  0.212288E-02
   ----------------------------------------------------------------
   Total forces(   8)            :  0.734135E-02 -0.207417E-01  0.494844E-02
  atom #    9
   Hellmann-Feynman              :  0.336015E-01  0.442417E-01 -0.550679E-01
   Ionic forces                  :  0.000000E+00  0.000000E+00  0.000000E+00
   Multipole                     :  0.116657E-01  0.114444E-01  0.152281E+00
   Pulay + GGA                   : -0.487878E-01 -0.319740E-01 -0.943877E-01
   Van der Waals                 : -0.382069E-02 -0.297042E-02  0.212288E-02
   ----------------------------------------------------------------
   Total forces(   9)            : -0.734135E-02  0.207417E-01  0.494844E-02
  atom #   10
   Hellmann-Feynman              : -0.590049E-01 -0.979122E-01  0.383720E-01
   Ionic forces                  :  0.000000E+00  0.000000E+00  0.000000E+00
   Multipole                     : -0.109571E-01  0.324103E-01 -0.131702E+00
   Pulay + GGA                   :  0.614809E-01  0.297305E-01  0.968580E-01
   Van der Waals                 :  0.768880E-02  0.741764E-02 -0.483149E-02
   ----------------------------------------------------------------
   Total forces(  10)            : -0.792254E-03 -0.283538E-01 -0.130323E-02
  atom #   11
   Hellmann-Feynman              : -0.102704E-01  0.645454E-02  0.317997E-01
   Ionic forces                  :  0.000000E+00  0.000000E+00  0.000000E+00
   Multipole                     :  0.361162E-01  0.969533E-01 -0.376753E-01
   Pulay + GGA                   : -0.288468E-01 -0.103236E+00 -0.142671E-01
   Van der Waals                 : -0.326216E-02 -0.141691E-02 -0.317653E-02
   ----------------------------------------------------------------
   Total forces(  11)            : -0.626308E-02 -0.124527E-02 -0.233192E-01
  atom #   12
   Hellmann-Feynman              :  0.511218E-02 -0.148127E-01  0.443258E-01
   Ionic forces                  :  0.000000E+00  0.000000E+00  0.000000E+00
   Multipole                     :  0.970388E-01 -0.214947E-01 -0.434521E-01
   Pulay + GGA                   : -0.102355E+00  0.309140E-01  0.144074E-01
   Van der Waals                 : -0.405047E-02 -0.308913E-02 -0.257339E-02
   ----------------------------------------------------------------
   Total forces(  12)            : -0.425412E-02 -0.848245E-02  0.127077E-01

  Timings for VdW correction (Tkatchenko-Scheffler 2009 or later):
  | CPU time:        0.040 s, Wall clock time:        0.042 s.
  Removing unitary transformations (pure translations, rotations) from forces on atoms.
  Atomic forces before filtering:
  | Net force on center of mass :   0.821418E-09 -0.184667E-08 -0.290546E-02 eV/A
  | Net torque on center of mass:   0.520679E-09  0.273501E-08 -0.119876E-02 eV
  Atomic forces after filtering:
  | Net force on center of mass :  -0.696899E-18  0.557519E-17  0.836279E-17 eV/A
  | Net torque on center of mass:  -0.154889E-16  0.177016E-16 -0.368783E-18 eV

  Energy and forces in a compact form:
  | Total energy uncorrected      :         -0.427382717739180E+04 eV
  | Total energy corrected        :         -0.427382717739180E+04 eV  <-- do not rely on this value for anything but (periodic) metals
  | Electronic free energy        :         -0.427382717739180E+04 eV
  Total atomic forces (unitary forces cleaned) [eV/Ang]:
  |   1          0.446392477026871E-02          0.551692854971414E-02         -0.208831894099966E-03
  |   2          0.339740048336205E-02         -0.726650869676752E-02          0.620670235716401E-02
  |   3         -0.339739925881630E-02          0.726650730180982E-02          0.620670160441374E-02
  |   4         -0.446392507520978E-02         -0.551692814571181E-02         -0.208831630295012E-03
  |   5          0.820186078534866E-03          0.283274259944101E-01         -0.106110207585459E-02
  |   6          0.427004378356650E-02          0.840304327323823E-02          0.129497941182396E-01
  |   7          0.633278336258603E-02          0.119379448749512E-02         -0.230771230372077E-01
  |   8          0.736404952029985E-02         -0.207752015515433E-01          0.519056032680099E-02
  |   9         -0.736404736309907E-02          0.207751994142938E-01          0.519055844765494E-02
  |  10         -0.820184707550995E-03         -0.283274307167018E-01         -0.106110406780217E-02
  |  11         -0.633279055622961E-02         -0.119379247408059E-02         -0.230771237392706E-01
  |  12         -0.427004103771225E-02         -0.840303743615619E-02          0.129497995902567E-01

  ------------------------------------ 
  Start decomposition of the XC Energy 
  ------------------------------------ 
  X and C from original XC functional choice 
  Hartree-Fock Energy :          0.000000000 Ha              0.000000000 eV
  X Energy            :        -23.397066244 Ha           -636.666565747 eV
  C Energy            :         -1.016459063 Ha            -27.659258387 eV
  Total XC Energy     :        -24.413525307 Ha           -664.325824135 eV
  ------------------------------------ 
  LDA X and C from self-consistent density 
  X Energy LDA        :        -21.150606660 Ha           -575.537290237 eV
  C Energy LDA        :         -1.974617432 Ha            -53.732074175 eV
  ------------------------------------ 
  End decomposition of the XC Energy 
  ------------------------------------ 

------------------------------------------------------------

------------------------------------------------------------------------------
  Final output of selected total energy values:

  The following output summarizes some interesting total energy values
  at the end of a run (AFTER all relaxation, molecular dynamics, etc.).

  | Total energy of the DFT / Hartree-Fock s.c.f. calculation      :          -4273.827177392 eV
  | Final zero-broadening corrected energy (caution - metals only) :          -4273.827177392 eV
  | For reference only, the value of 1 Hartree used in FHI-aims is :             27.211384500 eV

  Before relying on these values, please be sure to understand exactly which
  total energy value is referred to by a given number. Different objects may
  all carry the same name 'total energy'. Definitions:

  Total energy of the DFT / Hartree-Fock s.c.f. calculation:
  | Note that this energy does not include ANY quantities calculated after the
  | s.c.f. cycle, in particular not ANY RPA, MP2, etc. many-body perturbation terms.

  Final zero-broadening corrected energy:
  | For metallic systems only, a broadening of the occupation numbers at the Fermi
  | level can be extrapolated back to zero broadening by an electron-gas inspired
  | formula. For all systems that are not real metals, this value can be
  | meaningless and should be avoided.

------------------------------------------------------------------------------
  Methods described in the following list of references were used in this FHI-aims run.
  If you publish the results, please make sure to cite these reference if they apply.
  FHI-aims is an academic code, and for our developers (often, Ph.D. students
  and postdocs), scientific credit in the community is essential.
  Thank you for helping us!

  For any use of FHI-aims, please cite:

    Volker Blum, Ralf Gehrke, Felix Hanke, Paula Havu, Ville Havu,
    Xinguo Ren, Karsten Reuter, and Matthias Scheffler
    'Ab initio molecular simulations with numeric atom-centered orbitals'
    Computer Physics Communications 180, 2175-2196 (2009)
    http://dx.doi.org/10.1016/j.cpc.2009.06.022


  For the real-space grid partitioning and parallelization used in this calculation, please cite:

    Ville Havu, Volker Blum, Paula Havu, and Matthias Scheffler,
    'Efficient O(N) integration for all-electron electronic structure calculation'
    'using numerically tabulated basis functions'
    Journal of Computational Physics 228, 8367-8379 (2009).
    http://dx.doi.org/10.1016/j.jcp.2009.08.008

  Of course, there are many other important community references, e.g., those cited in the
  above references. Our list is limited to references that describe implementations in the
  FHI-aims code. The reason is purely practical (length of this list) - please credit others as well.

------------------------------------------------------------
          Leaving FHI-aims.
          Date     :  20180215, Time     :  214454.416

          Computational steps:
          | Number of self-consistency cycles          :           15
          | Number of SCF (re)initializations          :            1

          Detailed time accounting                     :  max(cpu_time)    wall_clock(cpu1)
          | Total time                                 :       10.380 s          10.446 s
          | Preparation time                           :        0.128 s           0.145 s
          | Boundary condition initalization           :        0.000 s           0.000 s
          | Grid partitioning                          :        0.080 s           0.080 s
          | Preloading free-atom quantities on grid    :        0.004 s           0.003 s
          | Free-atom superposition energy             :        0.032 s           0.031 s
          | Total time for integrations                :        3.228 s           3.209 s
          | Total time for solution of K.-S. equations :        0.072 s           0.051 s
          | Total time for density & force components  :        3.316 s           3.293 s
          | Total time for mixing                      :        0.172 s           0.190 s
          | Total time for Hartree multipole update    :        0.204 s           0.178 s
          | Total time for Hartree multipole sum       :        3.084 s           3.069 s
          | Total time for total energy evaluation     :        0.012 s           0.021 s
          | Total time for vdW correction              :        0.040 s           0.042 s

          Partial memory accounting:
          | Residual value for overall tracked memory usage across tasks :           0.000 MB (should be 0.000 MB)
          | Peak values for overall tracked memory usage (after allocating hessian_basis_wave):
          |   Minimum:        1.380 MB (on task 1)
          |   Maximum:        1.380 MB (on task 1)
          |   Average:        1.380 MB
          | Largest tracked array allocation (hessian_basis_wave):
          |   Minimum:        0.654 MB (on task 1)
          |   Maximum:        0.654 MB (on task 1)
          |   Average:        0.654 MB
          Note:  These values currently only include a subset of arrays which are explicitly tracked.
          The "true" memory usage will be greater.

          Have a nice day.
------------------------------------------------------------
