  MPI-parallelism will be employed.
------------------------------------------------------------
          Invoking FHI-aims ...

          When using FHI-aims, please cite the following reference:

          Volker Blum, Ralf Gehrke, Felix Hanke, Paula Havu,
          Ville Havu, Xinguo Ren, Karsten Reuter, and Matthias Scheffler,
          'Ab Initio Molecular Simulations with Numeric Atom-Centered Orbitals',
          Computer Physics Communications 180, 2175-2196 (2009)

          For any questions about FHI-aims, please visit the aimsclub website
          with its forums and wiki. Contributions to both the forums and the
          wiki are warmly encouraged - they are for you, and everyone is welcome there.

------------------------------------------------------------



  Date     :  20190817, Time     :  153614.239
  Time zero on CPU 1             :   0.361740000000000E-01  s.
  Internal wall clock time zero  :           335288174.239  s.

  FHI-aims created a unique identifier for this run for later identification
  aims_uuid : E2DF7032-6FCA-4D7D-AEC7-8E625B04EADB

  Build configuration of the current instance of FHI-aims
  -------------------------------------------------------
  FHI-aims version      : 190813
  Commit number         : 3da7baeb3
  CMake host system     : Linux-4.4.180-94.97-default
  CMake version         : 3.5.2
  Fortran compiler      : /mpcdf/soft/SLE_12_SP3/packages/x86_64/intel_parallel_studio/2018.4/compilers_and_libraries_2018.5.274/linux/mpi/bin64/mpiifort (Intel) version 18.0.5.20180823
  Fortran compiler flags: -O3 -ip -fp-model precise
  C compiler            : /mpcdf/soft/SLE_12_SP3/packages/skylake/intel/18.0.5/bin/icc (Intel) version 18.0.5.20180823
  C compiler flags      : -O3 -ip -fp-model precise
  Architecture          :
  Using MPI
  Using Scalapack
  Using C files
  Using SPGlib
  Using i-PI
  Linking against: /mpcdf/soft/SLE_12_SP3/packages/x86_64/anaconda/3.5.1.0/lib/libmkl_intel_lp64.so
                   /mpcdf/soft/SLE_12_SP3/packages/x86_64/anaconda/3.5.1.0/lib/libmkl_sequential.so
                   /mpcdf/soft/SLE_12_SP3/packages/x86_64/anaconda/3.5.1.0/lib/libmkl_core.so
                   /mpcdf/soft/SLE_12_SP3/packages/x86_64/anaconda/3.5.1.0/lib/libmkl_blacs_intelmpi_lp64.so
                   /mpcdf/soft/SLE_12_SP3/packages/x86_64/anaconda/3.5.1.0/lib/libmkl_scalapack_lp64.so

  Using        8 parallel tasks.
  Task        0 on host co1631 reporting.
  Task        1 on host co1631 reporting.
  Task        2 on host co1631 reporting.
  Task        3 on host co1631 reporting.
  Task        4 on host co1631 reporting.
  Task        5 on host co1631 reporting.
  Task        6 on host co1631 reporting.
  Task        7 on host co1631 reporting.

  Performing system and environment tests:
  | Environment variable OMP_NUM_THREADS correctly set to 1.
  | Maximum stacksize for task 0: unlimited
  | Maximum stacksize for task 1: unlimited
  | Maximum stacksize for task 2: unlimited
  | Maximum stacksize for task 3: unlimited
  | Maximum stacksize for task 4: unlimited
  | Maximum stacksize for task 5: unlimited
  | Maximum stacksize for task 6: unlimited
  | Maximum stacksize for task 7: unlimited
  | Current stacksize for task 0: unlimited
  | Current stacksize for task 1: unlimited
  | Current stacksize for task 2: unlimited
  | Current stacksize for task 3: unlimited
  | Current stacksize for task 4: unlimited
  | Current stacksize for task 5: unlimited
  | Current stacksize for task 6: unlimited
  | Current stacksize for task 7: unlimited
  | Checking for scalapack...
  | Testing pdtran()...
  | All pdtran() tests passed.

  Obtaining array dimensions for all initial allocations:
  
  -----------------------------------------------------------------------
  Parsing control.in (first pass over file, find array dimensions only).
  The contents of control.in will be repeated verbatim below
  unless switched off by setting 'verbatim_writeout .false.' .
  in the first line of control.in .
  -----------------------------------------------------------------------
  
  #  Volker Blum, FHI 2004 : Input file for LocalOrb code project
  #
  #  Input file control.in : All computational details for structure geometry.in
  #
  #  * First, general computational parameters:
  #         xc           - specifies type of exchange-correlation potential
  #         relativistic - specifies the type of kinetic energy expression
  #         empty_states - specifies the number of empty states per atom to be included
  #         KS_method    - specifies the treatment of the Kohn-Sham equations (e.g., full diagonalisation by Lapack)
  #         charge_mix_param - mixing parameter for linear charge-density mixing
  #         sc_accuracy_rho - convergence criterion for the average charge
  #                        density distance
  #         sc_accuracy_eev - convergence criterion for the sum of eigenvalues
  #                        between different sc iterations
  #         sc_accuracy_etot - convergence criterion for the total energy
  #                        between different sc iterations
  #         force_potential - Force the use of a debug-type potential,
  #                           e.g. superposition of free atoms
  #
    xc             pw-lda
    spin           none
    relativistic   none
    calculate_atom_bsse .true.
    basis_threshold 1.e-6
    occupation_type gaussian 0.05
    occupation_acc 1e-08
    mixer          pulay
    ini_linear_mixing 0
    charge_mix_param  0.2
    sc_accuracy_rho  1E-6
    sc_accuracy_eev  1E-4
    sc_accuracy_etot 1E-6
    sc_iter_limit 30
    prodbas_threshold 1.e-4
    KS_method         elpa
  #  elpa_settings two_step_solver
  
    empty_states 300
  
  # Loadbalancing
  #  load_balancing .true.
  #  use_local_index .true.
  #
  #  * Next, specify output options:
  #    - basis
  #    - matrices
  #    - grids
  #    - v_eff
  #    - v_hartree (partitioned Hartree potentials)
  #
  #  output       basis
  #  output       matrices
  #  output       grids
  #  output       v_eff
  #  output       v_hartree
  #  output       density
  #
  #  * Finally, all details relating to the chemical elements ("species"):
  ################################################################################
  #
  #  FHI-aims code project
  #  VB, Fritz-Haber Institut, 2007
  #
  #  Suggested "safe" defaults for C atom (to be pasted into control.in file)
  #
  ################################################################################
    species        C
  #     global species definitions
      nucleus             6
      mass                12.0107
  #
      l_hartree           6
  #
      cut_pot             4.0  2.0  1.0
  #    basis_dep_cutoff    1e-4
  #
      radial_base         34 7.0
      radial_multiplier   2
      angular_grids specified
        division   0.4031  110
        division   0.5191  194
        division   0.6263  302
        division   0.8150  434
  #      division   0.8501  590
  #     division   0.9238  770
  #     division   1.6076  974
  #     outer_grid  974
        outer_grid  434
  ################################################################################
  #
  #  Definition of "minimal" basis
  #
  ################################################################################
  #     valence basis states
      valence      2  s   2.
      valence      2  p   2.
  #     ion occupancy
      ion_occ      2  s   1.
      ion_occ      2  p   1.
  ################################################################################
  #
  #  Suggested additional basis functions. For production calculations,
  #  uncomment them one after another (the most important basis functions are
  #  listed first).
  #
  #  Constructed for dimers: 1.0 A, 1.25 A, 1.5 A, 2.0 A, 3.0 A
  #
  ################################################################################
  #  "First tier" - improvements: -1214.57 meV to -155.61 meV
       hydro 2 p 1.7
       hydro 3 d 6
       hydro 2 s 4.9
  #  "Second tier" - improvements: -67.75 meV to -5.23 meV
       hydro 4 f 9.8
       hydro 3 p 5.2
       hydro 3 s 4.3
       hydro 5 g 14.4
       hydro 3 d 6.2
  #  "Third tier" - improvements: -2.43 meV to -0.60 meV
       hydro 2 p 5.6
       hydro 2 s 1.4
       hydro 3 d 4.9
       hydro 4 f 11.2
  #  "Fourth tier" - improvements: -0.39 meV to -0.18 meV
  #     hydro 2 p 2.1
  #     hydro 5 g 16.4
  #     hydro 4 d 13.2
  #     hydro 3 s 13.6
  #     hydro 4 f 17.6
  #  Further basis functions - improvements: -0.08 meV and below
  #     hydro 3 s 2
  #     hydro 3 p 6
  #     hydro 4 d 20
  ################################################################################
  #
  #  FHI-aims code project
  #  VB, Fritz-Haber Institut, 2007
  #
  #  Suggested "safe" defaults for O atom (to be pasted into control.in file)
  #
  ################################################################################
    species        O
  #     global species definitions
      nucleus             8
      mass                15.9994
  #
      l_hartree           6
  #
      cut_pot             4.0  2.0  1.0
  #    basis_dep_cutoff    1e-4
  #
      radial_base         36 7.0
      radial_multiplier   2
       angular_grids specified
        division   0.4087  110
        division   0.5181  194
        division   0.6184  302
        division   0.7315  434
  #      division   0.7934  590
  #      division   0.9656  770
  #      division   1.4041  974
  #      outer_grid 974
        outer_grid  434
  ################################################################################
  #
  #  Definition of "minimal" basis
  #
  ################################################################################
  #     valence basis states
      valence      2  s   2.
      valence      2  p   4.
  #     ion occupancy
      ion_occ      2  s   1.
      ion_occ      2  p   3.
  ################################################################################
  #
  #  Suggested additional basis functions. For production calculations,
  #  uncomment them one after another (the most important basis functions are
  #  listed first).
  #
  #  Constructed for dimers: 1.0 A, 1.208 A, 1.5 A, 2.0 A, 3.0 A
  #
  ################################################################################
  #  "First tier" - improvements: -699.05 meV to -159.38 meV
       hydro 2 p 1.8
       hydro 3 d 7.6
       hydro 3 s 6.4
  #  "Second tier" - improvements: -49.91 meV to -5.39 meV
       hydro 4 f 11.6
       hydro 3 p 6.2
       hydro 3 d 5.6
       hydro 5 g 17.6
       hydro 1 s 0.75
  #  "Third tier" - improvements: -2.83 meV to -0.50 meV
       ionic 2 p auto
       hydro 4 f 10.8
       hydro 4 d 4.7
       hydro 2 s 6.8
  #  "Fourth tier" - improvements: -0.40 meV to -0.12 meV
  #     hydro 3 p 5
  #     hydro 3 s 3.3
  #     hydro 5 g 15.6
  #     hydro 4 f 17.6
  #     hydro 4 d 14
  # Further basis functions - -0.08 meV and below
  #     hydro 3 s 2.1
  #     hydro 4 d 11.6
  #     hydro 3 p 16
  #     hydro 2 s 17.2
  
  -----------------------------------------------------------------------
  Completed first pass over input file control.in .
  -----------------------------------------------------------------------
  
  
  -----------------------------------------------------------------------
  Parsing geometry.in (first pass over file, find array dimensions only).
  The contents of geometry.in will be repeated verbatim below
  unless switched off by setting 'verbatim_writeout .false.' .
  in the first line of geometry.in .
  -----------------------------------------------------------------------
  
  atom 0.0 0.0 0.0 C
  atom 0.0 0.0 1.10 O
  
  -----------------------------------------------------------------------
  Completed first pass over input file geometry.in .
  -----------------------------------------------------------------------
  

  Basic array size parameters:
  | Number of species                 :        2
  | Number of atoms                   :        2
  | Max. basis fn. angular momentum   :        4
  | Max. atomic/ionic basis occupied n:        2
  | Max. number of basis fn. types    :        3
  | Max. radial fns per species/type  :       12
  | Max. logarithmic grid size        :     1301
  | Max. radial integration grid size :       73
  | Max. angular integration grid size:      434
  | Max. angular grid division number :        8
  | Radial grid for Hartree potential :     1301
  | Number of spin channels           :        1

------------------------------------------------------------
          Reading file control.in.
------------------------------------------------------------
  XC: Using Perdew-Wang parametrisation of Ceperley-Alder LDA.
  Spin treatment: No spin polarisation.
  Non-relativistic treatment of kinetic energy.
  Atomization BSSE calculation requested.
  Threshold for basis singularities:  0.1000E-05
  Occupation type: Gaussian broadening, width =   0.500000E-01 eV.
  Accuracy of occupation numbers  :  0.1000E-07
  Using pulay charge density mixing.
  Number of initial iterations with linear charge density mixing:     0
  Charge density mixing - mixing parameter:     0.2000
  Convergence accuracy of self-consistent charge density:  0.1000E-05
  Convergence accuracy of sum of eigenvalues:  0.1000E-03
  Convergence accuracy of total energy:  0.1000E-05
  Maximum number of s.-c. iterations  :    30
  * Ignoring prodbas_threshold
  Kohn-Sham electronic structure solved by the ELSI library.
  Number of empty states per atom:      300
 
  Reading configuration options for species C                   .
  | Found nuclear charge :   6.0000
  | Found atomic mass :    12.0107000000000      amu
  | Found l_max for Hartree potential  :   6
  | Found cutoff potl. onset [A], width [A], scale factor :    4.00000    2.00000    1.00000
  | Found data for basic radial integration grid :    34 points, outermost radius =    7.000 A
  | Found multiplier for basic radial grid :   2
  | Found angular grid specification: user-specified.
  | Specified grid contains     5 separate shells.
  | Check grid settings after all constraints further below.
  | Found free-atom valence shell :  2 s   2.000
  | Found free-atom valence shell :  2 p   2.000
  | Found free-ion valence shell :  2 s   1.000
  | Found free-ion valence shell :  2 p   1.000
  | Found hydrogenic basis function :  2 p   1.700
  | Found hydrogenic basis function :  3 d   6.000
  | Found hydrogenic basis function :  2 s   4.900
  | Found hydrogenic basis function :  4 f   9.800
  | Found hydrogenic basis function :  3 p   5.200
  | Found hydrogenic basis function :  3 s   4.300
  | Found hydrogenic basis function :  5 g  14.400
  | Found hydrogenic basis function :  3 d   6.200
  | Found hydrogenic basis function :  2 p   5.600
  | Found hydrogenic basis function :  2 s   1.400
  | Found hydrogenic basis function :  3 d   4.900
  | Found hydrogenic basis function :  4 f  11.200
  Species C                   : Missing cutoff potential type.
  Defaulting to exp(1/x)/(1-x)^2 type cutoff potential.
  Species C : No 'logarithmic' tag. Using default grid for free atom:
  | Default logarithmic grid data [bohr] : 0.1000E-03 0.1000E+03 0.1012E+01
  Species C : On-site basis accuracy parameter (for Gram-Schmidt orthonormalisation) not specified.
  Using default value basis_acc =  0.1000000E-03.
  Species C                   : Using default innermost maximum threshold i_radial=  2 for radial functions.
  Species C                   : Default cutoff onset for free atom density etc. : 0.40000000E+01 AA.
  Species C                   : Basic radial grid will be enhanced according to radial_multiplier =   2, to contain    69 grid points.
 
  Reading configuration options for species O                   .
  | Found nuclear charge :   8.0000
  | Found atomic mass :    15.9994000000000      amu
  | Found l_max for Hartree potential  :   6
  | Found cutoff potl. onset [A], width [A], scale factor :    4.00000    2.00000    1.00000
  | Found data for basic radial integration grid :    36 points, outermost radius =    7.000 A
  | Found multiplier for basic radial grid :   2
  | Found angular grid specification: user-specified.
  | Specified grid contains     5 separate shells.
  | Check grid settings after all constraints further below.
  | Found free-atom valence shell :  2 s   2.000
  | Found free-atom valence shell :  2 p   4.000
  | Found free-ion valence shell :  2 s   1.000
  | Found free-ion valence shell :  2 p   3.000
  | Found hydrogenic basis function :  2 p   1.800
  | Found hydrogenic basis function :  3 d   7.600
  | Found hydrogenic basis function :  3 s   6.400
  | Found hydrogenic basis function :  4 f  11.600
  | Found hydrogenic basis function :  3 p   6.200
  | Found hydrogenic basis function :  3 d   5.600
  | Found hydrogenic basis function :  5 g  17.600
  | Found hydrogenic basis function :  1 s   0.750
  | Found ionic basis function :  2 p , default cutoff radius.
  | Found hydrogenic basis function :  4 f  10.800
  | Found hydrogenic basis function :  4 d   4.700
  | Found hydrogenic basis function :  2 s   6.800
  Species O                   : Missing cutoff potential type.
  Defaulting to exp(1/x)/(1-x)^2 type cutoff potential.
  Species O : No 'logarithmic' tag. Using default grid for free atom:
  | Default logarithmic grid data [bohr] : 0.1000E-03 0.1000E+03 0.1012E+01
  | Will include ionic basis functions of  2.0-fold positive O                    ion.
  Species O : On-site basis accuracy parameter (for Gram-Schmidt orthonormalisation) not specified.
  Using default value basis_acc =  0.1000000E-03.
  Species O                   : Using default innermost maximum threshold i_radial=  2 for radial functions.
  Species O                   : Default cutoff onset for free atom density etc. : 0.40000000E+01 AA.
  Species O                   : Basic radial grid will be enhanced according to radial_multiplier =   2, to contain    73 grid points.
 
  Finished reading input file 'control.in'. Consistency checks are next.
 
  MPI_IN_PLACE appears to work with this MPI implementation.
  | Keeping use_mpi_in_place .true. (see manual).
  Target number of points in a grid batch is not set. Defaulting to  100
  Method for grid partitioning is not set. Defaulting to parallel hash+maxmin partitioning.
  Batch size limit is not set. Defaulting to    200
  By default, will store active basis functions for each batch.
  If in need of memory, prune_basis_once .false. can be used to disable this option.
  communication_type for Hartree potential was not specified.
  Defaulting to calc_hartree .
  Pulay mixer: Number of relevant iterations not set.
  Defaulting to    8 iterations.
  Work space size for distributed Hartree potential not set.
  Defaulting to   0.200000E+03 MB.
  Algorithm-dependent basis array size parameters:
  | n_max_pulay                         :        8
  Presetting      1001 iterations before the initial mixing cycle
  is restarted anyway using the sc_init_iter criterion / keyword.
  Presetting a factor      1.000 between actual scf density residual
  and density convergence criterion sc_accuracy_rho below which sc_init_iter
  takes no effect.
  Calculation of forces was not defined in control.in. No forces will be calculated.
  Geometry relaxation not requested: no relaxation will be performed.
  No accuracy limit for integral partition fn. given. Defaulting to  0.1000E-14.
  No threshold value for u(r) in integrations given. Defaulting to  0.1000E-05.
  No threshold value for occupation numbers given. Defaulting to  0.0000E+00.
  No accuracy for fermi level given. Defaulting to  0.1000E-19.
  Maximum # of iterations to find E_F not set. Defaulting to  200.
  Will not use alltoall communication since running on < 1024 CPUs.
  partition_type (choice of integration weights) for integrals was not specified.
  | Using a version of the partition function of Stratmann and coworkers ('stratmann_sparse').
  | At each grid point, the set of atoms used to build the partition table is smoothly restricted to
  | only those atoms whose free-atom density would be non-zero at that grid point.
  Partitioning for Hartree potential was not defined. Using partition_type for integrals.
  | Adjusted default value of keyword multip_moments_threshold to:       0.10000000E-11
  | This value may affect high angular momentum components of the Hartree potential in periodic systems.
  No q(lm)/r^(l+1) cutoff set for long-range Hartree potential.
  | Using default value of  0.100000E-09 .
  | Verify using the multipole_threshold keyword.
  Defaulting to new monopole extrapolation.
  Density update method: automatic selection selected.
  Charge integration errors on the 3D integration grid will be compensated
  by explicit normalization and distribution of residual charges.
  Use the "compensate_multipole_errors" flag to change this behaviour.
------------------------------------------------------------


------------------------------------------------------------
          Reading geometry description geometry.in.
------------------------------------------------------------
  Input structure read successfully.
  The structure contains        2 atoms,  and a total of         14.000 electrons.

  Input geometry:
  | No unit cell requested.
  | Atomic structure:
  |       Atom                x [A]            y [A]            z [A]
  |    1: Species C             0.00000000        0.00000000        0.00000000
  |    2: Species O             0.00000000        0.00000000        1.10000000
  | The smallest distance between any two atoms is         1.10000000 AA.
  | The first atom of this pair is atom number                      1 .
  | The second atom of this pair is atom number                     2 .

  Structure-dependent array size parameters: 
  | Maximum number of distinct radial functions  :       30
  | Maximum number of basis functions            :      110
  | Number of Kohn-Sham states (occupied + empty):      307
------------------------------------------------------------

------------------------------------------------------------
          Preparing all fixed parts of the calculation.
------------------------------------------------------------
  Determining machine precision:
    2.225073858507201E-308
  Setting up grids for atomic and cluster calculations.

  Creating wave function, potential, and density for free atoms.

  Species: C

  List of occupied orbitals and eigenvalues:
    n    l              occ      energy [Ha]    energy [eV]
    1    0           2.0000        -9.946836      -270.6672
    2    0           2.0000        -0.500303       -13.6139
    2    1           2.0000        -0.198612        -5.4045


  Species: O

  List of occupied orbitals and eigenvalues:
    n    l              occ      energy [Ha]    energy [eV]
    1    0           2.0000       -18.758091      -510.4336
    2    0           2.0000        -0.871176       -23.7059
    2    1           4.0000        -0.338214        -9.2033

  Creating fixed part of basis set: Ionic, confined, hydrogenic.
 
  C                    hydrogenic:
 
  List of hydrogenic basis orbitals: 
    n    l      effective z      eigenvalue [eV]  inner max. [A]     outer max. [A]     outer radius [A]   
    2    1         1.700000        -9.8152           1.245706           1.245706           5.401630
    3    2         6.000000       -54.4226           0.792453           0.792453           4.178599
    2    0         4.900000       -81.6681           0.082559           0.562749           3.353238
    4    3         9.800000       -81.6681           0.863254           0.863254           4.028125
    3    1         5.200000       -40.8774           0.305389           1.215618           4.898362
    3    0         4.300000       -27.9508           0.091041           1.610311           5.401630
    5    4        14.400000      -112.8510           0.917666           0.917666           3.883070
    3    2         6.200000       -58.1113           0.763917           0.763917           4.077671
    2    1         5.600000      -106.6686           0.375932           0.375932           2.967371
    2    0         1.400000        -6.5336           0.287281           1.958203           5.468070
    3    2         4.900000       -36.2967           0.975508           0.975508           4.838844
    4    3        11.200000      -106.6686           0.754635           0.754635           3.652826
 
 
  O                    ion:

  List of free ionic orbitals and eigenvalues:
    n    l      energy [Ha]    energy [eV]
    1    0       -20.307828      -552.6041
    2    0        -2.120942       -57.7138
    2    1        -1.580720       -43.0136


  List of ionic basis orbitals and eigenvalues:
    n    l      energy [Ha]    energy [eV]    outer radius [A]
    2    1        -1.580715       -43.0134       3.541477

 
  O                    hydrogenic:
 
  List of hydrogenic basis orbitals: 
    n    l      effective z      eigenvalue [eV]  inner max. [A]     outer max. [A]     outer radius [A]   
    2    1         1.800000       -11.0118           1.178562           1.178562           5.432602
    3    2         7.600000       -87.3182           0.624125           0.624125           3.541477
    3    0         6.400000       -61.9209           0.061167           1.081902           4.306578
    4    3        11.600000      -114.4238           0.731631           0.731631           3.585037
    3    1         6.200000       -58.1113           0.255680           1.030270           4.306578
    3    2         5.600000       -47.4081           0.847233           0.847233           4.413171
    5    4        17.600000      -168.5799           0.749740           0.749740           3.372465
    1    0         0.750000        -7.6499           0.705284           0.705284           5.366593
    4    3        10.800000       -99.1854           0.787313           0.787313           3.764702
    4    2         4.700000       -18.6841           0.758962           2.365807           5.499423
    2    0         6.800000      -157.2818           0.059689           0.406863           2.739620
 

  Adding cutoff potential to free-atom effective potential.
  Creating atomic-like basis functions for current effective potential.

  Species C                   :

  List of atomic basis orbitals and eigenvalues:
    n    l      energy [Ha]    energy [eV]    outer radius [A]
    1    0        -9.946836      -270.6672       1.934409
    2    0        -0.500303       -13.6139       5.271162
    2    1        -0.198612        -5.4045       5.401630


  Species O                   :

  List of atomic basis orbitals and eigenvalues:
    n    l      energy [Ha]    energy [eV]    outer radius [A]
    1    0       -18.758091      -510.4336       1.433179
    2    0        -0.871176       -23.7059       5.048385
    2    1        -0.338214        -9.2033       5.301386

  Assembling full basis from fixed parts.
  | Species C :   atomic orbital   1 s accepted.
  | Species C :    hydro orbital   2 s accepted.
  | Species C :   atomic orbital   2 s accepted.
  | Species C :    hydro orbital   3 s accepted.
  | Species C :    hydro orbital   2 s accepted.
  | Species C :    hydro orbital   2 p accepted.
  | Species C :    hydro orbital   3 p accepted.
  | Species C :   atomic orbital   2 p accepted.
  | Species C :    hydro orbital   2 p accepted.
  | Species C :    hydro orbital   3 d accepted.
  | Species C :    hydro orbital   3 d accepted.
  | Species C :    hydro orbital   3 d accepted.
  | Species C :    hydro orbital   4 f accepted.
  | Species C :    hydro orbital   4 f accepted.
  | Species C :    hydro orbital   5 g accepted.
  | Species O :   atomic orbital   1 s accepted.
  | Species O :    hydro orbital   2 s accepted.
  | Species O :    hydro orbital   3 s accepted.
  | Species O :   atomic orbital   2 s accepted.
  | Species O :    hydro orbital   1 s accepted.
  | Species O :    ionic orbital   2 p accepted.
  | Species O :    hydro orbital   3 p accepted.
  | Species O :   atomic orbital   2 p accepted.
  | Species O :    hydro orbital   2 p accepted.
  | Species O :    hydro orbital   3 d accepted.
  | Species O :    hydro orbital   3 d accepted.
  | Species O :    hydro orbital   4 d accepted.
  | Species O :    hydro orbital   4 f accepted.
  | Species O :    hydro orbital   4 f accepted.
  | Species O :    hydro orbital   5 g accepted.

  * You requested      307 Kohn-Sham states in the calculation,
  * but there are only      110 available basis states.
  * Reducing total number of  Kohn-Sham states to      110.
 
 
  Basis size parameters after reduction:
  | Total number of radial functions:       30
  | Total number of basis functions :      110
 
  Per-task memory consumption for arrays in subroutine allocate_ext:
  |           5.000000MB.
  Testing on-site integration grid accuracy.
  |  Species  Function  <phi|h_atom|phi> (log., in eV)  <phi|h_atom|phi> (rad., in eV)
           1        1               -270.6671843207               -270.6671828276
           1        2                -10.6108610601                -10.6108827788
           1        3                 16.2274077590                 16.2274214720
           1        4                 49.2561491532                 49.2563829603
           1        5                 28.1939199534                 28.2086292046
           1        6                  6.8590204217                  6.8590204417
           1        7                 12.9991794304                 12.9991762682
           1        8                 53.3106599814                 53.3148479834
           1        9                 60.9096992732                 60.9098529844
           1       10                 29.4361834212                 29.4361837508
           1       11                 54.5768569905                 54.5767697004
           1       12                 60.8080306675                 60.8098507424
           1       13                 77.8991654111                 77.8991654054
           1       14                 96.3494353058                 96.3494341738
           1       15                 93.4519010633                 93.4519011409
           2       16               -510.4336245849               -510.4336201970
           2       17                -18.2388941491                -18.2389450508
           2       18                 13.4586399815                 13.4586283542
           2       19                175.4925778066                175.4936559444
           2       20                 88.4063656545                 88.4073013077
           2       21                 -8.1812185583                 -8.1812185309
           2       22                 24.7369697351                 24.7369701627
           2       23                 25.1076924514                 25.1076395068
           2       24                 44.7011571513                 44.7016818727
           2       25                 45.7831922019                 45.7831921817
           2       26                 52.0362324271                 52.0362339900
           2       27                 20.3071147629                 20.3071257053
           2       28                 85.2955246459                 85.2955246726
           2       29                115.0180962548                115.0180986625
           2       30                141.9684961691                141.9684961726

  Preparing densities etc. for the partition functions (integrals / Hartree potential).

  Preparations completed.
  max(cpu_time)          :      0.187 s.
  Wall clock time (cpu1) :      0.186 s.
------------------------------------------------------------

------------------------------------------------------------
          Begin self-consistency loop: Initialization.

          Date     :  20190817, Time     :  153614.513
------------------------------------------------------------

  Initializing index lists of integration centers etc. from given atomic structure:
  | Number of centers in hartree potential         :         2
  | Number of centers in hartree multipole         :         2
  | Number of centers in electron density summation:         2
  | Number of centers in basis integrals           :         2
  | Number of centers in integrals                 :         2
  | Number of centers in hamiltonian               :         2
  * Using 8 tasks for Scalapack Eigenvalue solver.
  Detailed listing of tasks and assigned k-points:
  (for non-periodic systems, the "k-point" denotes an internal label only)
   Task     0 k-point     1 on co1631
   Task     1 k-point     1 on co1631
   Task     2 k-point     1 on co1631
   Task     3 k-point     1 on co1631
   Task     4 k-point     1 on co1631
   Task     5 k-point     1 on co1631
   Task     6 k-point     1 on co1631
   Task     7 k-point     1 on co1631
  Tasks:     8 split into      4 X      2 BLACS grid
  Calculating block size based on n_basis =          110  max_nprow =            4  max_npcol =            2
  ScaLAPACK block size set to:           16
  Allocating        0.015 MB for ovlp
  Allocating        0.015 MB for ham
  Allocating        0.015 MB for eigenvec
  Required Scalapack workspace - INTEGER:            1  REAL:             1
  Partitioning the integration grid into batches with parallel hashing+maxmin method.
  | Number of batches:      495
  | Maximal batch size:     185
  | Minimal batch size:      67
  | Average batch size:      83.337
  | Standard deviation of batch sizes:      15.738

  Integration load balanced across     8 MPI tasks.
  Work distribution over tasks is as follows:
  Task     0 has       5183 integration points.
  Task     1 has       5142 integration points.
  Task     2 has       5153 integration points.
  Task     3 has       5176 integration points.
  Task     4 has       5228 integration points.
  Task     5 has       5115 integration points.
  Task     6 has       5113 integration points.
  Task     7 has       5142 integration points.
  Initializing partition tables, free-atom densities, potentials, etc. across the integration grid (initialize_grid_storage).
  | initialize_grid_storage: Actual outermost partition radius vs. multipole_radius_free
  | (-- VB: in principle, multipole_radius_free should be larger, hence this output)
  | Species        1: Confinement radius =              6.000000000000000 AA, multipole_radius_free =              6.029870734432609 AA.
  | Species        1: outer_partition_radius set to              6.029870734432609 AA .
  | Species        2: Confinement radius =              6.000000000000000 AA, multipole_radius_free =              6.064445521808699 AA.
  | Species        2: outer_partition_radius set to              6.064445521808699 AA .
  | The sparse table of interatomic distances needs          0.04 kbyte instead of         0.03 kbyte of memory.
  | Using the partition_type stratmann_smoother will reduce your memory usage.
  | Net number of integration points:    41252
  | of which are non-zero points    :    38867
  Renormalizing the initial density to the exact electron count on the 3D integration grid.
  | Initial density: Formal number of electrons (from input files) :      14.0000000000
  | Integrated number of electrons on 3D grid     :      14.0000002599
  | Charge integration error                      :       0.0000002599
  | Normalization factor for density and gradient :       0.9999999814
  Renormalizing the free-atom superposition density to the exact electron count on the 3D integration grid.
  | Formal number of electrons (from input files) :      14.0000000000
  | Integrated number of electrons on 3D grid     :      14.0000002599
  | Charge integration error                      :       0.0000002599
  | Normalization factor for density and gradient :       0.9999999814
  Obtaining max. number of non-zero basis functions in each batch (get_n_compute_maxes).
  | Maximal number of non-zero basis functions:      110 in task     0
  | Maximal number of non-zero basis functions:      110 in task     1
  | Maximal number of non-zero basis functions:      110 in task     2
  | Maximal number of non-zero basis functions:      110 in task     3
  | Maximal number of non-zero basis functions:      110 in task     4
  | Maximal number of non-zero basis functions:      110 in task     5
  | Maximal number of non-zero basis functions:      110 in task     6
  | Maximal number of non-zero basis functions:      110 in task     7
  Selecting the method for density update.
  Loop over occupied states selected for charge density update.
  Allocating        0.092 MB for KS_eigenvector
  Integrating Hamiltonian matrix: batch-based integration.
  Time summed over all CPUs for integration: real work        0.113 s, elapsed        0.120 s
  Integrating overlap matrix.
  Time summed over all CPUs for integration: real work        0.060 s, elapsed        0.062 s
  Deallocating overlap matrix.

  Updating Kohn-Sham eigenvalues and eigenvectors using ELSI and the ELPA eigensolver.
  Overlap matrix is not singular
  | Lowest and highest eigenvalues :  0.8665E-04,  0.2000E+01
  Finished singularity check of overlap matrix
  | Time :     0.009 s
  Starting ELPA eigensolver
  Finished Cholesky decomposition
  | Time :     0.001 s
  Finished transformation to standard eigenproblem
  | Time :     0.001 s
  Finished solving standard eigenproblem
  | Time :     0.003 s
  Finished back-transformation of eigenvectors
  | Time :     0.000 s

  Obtaining occupation numbers and chemical potential using ELSI.
  | Chemical potential (Fermi level):    -8.60930985 eV
  Writing Kohn-Sham eigenvalues.

  State    Occupation    Eigenvalue [Ha]    Eigenvalue [eV]
      1       2.00000         -18.879180         -513.72863
      2       2.00000         -10.012388         -272.45093
      3       2.00000          -1.212253          -32.98709
      4       2.00000          -0.612157          -16.65763
      5       2.00000          -0.535869          -14.58174
      6       2.00000          -0.535869          -14.58174
      7       2.00000          -0.398606          -10.84663
      8       0.00000          -0.128502           -3.49670
      9       0.00000          -0.128502           -3.49670
     10       0.00000           0.036217            0.98552
     11       0.00000           0.085352            2.32254
     12       0.00000           0.089581            2.43763
     13       0.00000           0.089581            2.43763
     14       0.00000           0.143483            3.90436
     15       0.00000           0.164632            4.47986
     16       0.00000           0.164632            4.47986
     17       0.00000           0.206648            5.62318
     18       0.00000           0.206648            5.62318
     19       0.00000           0.318260            8.66029
     20       0.00000           0.351272            9.55860
     21       0.00000           0.351272            9.55860
     22       0.00000           0.417063           11.34886
     23       0.00000           0.417063           11.34886
     24       0.00000           0.475294           12.93341
     25       0.00000           0.557455           15.16913
     26       0.00000           0.564917           15.37218
     27       0.00000           0.564917           15.37218
     28       0.00000           0.656838           17.87348
     29       0.00000           0.753747           20.51050
     30       0.00000           0.818775           22.28000
     31       0.00000           0.818775           22.28001
     32       0.00000           0.859734           23.39456
     33       0.00000           0.859734           23.39456
     34       0.00000           0.977191           26.59072
     35       0.00000           0.977191           26.59072
     36       0.00000           0.979349           26.64945
     37       0.00000           1.222603           33.26872
     38       0.00000           1.222603           33.26872
     39       0.00000           1.248356           33.96949
     40       0.00000           1.248356           33.96949
     41       0.00000           1.291734           35.14987
     42       0.00000           1.291736           35.14993
     43       0.00000           1.517260           41.28676
     44       0.00000           1.603475           43.63278
     45       0.00000           1.603477           43.63284
     46       0.00000           1.668672           45.40689
     47       0.00000           1.668672           45.40689
     48       0.00000           1.703479           46.35401
     49       0.00000           1.827679           49.73368
     50       0.00000           1.827679           49.73368
     51       0.00000           1.864929           50.74729
     52       0.00000           2.064939           56.18986
     53       0.00000           2.309942           62.85673
     54       0.00000           2.309942           62.85673
     55       0.00000           2.532652           68.91695
     56       0.00000           2.532653           68.91700
     57       0.00000           2.599653           70.74016
     58       0.00000           2.636012           71.72954
     59       0.00000           2.636012           71.72954
     60       0.00000           2.866653           78.00559
     61       0.00000           3.146686           85.62567
     62       0.00000           3.146686           85.62568
     63       0.00000           3.334572           90.73832
     64       0.00000           3.334572           90.73832
     65       0.00000           3.362540           91.49937
     66       0.00000           3.362542           91.49943
     67       0.00000           3.697379          100.61079
     68       0.00000           3.697379          100.61079
     69       0.00000           3.754735          102.17153
     70       0.00000           3.881879          105.63131
     71       0.00000           3.881879          105.63131
     72       0.00000           4.026545          109.56787
     73       0.00000           4.026550          109.56799
     74       0.00000           4.306869          117.19587
     75       0.00000           4.510259          122.73040
     76       0.00000           4.510259          122.73040
     77       0.00000           4.688865          127.59051
     78       0.00000           4.688866          127.59055
     79       0.00000           4.932426          134.21815
     80       0.00000           4.932426          134.21815
     81       0.00000           5.069566          137.94992
     82       0.00000           5.069566          137.94992
     83       0.00000           5.305375          144.36661
     84       0.00000           5.305379          144.36671
     85       0.00000           5.331113          145.06697
     86       0.00000           5.461609          148.61795
     87       0.00000           5.690775          154.85385
     88       0.00000           5.690776          154.85390
     89       0.00000           5.886279          160.17379
     90       0.00000           5.886279          160.17379
     91       0.00000           5.901490          160.58772
     92       0.00000           5.901490          160.58772
     93       0.00000           6.296593          171.33901
     94       0.00000           6.465633          175.93883
     95       0.00000           6.465633          175.93883
     96       0.00000           6.845816          186.28413
     97       0.00000           7.008363          190.70727
     98       0.00000           7.008366          190.70735
     99       0.00000           7.257916          197.49793
    100       0.00000           7.769251          211.41208
    101       0.00000           7.769251          211.41208
    102       0.00000           8.392141          228.36178
    103       0.00000           8.392142          228.36181
    104       0.00000           8.536489          232.28968
    105       0.00000           8.651015          235.40609
    106       0.00000           8.651015          235.40609
    107       0.00000           9.765762          265.73992
    108       0.00000           9.765762          265.73992
    109       0.00000          23.414314          637.13591
    110       0.00000          35.121675          955.70940

  Highest occupied state (VBM) at    -10.84662650 eV
  | Occupation number:      2.00000000

  Lowest unoccupied state (CBM) at    -3.49670468 eV
  | Occupation number:      0.00000000

  Overall HOMO-LUMO gap:      7.34992183 eV.
  Calculating total energy contributions from superposition of free atom densities.

  Total energy components:
  | Sum of eigenvalues            :         -64.37264493 Ha       -1751.66879242 eV
  | XC energy correction          :         -12.81633129 Ha        -348.75011849 eV
  | XC potential correction       :          16.88632634 Ha         459.50031894 eV
  | Free-atom electrostatic energy:         -52.21058852 Ha       -1420.72239924 eV
  | Hartree energy correction     :           0.00000000 Ha           0.00000000 eV
  | Entropy correction            :           0.00000000 Ha           0.00000000 eV
  | ---------------------------
  | Total energy                  :        -112.51323839 Ha       -3061.64099122 eV
  | Total energy, T -> 0          :        -112.51323839 Ha       -3061.64099122 eV  <-- do not rely on this value for anything but (periodic) metals
  | Electronic free energy        :        -112.51323839 Ha       -3061.64099122 eV

  Derived energy quantities:
  | Kinetic energy                :         111.48456732 Ha        3033.64942727 eV
  | Electrostatic energy          :        -211.18147443 Ha       -5746.54030000 eV
  | Energy correction for multipole
  | error in Hartree potential    :           0.00000000 Ha           0.00000000 eV
  | Sum of eigenvalues per atom                           :        -875.83439621 eV
  | Total energy (T->0) per atom                          :       -1530.82049561 eV  <-- do not rely on this value for anything but (periodic) metals
  | Electronic free energy per atom                       :       -1530.82049561 eV
  Initialize hartree_potential_storage
  Max. number of atoms included in rho_multipole:            2

  End scf initialization - timings             :  max(cpu_time)    wall_clock(cpu1)
  | Time for scf. initialization               :        0.067 s           0.074 s
  | Boundary condition initialization          :        0.000 s           0.000 s
  | Integration                                :        0.024 s           0.024 s
  | Solution of K.-S. eqns.                    :        0.012 s           0.016 s
  | Grid partitioning                          :        0.011 s           0.012 s
  | Preloading free-atom quantities on grid    :        0.009 s           0.008 s
  | Free-atom superposition energy             :        0.003 s           0.004 s
  | Total energy evaluation                    :        0.000 s           0.000 s

  Partial memory accounting:
  | Current value for overall tracked memory usage:
  |   Minimum:        0.158 MB (on task 7)
  |   Maximum:        0.185 MB (on task 0)
  |   Average:        0.175 MB
  | Peak value for overall tracked memory usage:
  |   Minimum:        0.762 MB (on task 7 after allocating wave)
  |   Maximum:        0.790 MB (on task 0 after allocating wave)
  |   Average:        0.779 MB
  | Largest tracked array allocation so far:
  |   Minimum:        0.155 MB (H_times_psi on task 0)
  |   Maximum:        0.155 MB (H_times_psi on task 0)
  |   Average:        0.155 MB
  Note:  These values currently only include a subset of arrays which are explicitly tracked.
  The "true" memory usage will be greater.
------------------------------------------------------------

------------------------------------------------------------
          Begin self-consistency iteration #    1

  Date     :  20190817, Time     :  153614.587
------------------------------------------------------------
  Evaluating new KS density.
  Integration grid: deviation in total charge (<rho> - N_e) =   3.552714E-15
  Pulay mixing of updated and previous charge densities.
  Renormalizing the density to the exact electron count on the 3D integration grid.
  | Formal number of electrons (from input files) :      14.0000000000
  | Integrated number of electrons on 3D grid     :      14.0000000000
  | Charge integration error                      :       0.0000000000
  | Normalization factor for density and gradient :       1.0000000000

  Evaluating partitioned Hartree potential by multipole expansion.
  | Original multipole sum: apparent total charge =   0.461761E-13
  | Sum of charges compensated after spline to logarithmic grids =   0.127673E-06
  | Analytical far-field extrapolation by fixed multipoles:
  | Hartree multipole sum: apparent total charge =   0.462745E-13
  Summing up the Hartree potential.
  Time summed over all CPUs for potential: real work        0.051 s, elapsed        0.052 s
  | RMS charge density error from multipole expansion :   0.531867E-03

  Integrating Hamiltonian matrix: batch-based integration.
  Time summed over all CPUs for integration: real work        0.102 s, elapsed        0.104 s

  Updating Kohn-Sham eigenvalues and eigenvectors using ELSI and the ELPA eigensolver.
  Starting ELPA eigensolver
  Finished transformation to standard eigenproblem
  | Time :     0.000 s
  Finished solving standard eigenproblem
  | Time :     0.002 s
  Finished back-transformation of eigenvectors
  | Time :     0.000 s

  Obtaining occupation numbers and chemical potential using ELSI.
  | Chemical potential (Fermi level):    -6.41963857 eV
  Writing Kohn-Sham eigenvalues.

  State    Occupation    Eigenvalue [Ha]    Eigenvalue [eV]
      1       2.00000         -18.786217         -511.19898
      2       2.00000          -9.978792         -271.53675
      3       2.00000          -1.161516          -31.60646
      4       2.00000          -0.569116          -15.48644
      5       2.00000          -0.497617          -13.54084
      6       2.00000          -0.497617          -13.54084
      7       2.00000          -0.380351          -10.34987
      8       0.00000          -0.106674           -2.90274
      9       0.00000          -0.106674           -2.90274
     10       0.00000           0.042360            1.15268
     11       0.00000           0.090859            2.47239
     12       0.00000           0.094753            2.57837
     13       0.00000           0.094753            2.57837
     14       0.00000           0.149528            4.06887
     15       0.00000           0.168438            4.58342
     16       0.00000           0.168438            4.58343
     17       0.00000           0.213347            5.80548
     18       0.00000           0.213347            5.80548
     19       0.00000           0.326601            8.88727
     20       0.00000           0.357502            9.72814
     21       0.00000           0.357502            9.72814
     22       0.00000           0.420989           11.45569
     23       0.00000           0.420989           11.45569
     24       0.00000           0.488685           13.29780
     25       0.00000           0.573361           15.60194
     26       0.00000           0.573761           15.61284
     27       0.00000           0.573761           15.61284
     28       0.00000           0.670619           18.24848
     29       0.00000           0.777198           21.14864
     30       0.00000           0.832932           22.66524
     31       0.00000           0.832933           22.66525
     32       0.00000           0.871905           23.72574
     33       0.00000           0.871905           23.72574
     34       0.00000           0.986169           26.83502
     35       0.00000           0.991273           26.97391
     36       0.00000           0.991273           26.97391
     37       0.00000           1.239556           33.73003
     38       0.00000           1.239556           33.73003
     39       0.00000           1.255619           34.16714
     40       0.00000           1.255619           34.16714
     41       0.00000           1.301209           35.40769
     42       0.00000           1.301211           35.40775
     43       0.00000           1.538023           41.85174
     44       0.00000           1.613761           43.91266
     45       0.00000           1.613763           43.91271
     46       0.00000           1.681367           45.75233
     47       0.00000           1.681367           45.75233
     48       0.00000           1.718987           46.77603
     49       0.00000           1.838768           50.03543
     50       0.00000           1.838768           50.03543
     51       0.00000           1.882796           51.23348
     52       0.00000           2.089873           56.86834
     53       0.00000           2.327317           63.32953
     54       0.00000           2.327317           63.32953
     55       0.00000           2.550462           69.40159
     56       0.00000           2.550463           69.40163
     57       0.00000           2.623436           71.38732
     58       0.00000           2.674005           72.76339
     59       0.00000           2.674005           72.76339
     60       0.00000           2.890332           78.64994
     61       0.00000           3.180609           86.54877
     62       0.00000           3.180609           86.54878
     63       0.00000           3.367580           91.63652
     64       0.00000           3.367580           91.63652
     65       0.00000           3.371035           91.73053
     66       0.00000           3.371037           91.73059
     67       0.00000           3.712343          101.01800
     68       0.00000           3.712343          101.01800
     69       0.00000           3.787153          103.05369
     70       0.00000           3.906795          106.30929
     71       0.00000           3.906795          106.30929
     72       0.00000           4.050024          110.20675
     73       0.00000           4.050028          110.20688
     74       0.00000           4.340332          118.10644
     75       0.00000           4.533529          123.36361
     76       0.00000           4.533529          123.36361
     77       0.00000           4.713160          128.25160
     78       0.00000           4.713161          128.25163
     79       0.00000           4.950364          134.70627
     80       0.00000           4.950364          134.70627
     81       0.00000           5.097238          138.70290
     82       0.00000           5.097238          138.70290
     83       0.00000           5.331022          145.06448
     84       0.00000           5.331026          145.06459
     85       0.00000           5.367625          146.06050
     86       0.00000           5.491927          149.44294
     87       0.00000           5.710108          155.37995
     88       0.00000           5.710110          155.38000
     89       0.00000           5.920727          161.11117
     90       0.00000           5.920727          161.11117
     91       0.00000           5.933801          161.46693
     92       0.00000           5.933801          161.46693
     93       0.00000           6.327744          172.18667
     94       0.00000           6.494017          176.71120
     95       0.00000           6.494017          176.71120
     96       0.00000           6.885008          187.35061
     97       0.00000           7.047491          191.77198
     98       0.00000           7.047494          191.77206
     99       0.00000           7.300959          198.66922
    100       0.00000           7.810670          212.53916
    101       0.00000           7.810670          212.53916
    102       0.00000           8.424692          229.24752
    103       0.00000           8.424693          229.24755
    104       0.00000           8.577744          233.41228
    105       0.00000           8.684512          236.31758
    106       0.00000           8.684512          236.31758
    107       0.00000           9.801173          266.70349
    108       0.00000           9.801173          266.70349
    109       0.00000          23.446339          638.00734
    110       0.00000          35.178291          957.25001

  Highest occupied state (VBM) at    -10.34987328 eV
  | Occupation number:      2.00000000

  Lowest unoccupied state (CBM) at    -2.90274464 eV
  | Occupation number:      0.00000000

  Overall HOMO-LUMO gap:      7.44712864 eV.

  Total energy components:
  | Sum of eigenvalues            :         -63.74245109 Ha       -1734.52034551 eV
  | XC energy correction          :         -12.88558247 Ha        -350.63453898 eV
  | XC potential correction       :          16.97772815 Ha         461.98748853 eV
  | Free-atom electrostatic energy:         -52.21058852 Ha       -1420.72239924 eV
  | Hartree energy correction     :          -0.62806396 Ha         -17.09048992 eV
  | Entropy correction            :           0.00000000 Ha           0.00000000 eV
  | ---------------------------
  | Total energy                  :        -112.48895789 Ha       -3060.98028512 eV
  | Total energy, T -> 0          :        -112.48895789 Ha       -3060.98028512 eV  <-- do not rely on this value for anything but (periodic) metals
  | Electronic free energy        :        -112.48895789 Ha       -3060.98028512 eV

  Derived energy quantities:
  | Kinetic energy                :         111.90557117 Ha        3045.10552479 eV
  | Electrostatic energy          :        -211.50894659 Ha       -5755.45127094 eV
  | Energy correction for multipole
  | error in Hartree potential    :          -0.00041767 Ha          -0.01136546 eV
  | Sum of eigenvalues per atom                           :        -867.26017276 eV
  | Total energy (T->0) per atom                          :       -1530.49014256 eV  <-- do not rely on this value for anything but (periodic) metals
  | Electronic free energy per atom                       :       -1530.49014256 eV

  Self-consistency convergence accuracy:
  | Change of charge density      :  0.2706E+00
  | Change of sum of eigenvalues  :  0.1715E+02 eV
  | Change of total energy        :  0.6607E+00 eV

  End self-consistency iteration #     1       :  max(cpu_time)    wall_clock(cpu1)
  | Time for this iteration                    :        0.034 s           0.034 s
  | Charge density update                      :        0.007 s           0.007 s
  | Density mixing                             :        0.000 s           0.000 s
  | Hartree multipole update                   :        0.002 s           0.002 s
  | Hartree multipole summation                :        0.007 s           0.007 s
  | Integration                                :        0.013 s           0.014 s
  | Solution of K.-S. eqns.                    :        0.003 s           0.003 s
  | Total energy evaluation                    :        0.000 s           0.000 s

  Partial memory accounting:
  | Current value for overall tracked memory usage:
  |   Minimum:        0.158 MB (on task 7)
  |   Maximum:        0.185 MB (on task 0)
  |   Average:        0.175 MB
  | Peak value for overall tracked memory usage:
  |   Minimum:        0.762 MB (on task 7 after allocating wave)
  |   Maximum:        0.790 MB (on task 0 after allocating wave)
  |   Average:        0.779 MB
  | Largest tracked array allocation so far:
  |   Minimum:        0.155 MB (H_times_psi on task 0)
  |   Maximum:        0.155 MB (H_times_psi on task 0)
  |   Average:        0.155 MB
  Note:  These values currently only include a subset of arrays which are explicitly tracked.
  The "true" memory usage will be greater.
------------------------------------------------------------

------------------------------------------------------------
          Begin self-consistency iteration #    2

  Date     :  20190817, Time     :  153614.621
------------------------------------------------------------
  Evaluating new KS density.
  Integration grid: deviation in total charge (<rho> - N_e) =  -1.776357E-14
  Pulay mixing of updated and previous charge densities.
  Renormalizing the density to the exact electron count on the 3D integration grid.
  | Formal number of electrons (from input files) :      14.0000000000
  | Integrated number of electrons on 3D grid     :      14.0000000000
  | Charge integration error                      :      -0.0000000000
  | Normalization factor for density and gradient :       1.0000000000

  Evaluating partitioned Hartree potential by multipole expansion.
  | Original multipole sum: apparent total charge =   0.402173E-14
  | Sum of charges compensated after spline to logarithmic grids =   0.310119E-06
  | Analytical far-field extrapolation by fixed multipoles:
  | Hartree multipole sum: apparent total charge =   0.401558E-14
  Summing up the Hartree potential.
  Time summed over all CPUs for potential: real work        0.050 s, elapsed        0.051 s
  | RMS charge density error from multipole expansion :   0.129779E-02

  Integrating Hamiltonian matrix: batch-based integration.
  Time summed over all CPUs for integration: real work        0.099 s, elapsed        0.102 s

  Updating Kohn-Sham eigenvalues and eigenvectors using ELSI and the ELPA eigensolver.
  Starting ELPA eigensolver
  Finished transformation to standard eigenproblem
  | Time :     0.000 s
  Finished solving standard eigenproblem
  | Time :     0.002 s
  Finished back-transformation of eigenvectors
  | Time :     0.000 s

  Obtaining occupation numbers and chemical potential using ELSI.
  | Chemical potential (Fermi level):    -4.72830324 eV
  Highest occupied state (VBM) at     -9.49437500 eV
  | Occupation number:      2.00000000

  Lowest unoccupied state (CBM) at    -2.17267328 eV
  | Occupation number:      0.00000000

  Overall HOMO-LUMO gap:      7.32170172 eV.

  Checking to see if s.c.f. parameters should be adjusted.

  Total energy components:
  | Sum of eigenvalues            :         -63.09748834 Ha       -1716.97001617 eV
  | XC energy correction          :         -12.95775079 Ha        -352.59833890 eV
  | XC potential correction       :          17.07290390 Ha         464.57735264 eV
  | Free-atom electrostatic energy:         -52.21058852 Ha       -1420.72239924 eV
  | Hartree energy correction     :          -1.28236687 Ha         -34.89497807 eV
  | Entropy correction            :           0.00000000 Ha           0.00000000 eV
  | ---------------------------
  | Total energy                  :        -112.47529062 Ha       -3060.60837973 eV
  | Total energy, T -> 0          :        -112.47529062 Ha       -3060.60837973 eV  <-- do not rely on this value for anything but (periodic) metals
  | Electronic free energy        :        -112.47529062 Ha       -3060.60837973 eV

  Derived energy quantities:
  | Kinetic energy                :         112.22966120 Ha        3053.92446321 eV
  | Electrostatic energy          :        -211.74720103 Ha       -5761.93450405 eV
  | Energy correction for multipole
  | error in Hartree potential    :          -0.00096507 Ha          -0.02626091 eV
  | Sum of eigenvalues per atom                           :        -858.48500808 eV
  | Total energy (T->0) per atom                          :       -1530.30418987 eV  <-- do not rely on this value for anything but (periodic) metals
  | Electronic free energy per atom                       :       -1530.30418987 eV

  Self-consistency convergence accuracy:
  | Change of charge density      :  0.1790E+00
  | Change of sum of eigenvalues  :  0.1755E+02 eV
  | Change of total energy        :  0.3719E+00 eV

  End self-consistency iteration #     2       :  max(cpu_time)    wall_clock(cpu1)
  | Time for this iteration                    :        0.032 s           0.032 s
  | Charge density update                      :        0.006 s           0.006 s
  | Density mixing                             :        0.000 s           0.001 s
  | Hartree multipole update                   :        0.002 s           0.002 s
  | Hartree multipole summation                :        0.007 s           0.006 s
  | Integration                                :        0.013 s           0.013 s
  | Solution of K.-S. eqns.                    :        0.003 s           0.004 s
  | Total energy evaluation                    :        0.000 s           0.000 s

  Partial memory accounting:
  | Current value for overall tracked memory usage:
  |   Minimum:        0.158 MB (on task 7)
  |   Maximum:        0.186 MB (on task 0)
  |   Average:        0.175 MB
  | Peak value for overall tracked memory usage:
  |   Minimum:        0.762 MB (on task 7 after allocating wave)
  |   Maximum:        0.790 MB (on task 0 after allocating wave)
  |   Average:        0.779 MB
  | Largest tracked array allocation so far:
  |   Minimum:        0.155 MB (H_times_psi on task 0)
  |   Maximum:        0.155 MB (H_times_psi on task 0)
  |   Average:        0.155 MB
  Note:  These values currently only include a subset of arrays which are explicitly tracked.
  The "true" memory usage will be greater.
------------------------------------------------------------

------------------------------------------------------------
          Begin self-consistency iteration #    3

  Date     :  20190817, Time     :  153614.654
------------------------------------------------------------
  Evaluating new KS density.
  Integration grid: deviation in total charge (<rho> - N_e) =   0.000000E+00
  Pulay mixing of updated and previous charge densities.
  Renormalizing the density to the exact electron count on the 3D integration grid.
  | Formal number of electrons (from input files) :      14.0000000000
  | Integrated number of electrons on 3D grid     :      14.0000000000
  | Charge integration error                      :      -0.0000000000
  | Normalization factor for density and gradient :       1.0000000000

  Evaluating partitioned Hartree potential by multipole expansion.
  | Original multipole sum: apparent total charge =  -0.302245E-14
  | Sum of charges compensated after spline to logarithmic grids =   0.463687E-06
  | Analytical far-field extrapolation by fixed multipoles:
  | Hartree multipole sum: apparent total charge =  -0.297325E-14
  Summing up the Hartree potential.
  Time summed over all CPUs for potential: real work        0.051 s, elapsed        0.052 s
  | RMS charge density error from multipole expansion :   0.210817E-02

  Integrating Hamiltonian matrix: batch-based integration.
  Time summed over all CPUs for integration: real work        0.098 s, elapsed        0.101 s

  Updating Kohn-Sham eigenvalues and eigenvectors using ELSI and the ELPA eigensolver.
  Starting ELPA eigensolver
  Finished transformation to standard eigenproblem
  | Time :     0.000 s
  Finished solving standard eigenproblem
  | Time :     0.002 s
  Finished back-transformation of eigenvectors
  | Time :     0.000 s

  Obtaining occupation numbers and chemical potential using ELSI.
  | Chemical potential (Fermi level):    -4.30557206 eV
  Highest occupied state (VBM) at     -8.82225894 eV
  | Occupation number:      2.00000000

  Lowest unoccupied state (CBM) at    -1.74321906 eV
  | Occupation number:      0.00000000

  Overall HOMO-LUMO gap:      7.07903988 eV.

  Total energy components:
  | Sum of eigenvalues            :         -62.77166563 Ha       -1708.10392922 eV
  | XC energy correction          :         -12.99439709 Ha        -353.59553558 eV
  | XC potential correction       :          17.12114766 Ha         465.89013206 eV
  | Free-atom electrostatic energy:         -52.21058852 Ha       -1420.72239924 eV
  | Hartree energy correction     :          -1.61716146 Ha         -44.00520221 eV
  | Entropy correction            :           0.00000000 Ha           0.00000000 eV
  | ---------------------------
  | Total energy                  :        -112.47266504 Ha       -3060.53693419 eV
  | Total energy, T -> 0          :        -112.47266504 Ha       -3060.53693419 eV  <-- do not rely on this value for anything but (periodic) metals
  | Electronic free energy        :        -112.47266504 Ha       -3060.53693419 eV

  Derived energy quantities:
  | Kinetic energy                :         112.23852067 Ha        3054.16554158 eV
  | Electrostatic energy          :        -211.71678862 Ha       -5761.10694018 eV
  | Energy correction for multipole
  | error in Hartree potential    :          -0.00140931 Ha          -0.03834932 eV
  | Sum of eigenvalues per atom                           :        -854.05196461 eV
  | Total energy (T->0) per atom                          :       -1530.26846709 eV  <-- do not rely on this value for anything but (periodic) metals
  | Electronic free energy per atom                       :       -1530.26846709 eV

  Self-consistency convergence accuracy:
  | Change of charge density      :  0.9358E-01
  | Change of sum of eigenvalues  :  0.8866E+01 eV
  | Change of total energy        :  0.7145E-01 eV

  End self-consistency iteration #     3       :  max(cpu_time)    wall_clock(cpu1)
  | Time for this iteration                    :        0.032 s           0.032 s
  | Charge density update                      :        0.006 s           0.005 s
  | Density mixing                             :        0.001 s           0.000 s
  | Hartree multipole update                   :        0.002 s           0.002 s
  | Hartree multipole summation                :        0.007 s           0.007 s
  | Integration                                :        0.013 s           0.012 s
  | Solution of K.-S. eqns.                    :        0.003 s           0.003 s
  | Total energy evaluation                    :        0.000 s           0.001 s

  Partial memory accounting:
  | Current value for overall tracked memory usage:
  |   Minimum:        0.158 MB (on task 7)
  |   Maximum:        0.186 MB (on task 0)
  |   Average:        0.175 MB
  | Peak value for overall tracked memory usage:
  |   Minimum:        0.762 MB (on task 7 after allocating wave)
  |   Maximum:        0.790 MB (on task 0 after allocating wave)
  |   Average:        0.779 MB
  | Largest tracked array allocation so far:
  |   Minimum:        0.155 MB (H_times_psi on task 0)
  |   Maximum:        0.155 MB (H_times_psi on task 0)
  |   Average:        0.155 MB
  Note:  These values currently only include a subset of arrays which are explicitly tracked.
  The "true" memory usage will be greater.
------------------------------------------------------------

------------------------------------------------------------
          Begin self-consistency iteration #    4

  Date     :  20190817, Time     :  153614.686
------------------------------------------------------------
  Evaluating new KS density.
  Integration grid: deviation in total charge (<rho> - N_e) =   0.000000E+00
  Pulay mixing of updated and previous charge densities.
  Renormalizing the density to the exact electron count on the 3D integration grid.
  | Formal number of electrons (from input files) :      14.0000000000
  | Integrated number of electrons on 3D grid     :      14.0000000000
  | Charge integration error                      :       0.0000000000
  | Normalization factor for density and gradient :       1.0000000000

  Evaluating partitioned Hartree potential by multipole expansion.
  | Original multipole sum: apparent total charge =   0.470001E-13
  | Sum of charges compensated after spline to logarithmic grids =   0.508106E-06
  | Analytical far-field extrapolation by fixed multipoles:
  | Hartree multipole sum: apparent total charge =   0.472338E-13
  Summing up the Hartree potential.
  Time summed over all CPUs for potential: real work        0.049 s, elapsed        0.050 s
  | RMS charge density error from multipole expansion :   0.244064E-02

  Integrating Hamiltonian matrix: batch-based integration.
  Time summed over all CPUs for integration: real work        0.099 s, elapsed        0.102 s

  Updating Kohn-Sham eigenvalues and eigenvectors using ELSI and the ELPA eigensolver.
  Starting ELPA eigensolver
  Finished transformation to standard eigenproblem
  | Time :     0.000 s
  Finished solving standard eigenproblem
  | Time :     0.002 s
  Finished back-transformation of eigenvectors
  | Time :     0.000 s

  Obtaining occupation numbers and chemical potential using ELSI.
  | Chemical potential (Fermi level):    -4.75759064 eV
  Highest occupied state (VBM) at     -9.05405765 eV
  | Occupation number:      2.00000000

  Lowest unoccupied state (CBM) at    -1.96497714 eV
  | Occupation number:      0.00000000

  Overall HOMO-LUMO gap:      7.08908051 eV.

  Total energy components:
  | Sum of eigenvalues            :         -62.93670829 Ha       -1712.59496837 eV
  | XC energy correction          :         -12.97308295 Ha        -353.01554834 eV
  | XC potential correction       :          17.09297209 Ha         465.12343572 eV
  | Free-atom electrostatic energy:         -52.21058852 Ha       -1420.72239924 eV
  | Hartree energy correction     :          -1.44483591 Ha         -39.31598559 eV
  | Entropy correction            :           0.00000000 Ha           0.00000000 eV
  | ---------------------------
  | Total energy                  :        -112.47224359 Ha       -3060.52546583 eV
  | Total energy, T -> 0          :        -112.47224359 Ha       -3060.52546583 eV  <-- do not rely on this value for anything but (periodic) metals
  | Electronic free energy        :        -112.47224359 Ha       -3060.52546583 eV

  Derived energy quantities:
  | Kinetic energy                :         111.99338729 Ha        3047.49512288 eV
  | Electrostatic energy          :        -211.49254792 Ha       -5755.00504037 eV
  | Energy correction for multipole
  | error in Hartree potential    :          -0.00145957 Ha          -0.03971702 eV
  | Sum of eigenvalues per atom                           :        -856.29748419 eV
  | Total energy (T->0) per atom                          :       -1530.26273292 eV  <-- do not rely on this value for anything but (periodic) metals
  | Electronic free energy per atom                       :       -1530.26273292 eV

  Self-consistency convergence accuracy:
  | Change of charge density      :  0.2883E-01
  | Change of sum of eigenvalues  : -0.4491E+01 eV
  | Change of total energy        :  0.1147E-01 eV

  End self-consistency iteration #     4       :  max(cpu_time)    wall_clock(cpu1)
  | Time for this iteration                    :        0.031 s           0.031 s
  | Charge density update                      :        0.006 s           0.006 s
  | Density mixing                             :        0.000 s           0.000 s
  | Hartree multipole update                   :        0.002 s           0.002 s
  | Hartree multipole summation                :        0.006 s           0.006 s
  | Integration                                :        0.013 s           0.013 s
  | Solution of K.-S. eqns.                    :        0.003 s           0.003 s
  | Total energy evaluation                    :        0.000 s           0.000 s

  Partial memory accounting:
  | Current value for overall tracked memory usage:
  |   Minimum:        0.158 MB (on task 7)
  |   Maximum:        0.186 MB (on task 0)
  |   Average:        0.175 MB
  | Peak value for overall tracked memory usage:
  |   Minimum:        0.762 MB (on task 7 after allocating wave)
  |   Maximum:        0.790 MB (on task 0 after allocating wave)
  |   Average:        0.779 MB
  | Largest tracked array allocation so far:
  |   Minimum:        0.155 MB (H_times_psi on task 0)
  |   Maximum:        0.155 MB (H_times_psi on task 0)
  |   Average:        0.155 MB
  Note:  These values currently only include a subset of arrays which are explicitly tracked.
  The "true" memory usage will be greater.
------------------------------------------------------------

------------------------------------------------------------
          Begin self-consistency iteration #    5

  Date     :  20190817, Time     :  153614.717
------------------------------------------------------------
  Evaluating new KS density.
  Integration grid: deviation in total charge (<rho> - N_e) =   0.000000E+00
  Pulay mixing of updated and previous charge densities.
  Renormalizing the density to the exact electron count on the 3D integration grid.
  | Formal number of electrons (from input files) :      14.0000000000
  | Integrated number of electrons on 3D grid     :      14.0000000000
  | Charge integration error                      :      -0.0000000000
  | Normalization factor for density and gradient :       1.0000000000

  Evaluating partitioned Hartree potential by multipole expansion.
  | Original multipole sum: apparent total charge =   0.519012E-14
  | Sum of charges compensated after spline to logarithmic grids =   0.506392E-06
  | Analytical far-field extrapolation by fixed multipoles:
  | Hartree multipole sum: apparent total charge =   0.523932E-14
  Summing up the Hartree potential.
  Time summed over all CPUs for potential: real work        0.051 s, elapsed        0.052 s
  | RMS charge density error from multipole expansion :   0.243811E-02

  Integrating Hamiltonian matrix: batch-based integration.
  Time summed over all CPUs for integration: real work        0.101 s, elapsed        0.104 s

  Updating Kohn-Sham eigenvalues and eigenvectors using ELSI and the ELPA eigensolver.
  Starting ELPA eigensolver
  Finished transformation to standard eigenproblem
  | Time :     0.000 s
  Finished solving standard eigenproblem
  | Time :     0.002 s
  Finished back-transformation of eigenvectors
  | Time :     0.000 s

  Obtaining occupation numbers and chemical potential using ELSI.
  | Chemical potential (Fermi level):    -4.77564155 eV
  Highest occupied state (VBM) at     -9.04430091 eV
  | Occupation number:      2.00000000

  Lowest unoccupied state (CBM) at    -1.95959235 eV
  | Occupation number:      0.00000000

  Overall HOMO-LUMO gap:      7.08470856 eV.

  Total energy components:
  | Sum of eigenvalues            :         -62.93680956 Ha       -1712.59772409 eV
  | XC energy correction          :         -12.97310573 Ha        -353.01616823 eV
  | XC potential correction       :          17.09300208 Ha         465.12425188 eV
  | Free-atom electrostatic energy:         -52.21058852 Ha       -1420.72239924 eV
  | Hartree energy correction     :          -1.44473872 Ha         -39.31334090 eV
  | Entropy correction            :           0.00000000 Ha           0.00000000 eV
  | ---------------------------
  | Total energy                  :        -112.47224045 Ha       -3060.52538058 eV
  | Total energy, T -> 0          :        -112.47224045 Ha       -3060.52538058 eV  <-- do not rely on this value for anything but (periodic) metals
  | Electronic free energy        :        -112.47224045 Ha       -3060.52538058 eV

  Derived energy quantities:
  | Kinetic energy                :         111.99772970 Ha        3047.61328599 eV
  | Electrostatic energy          :        -211.49686442 Ha       -5755.12249834 eV
  | Energy correction for multipole
  | error in Hartree potential    :          -0.00145975 Ha          -0.03972180 eV
  | Sum of eigenvalues per atom                           :        -856.29886204 eV
  | Total energy (T->0) per atom                          :       -1530.26269029 eV  <-- do not rely on this value for anything but (periodic) metals
  | Electronic free energy per atom                       :       -1530.26269029 eV

  Self-consistency convergence accuracy:
  | Change of charge density      :  0.3210E-02
  | Change of sum of eigenvalues  : -0.2756E-02 eV
  | Change of total energy        :  0.8525E-04 eV

[...]
          Begin self-consistency iteration #    6

  Date     :  20190817, Time     :  153615.594
------------------------------------------------------------
  Evaluating new KS density.
  Integration grid: deviation in total charge (<rho> - N_e) =   2.887965E-10
  Pulay mixing of updated and previous charge densities.
  Renormalizing the density to the exact electron count on the 3D integration grid.
  | Formal number of electrons (from input files) :       8.0000000000
  | Integrated number of electrons on 3D grid     :       7.9999999995
  | Charge integration error                      :      -0.0000000005
  | Normalization factor for density and gradient :       1.0000000001

  Evaluating partitioned Hartree potential by multipole expansion.
  | Original multipole sum: apparent total charge =  -0.786871E-14
  | Sum of charges compensated after spline to logarithmic grids =   0.329928E-08
  | Analytical far-field extrapolation by fixed multipoles:
  | Hartree multipole sum: apparent total charge =  -0.786881E-14
  Summing up the Hartree potential.
  Time summed over all CPUs for potential: real work        0.050 s, elapsed        0.051 s
  | RMS charge density error from multipole expansion :   0.127205E-05

  Integrating Hamiltonian matrix: batch-based integration.
  Time summed over all CPUs for integration: real work        0.098 s, elapsed        0.101 s

  Updating Kohn-Sham eigenvalues and eigenvectors using ELSI and the ELPA eigensolver.
  Starting ELPA eigensolver
  Finished transformation to standard eigenproblem
  | Time :     0.001 s
  Finished solving standard eigenproblem
  | Time :     0.001 s
  Finished back-transformation of eigenvectors
  | Time :     0.000 s

  Obtaining occupation numbers and chemical potential using ELSI.
  | Chemical potential (Fermi level):    -9.18854996 eV
  Highest occupied state (VBM) at     -9.20377819 eV
  | Occupation number:      1.33332757

  Lowest unoccupied state (CBM) at     0.91744392 eV
  | Occupation number:      0.00000000

  Overall HOMO-LUMO gap:     10.12122211 eV.
  This system has fractional occupation numbers. Thus, it is a degenerate system
  within the approximate finite broadening function (occupation_type)
  applied to determine the occupation numbers.
  This may not be harmful. However, for some systems (free atoms), a different, non-degenerate
  ground state might exist by using a smaller broadening (see keyword occupation_type).

  Total energy components:
  | Sum of eigenvalues            :         -40.61152513 Ha       -1105.09582542 eV
  | XC energy correction          :          -7.76583428 Ha        -211.31910249 eV
  | XC potential correction       :          10.23593818 Ha         278.53404946 eV
  | Free-atom electrostatic energy:         -36.32940072 Ha        -988.57329176 eV
  | Hartree energy correction     :           0.00013689 Ha           0.00372486 eV
  | Entropy correction            :          -0.00141726 Ha          -0.03856558 eV
  | ---------------------------
  | Total energy                  :         -74.47068507 Ha       -2026.45044535 eV
  | Total energy, T -> 0          :         -74.47210233 Ha       -2026.48901093 eV  <-- do not rely on this value for anything but (periodic) metals
  | Electronic free energy        :         -74.47351959 Ha       -2026.52757651 eV

  Derived energy quantities:
  | Kinetic energy                :          74.11512800 Ha        2016.77524533 eV
  | Electrostatic energy          :        -140.81997879 Ha       -3831.90658819 eV
  | Energy correction for multipole
  | error in Hartree potential    :          -0.00000030 Ha          -0.00000826 eV
  | Sum of eigenvalues per atom                           :        -552.54791271 eV
  | Total energy (T->0) per atom                          :       -1013.24450546 eV  <-- do not rely on this value for anything but (periodic) metals
  | Electronic free energy per atom                       :       -1013.26378825 eV

  Self-consistency convergence accuracy:
  | Change of charge density      :  0.2104E-06
  | Change of sum of eigenvalues  :  0.5787E-05 eV
  | Change of total energy        : -0.7192E-07 eV

  Writing Kohn-Sham eigenvalues.

  State    Occupation    Eigenvalue [Ha]    Eigenvalue [eV]
      1       2.00000         -18.758103         -510.43394
      2       2.00000          -0.871195          -23.70641
      3       1.33334          -0.338233           -9.20378
      4       1.33334          -0.338233           -9.20378
      5       1.33333          -0.338233           -9.20378
      6       0.00000           0.033715            0.91744
      7       0.00000           0.112998            3.07483
      8       0.00000           0.113593            3.09101
      9       0.00000           0.113593            3.09101
     10       0.00000           0.187836            5.11129
     11       0.00000           0.196057            5.33498
     12       0.00000           0.196057            5.33498
     13       0.00000           0.200688            5.46100
     14       0.00000           0.200688            5.46101
     15       0.00000           0.302485            8.23105
     16       0.00000           0.409814           11.15162
     17       0.00000           0.409814           11.15162
     18       0.00000           0.502624           13.67709
     19       0.00000           0.550917           14.99121
     20       0.00000           0.550917           14.99122
     21       0.00000           0.608909           16.56925
     22       0.00000           0.608909           16.56925
     23       0.00000           0.667849           18.17310
     24       0.00000           0.733641           19.96339
     25       0.00000           0.733641           19.96339
     26       0.00000           0.734306           19.98147
     27       0.00000           0.815415           22.18856
     28       0.00000           0.911794           24.81118
     29       0.00000           0.911795           24.81120
     30       0.00000           0.972845           26.47247
     31       0.00000           0.972845           26.47247
     32       0.00000           1.164042           31.67519
     33       0.00000           1.418862           38.60921
     34       0.00000           1.418862           38.60921
     35       0.00000           1.442738           39.25890
     36       0.00000           1.448509           39.41594
     37       0.00000           1.448509           39.41594
     38       0.00000           1.699127           46.23559
     39       0.00000           1.699128           46.23562
     40       0.00000           1.896944           51.61846
     41       0.00000           1.896948           51.61857
     42       0.00000           1.937957           52.73449
     43       0.00000           1.982218           53.93890
     44       0.00000           1.982218           53.93890
     45       0.00000           2.008940           54.66603
     46       0.00000           2.008940           54.66603
     47       0.00000           2.131129           57.99098
     48       0.00000           2.156556           58.68289
     49       0.00000           2.156556           58.68289
     50       0.00000           2.220993           60.43630
     51       0.00000           2.643845           71.94268
     52       0.00000           2.693132           73.28385
     53       0.00000           2.693132           73.28385
     54       0.00000           2.752793           74.90732
     55       0.00000           2.752795           74.90736
     56       0.00000           2.912707           79.25880
     57       0.00000           2.919502           79.44370
     58       0.00000           2.919502           79.44370
     59       0.00000           3.318409           90.29850
     60       0.00000           3.331988           90.66800
     61       0.00000           3.331989           90.66802
     62       0.00000           3.749216          102.02137
     63       0.00000           3.749216          102.02137
     64       0.00000           3.868497          105.26717
     65       0.00000           3.868500          105.26724
     66       0.00000           4.185299          113.88778
     67       0.00000           4.185299          113.88778
     68       0.00000           4.903849          133.44051
     69       0.00000           4.999452          136.04200
     70       0.00000           4.999453          136.04205
     71       0.00000           5.033397          136.96571
     72       0.00000           5.033397          136.96571
     73       0.00000           5.420861          147.50912
     74       0.00000           5.420864          147.50923
     75       0.00000           5.450290          148.30992
     76       0.00000           5.639700          153.46404
     77       0.00000           5.639700          153.46404
     78       0.00000           5.677627          154.49610
     79       0.00000           5.677627          154.49610
     80       0.00000           6.004792          163.39871
     81       0.00000           6.011699          163.58665
     82       0.00000           6.345555          172.67133
     83       0.00000           6.345559          172.67145
     84       0.00000           6.498047          176.82086
     85       0.00000           6.498052          176.82099
     86       0.00000           6.662868          181.30587
     87       0.00000           6.662868          181.30587
     88       0.00000           6.700771          182.33726
     89       0.00000           6.700771          182.33726
     90       0.00000           7.307426          198.84517
     91       0.00000           7.307426          198.84517
     92       0.00000           7.613784          207.18161
     93       0.00000           7.790586          211.99263
     94       0.00000           7.894845          214.82966
     95       0.00000           7.894845          214.82966
     96       0.00000           7.954397          216.45015
     97       0.00000           7.954401          216.45025
     98       0.00000           8.724752          237.41258
     99       0.00000           8.724755          237.41267
    100       0.00000           8.918971          242.69754
    101       0.00000           9.519205          259.03074
    102       0.00000           9.519205          259.03074
    103       0.00000          10.675227          290.48769
    104       0.00000          10.675227          290.48769
    105       0.00000          10.940874          297.71634
    106       0.00000          10.940874          297.71634
    107       0.00000          11.998226          326.48835
    108       0.00000          12.833845          349.22668
    109       0.00000          34.912924          950.02901
    110       0.00000          59.549177         1620.41555

  Highest occupied state (VBM) at     -9.20377819 eV
  | Occupation number:      1.33332757

  Lowest unoccupied state (CBM) at     0.91744392 eV
  | Occupation number:      0.00000000

  Overall HOMO-LUMO gap:     10.12122211 eV.
  This system has fractional occupation numbers. Thus, it is a degenerate system
  within the approximate finite broadening function (occupation_type)
  applied to determine the occupation numbers.
  This may not be harmful. However, for some systems (free atoms), a different, non-degenerate
  ground state might exist by using a smaller broadening (see keyword occupation_type).

  Self-consistency cycle converged.

  End self-consistency iteration #     6       :  max(cpu_time)    wall_clock(cpu1)
  | Time for this iteration                    :        0.033 s           0.033 s
  | Charge density update                      :        0.006 s           0.007 s
  | Density mixing                             :        0.001 s           0.000 s
  | Hartree multipole update                   :        0.002 s           0.002 s
  | Hartree multipole summation                :        0.007 s           0.007 s
  | Integration                                :        0.013 s           0.013 s
  | Solution of K.-S. eqns.                    :        0.004 s           0.003 s
  | Total energy evaluation                    :        0.000 s           0.001 s

  Partial memory accounting:
  | Current value for overall tracked memory usage:
  |   Minimum:        0.158 MB (on task 7)
  |   Maximum:        0.186 MB (on task 0)
  |   Average:        0.175 MB
  | Peak value for overall tracked memory usage:
  |   Minimum:        0.762 MB (on task 7 after allocating wave)
  |   Maximum:        0.790 MB (on task 0 after allocating wave)
  |   Average:        0.779 MB
  | Largest tracked array allocation so far:
  |   Minimum:        0.157 MB (H_times_psi on task 0)
  |   Maximum:        0.157 MB (H_times_psi on task 0)
  |   Average:        0.157 MB
  Note:  These values currently only include a subset of arrays which are explicitly tracked.
  The "true" memory usage will be greater.
------------------------------------------------------------

  Energy and forces in a compact form:
  | Total energy uncorrected      :         -0.202645044534988E+04 eV
  | Total energy corrected        :         -0.202648901092976E+04 eV  <-- do not rely on this value for anything but (periodic) metals
  | Electronic free energy        :         -0.202652757650965E+04 eV

  ------------------------------------ 
  Start decomposition of the XC Energy 
  ------------------------------------ 
  X and C from original XC functional choice 
  Hartree-Fock Energy :          0.000000000 Ha              0.000000000 eV
  X Energy            :         -7.219893553 Ha           -196.463299512 eV
  C Energy            :         -0.545940725 Ha            -14.855802979 eV
  Total XC Energy     :         -7.765834278 Ha           -211.319102491 eV
  ------------------------------------ 
  LDA X and C from self-consistent density 
  X Energy LDA        :         -7.219893553 Ha           -196.463299512 eV
  C Energy LDA        :         -0.545940725 Ha            -14.855802979 eV
  ------------------------------------ 
  End decomposition of the XC Energy 
  ------------------------------------ 

------------------------------------------------------------

------------------------------------------------------------

  |------------------------------------------------------
  | Final ELSI Output
  |------------------------------------------------------
  |
  | Physical Properties
  |   Number of electrons       :        0.14000000E+02
  |   Number of spins           :                     1
  |   Number of k-points        :                     1
  |   Number of states          :                   110
  |
  | Matrix Properties
  |   Matrix format             :           BLACS_DENSE
  |   Number of basis functions :                   110
  |   Matrix sparsity           :        0.77950413E+00
  |
  | Computational Details
  |   Parallel mode             :            MULTI_PROC
  |   Number of MPI tasks       :                     8
  |   Solver requested          :                  ELPA
  |   Number of ELSI calls      :                    29
  |
  |------------------------------------------------------
  | ELSI Project (c)  elsi-interchange.org
  |------------------------------------------------------

  Final total energy output will not be written in atomization BSSE run.
  A listing of the relevant total energies for all subsystems can be found above.
  Methods described in the following list of references were used in this FHI-aims run.
  If you publish the results, please make sure to cite these reference if they apply.
  FHI-aims is an academic code, and for our developers (often, Ph.D. students
  and postdocs), scientific credit in the community is essential.
  Thank you for helping us!

  For any use of FHI-aims, please cite:

    Volker Blum, Ralf Gehrke, Felix Hanke, Paula Havu, Ville Havu,
    Xinguo Ren, Karsten Reuter, and Matthias Scheffler
    'Ab initio molecular simulations with numeric atom-centered orbitals'
    Computer Physics Communications 180, 2175-2196 (2009)
    http://dx.doi.org/10.1016/j.cpc.2009.06.022


  The ELSI infrastructure was used in your run to solve the Kohn-Sham electronic structure.
  Please check out http://elsi-interchange.org to learn more.
  If scalability is important for your project, please acknowledge ELSI by citing:

    V. W-z. Yu, F. Corsetti, A. Garcia, W. P. Huhn, M. Jacquelin, W. Jia,
    B. Lange, L. Lin, J. Lu, W. Mi, A. Seifitokaldani, A. Vazquez-Mayagoitia,
    C. Yang, H. Yang, and V. Blum
    'ELSI: A unified software interface for Kohn-Sham electronic structure solvers'
    Computer Physics Communications 222, 267-285 (2018).
    http://dx.doi.org/10.1016/j.cpc.2017.09.007


  For the real-space grid partitioning and parallelization used in this calculation, please cite:

    Ville Havu, Volker Blum, Paula Havu, and Matthias Scheffler,
    'Efficient O(N) integration for all-electron electronic structure calculation'
    'using numerically tabulated basis functions'
    Journal of Computational Physics 228, 8367-8379 (2009).
    http://dx.doi.org/10.1016/j.jcp.2009.08.008

  Of course, there are many other important community references, e.g., those cited in the
  above references. Our list is limited to references that describe implementations in the
  FHI-aims code. The reason is purely practical (length of this list) - please credit others as well.

------------------------------------------------------------
          Leaving FHI-aims.
          Date     :  20190817, Time     :  153615.634

          Computational steps:
          | Number of self-consistency cycles          :           26
          | Number of SCF (re)initializations          :            3
          | Total number of per-atom bsse calculation steps done   :            2

          Detailed time accounting                     :  max(cpu_time)    wall_clock(cpu1)
          | Total time                                 :        1.355 s           1.395 s
          | Preparation time                           :        0.187 s           0.186 s
          | Boundary condition initalization           :        0.000 s           0.000 s
          | Grid partitioning                          :        0.031 s           0.032 s
          | Preloading free-atom quantities on grid    :        0.018 s           0.018 s
          | Free-atom superposition energy             :        0.009 s           0.008 s
          | Total time for integrations                :        0.382 s           0.386 s
          | Total time for solution of K.-S. equations :        0.103 s           0.107 s
          | Total time for density update              :        0.158 s           0.159 s
          | Total time for mixing                      :        0.016 s           0.012 s
          | Total time for Hartree multipole update    :        0.047 s           0.052 s
          | Total time for Hartree multipole sum       :        0.173 s           0.169 s
          | Total time for total energy evaluation     :        0.004 s           0.005 s

          Partial memory accounting:
          | Residual value for overall tracked memory usage across tasks:     0.000000 MB (should be 0.000000 MB)
          | Peak values for overall tracked memory usage:
          |   Minimum:        0.762 MB (on task 7 after allocating wave)
          |   Maximum:        0.790 MB (on task 0 after allocating wave)
          |   Average:        0.779 MB
          | Largest tracked array allocation:
          |   Minimum:        0.157 MB (H_times_psi on task 0)
          |   Maximum:        0.157 MB (H_times_psi on task 0)
          |   Average:        0.157 MB
          Note:  These values currently only include a subset of arrays which are explicitly tracked.
          The "true" memory usage will be greater.

          Have a nice day.
------------------------------------------------------------
