  MPI-parallelism will be employed.
------------------------------------------------------------
          Invoking FHI-aims ...
          Version 180101-
          Git rev. (modified): fa29f3a Merge branch master of fhiaims.rzberlin.mp[...]
          Compiled on 2018/01/19 at 14:47:46 on host theobook132.

          When using FHI-aims, please cite the following reference:

          Volker Blum, Ralf Gehrke, Felix Hanke, Paula Havu,
          Ville Havu, Xinguo Ren, Karsten Reuter, and Matthias Scheffler,
          'Ab Initio Molecular Simulations with Numeric Atom-Centered Orbitals',
          Computer Physics Communications 180, 2175-2196 (2009)

          For any questions about FHI-aims, please visit the aimsclub website
          with its forums and wiki. Contributions to both the forums and the
          wiki are warmly encouraged - they are for you, and everyone is welcome there.

------------------------------------------------------------



  Date     :  20180215, Time     :  214248.546
  Time zero on CPU 1             :   0.520000000000000E-01  s.
  Internal wall clock time zero  :           287962968.546  s.

  FHI-aims created a unique identifier for this run for later identification
  aims_uuid : 7B6CD921-48DF-4EDE-A171-7346672B0F98

  Using        8 parallel tasks.
  Task        0 on host theobook132 reporting.
  Task        1 on host theobook132 reporting.
  Task        2 on host theobook132 reporting.
  Task        3 on host theobook132 reporting.
  Task        4 on host theobook132 reporting.
  Task        5 on host theobook132 reporting.
  Task        6 on host theobook132 reporting.
  Task        7 on host theobook132 reporting.

  Performing system and environment tests:
  *** Environment variable OMP_NUM_THREADS is not set
  *** For performance reasons you might want to set it to 1
  | Stacksize not measured: no C compiler
  | Checking for scalapack...
  | No scalapack compiled in.

  Obtaining array dimensions for all initial allocations:
  
  -----------------------------------------------------------------------
  Parsing control.in (first pass over file, find array dimensions only).
  The contents of control.in will be repeated verbatim below
  unless switched off by setting 'verbatim_writeout .false.' .
  in the first line of control.in .
  -----------------------------------------------------------------------
  
  ################################################################################
  #
  #		Control.in generated by mkcontrol
  #
  ################################################################################
  xc			pbe
  vdw_correction_hirshfeld
  relativistic		none
  sc_accuracy_rho		1E-5
  sc_accuracy_eev		1E-3
  sc_accuracy_etot	1E-6
  sc_iter_limit		1000	
  
  compute_forces .true.
  final_forces_cleaned .true.
  
  ################################################################################
  #
  #  FHI-aims code project
  #  VB, Fritz-Haber Institut, 2009
  #
  #  Suggested "light" defaults for H atom (to be pasted into control.in file)
  #  Be sure to double-check any results obtained with these settings for post-processing,
  #  e.g., with the "tight" defaults and larger basis sets.
  #
  ################################################################################
    species        H
  #     global species definitions
      nucleus             1
      mass                1.00794
  #
      l_hartree           4
  #
      cut_pot             3.5  1.5  1.0
      basis_dep_cutoff    1e-4
  #
      radial_base         24 5.0
      radial_multiplier   1
      angular_grids       specified
        division   0.2421   50
        division   0.3822  110
        division   0.4799  194
        division   0.5341  302
  #      division   0.5626  434
  #      division   0.5922  590
  #      division   0.6542  770
  #      division   0.6868 1202
  #      outer_grid  770
        outer_grid  302
  ################################################################################
  #
  #  Definition of "minimal" basis
  #
  ################################################################################
  #     valence basis states
      valence      1  s   1.
  #     ion occupancy
      ion_occ      1  s   0.5
  ################################################################################
  #
  #  Suggested additional basis functions. For production calculations,
  #  uncomment them one after another (the most important basis functions are
  #  listed first).
  #
  #  Basis constructed for dimers: 0.5 A, 0.7 A, 1.0 A, 1.5 A, 2.5 A
  #
  ################################################################################
  #  "First tier" - improvements: -1014.90 meV to -62.69 meV
       hydro 2 s 2.1
       hydro 2 p 3.5
  #  "Second tier" - improvements: -12.89 meV to -1.83 meV
  #     hydro 1 s 0.85
  #     hydro 2 p 3.7
  #     hydro 2 s 1.2
  #     hydro 3 d 7
  #  "Third tier" - improvements: -0.25 meV to -0.12 meV
  #     hydro 4 f 11.2
  #     hydro 3 p 4.8
  #     hydro 4 d 9
  #     hydro 3 s 3.2
  
  ################################################################################
  #
  #  FHI-aims code project
  #  VB, Fritz-Haber Institut, 2009
  #
  #  Suggested "light" defaults for C atom (to be pasted into control.in file)
  #  Be sure to double-check any results obtained with these settings forpost-processing,
  #  e.g., with the "tight" defaults and larger basis sets.
  #
  ################################################################################
    species        C
  #     global species definitions
      nucleus             6
      mass                12.0107
  #
      l_hartree           4
  #
      cut_pot             3.5  1.5  1.0
      basis_dep_cutoff    1e-4
  #
      radial_base         34 5.0
      radial_multiplier   1
      angular_grids specified
        division   0.3326   50
        division   0.5710  110
        division   0.7727  194
        division   0.8772  302
  #      division   0.9334  434
  #      division   0.9625  590
  #      division   0.9924  770
  #      division   1.0230  974
  #      division   1.4589 1202
  #     outer_grid  974
       outer_grid 302
  ################################################################################
  #
  #  Definition of "minimal" basis
  #
  ################################################################################
  #     valence basis states
      valence      2  s   2.
      valence      2  p   2.
  #     ion occupancy
      ion_occ      2  s   1.
      ion_occ      2  p   1.
  ################################################################################
  #
  #  Suggested additional basis functions. For production calculations,
  #  uncomment them one after another (the most important basis functions are
  #  listed first).
  #
  #  Constructed for dimers: 1.0 A, 1.25 A, 1.5 A, 2.0 A, 3.0 A
  #
  ################################################################################
  #  "First tier" - improvements: -1214.57 meV to -155.61 meV
       hydro 2 p 1.7
       hydro 3 d 6
       hydro 2 s 4.9
  #  "Second tier" - improvements: -67.75 meV to -5.23 meV
  #     hydro 4 f 9.8
  #     hydro 3 p 5.2
  #     hydro 3 s 4.3
  #     hydro 5 g 14.4
  #     hydro 3 d 6.2
  #  "Third tier" - improvements: -2.43 meV to -0.60 meV
  #     hydro 2 p 5.6
  #     hydro 2 s 1.4
  #     hydro 3 d 4.9
  #     hydro 4 f 11.2
  #  "Fourth tier" - improvements: -0.39 meV to -0.18 meV
  #     hydro 2 p 2.1
  #     hydro 5 g 16.4
  #     hydro 4 d 13.2
  #     hydro 3 s 13.6
  #     hydro 4 f 17.6
  #  Further basis functions - improvements: -0.08 meV and below
  #     hydro 3 s 2
  #     hydro 3 p 6
  #     hydro 4 d 20
  
  -----------------------------------------------------------------------
  Completed first pass over input file control.in .
  -----------------------------------------------------------------------
  
  
  -----------------------------------------------------------------------
  Parsing geometry.in (first pass over file, find array dimensions only).
  The contents of geometry.in will be repeated verbatim below
  unless switched off by setting 'verbatim_writeout .false.' .
  in the first line of geometry.in .
  -----------------------------------------------------------------------
  
  #=======================================#
  # iterations/iteration0037/aims-chain-node-0.25895/geometry.in
  #=======================================#
  atom -1.6664638679160091 -1.0458222288411343 -0.0059869842702760 C
  atom -0.6657260003629417 0.0769771449291973 0.0156051848023357 C
  atom 0.6657260006741321 -0.0769771008869827 0.0156053964073407 C
  atom 1.6664638459241703 1.0458222289879096 -0.0059873360253457 C
  atom -1.2744160297658791 -1.9189817660971233 -0.5465730999940318 H
  atom -2.5977048152418352 -0.7352551439630088 -0.5005928625975372 H
  atom -1.9415552909288467 -1.3795467188857975 1.0080082235533685 H
  atom -1.0725398410766682 1.0960085676860709 0.0295398388889405 H
  atom 1.0725398813754401 -1.0960085031729947 0.0295408677217366 H
  atom 1.2744151353710707 1.9189823246280153 -0.5465719112358992 H
  atom 1.9415570225889778 1.3795456373342945 1.0080077579225670 H
  atom 2.5977039593583853 0.7352555582815685 -0.5005950751731997 H
  
  -----------------------------------------------------------------------
  Completed first pass over input file geometry.in .
  -----------------------------------------------------------------------
  

  Basic array size parameters:
  | Number of species                 :        2
  | Number of atoms                   :       12
  | Max. basis fn. angular momentum   :        2
  | Max. atomic/ionic basis occupied n:        2
  | Max. number of basis fn. types    :        2
  | Max. radial fns per species/type  :        3
  | Max. logarithmic grid size        :     1277
  | Max. radial integration grid size :       34
  | Max. angular integration grid size:      302
  | Max. angular grid division number :        8
  | Radial grid for Hartree potential :     1277
  | Number of spin channels           :        1

------------------------------------------------------------
          Reading file control.in.
------------------------------------------------------------
  XC: Using PBE gradient-corrected functionals.
  Non-relativistic treatment of kinetic energy.
  Convergence accuracy of self-consistent charge density:  0.1000E-04
  Convergence accuracy of sum of eigenvalues:  0.1000E-02
  Convergence accuracy of total energy:  0.1000E-05
  Maximum number of s.-c. iterations  :  1000
  Forces will be computed.
  Cleaning forces before final output.
 
  Reading configuration options for species H                   .
  | Found nuclear charge :   1.0000
  | Found atomic mass :    1.00794000000000      amu
  | Found l_max for Hartree potential  :   4
  | Found cutoff potl. onset [A], width [A], scale factor :    3.50000    1.50000    1.00000
  | Threshold for basis-dependent cutoff potential is   0.100000E-03
  | Found data for basic radial integration grid :    24 points, outermost radius =    5.000 A
  | Found multiplier for basic radial grid :   1
  | Found angular grid specification: user-specified.
  | Specified grid contains     5 separate shells.
  | Check grid settings after all constraints further below.
  | Found free-atom valence shell :  1 s   1.000
  | No ionic wave fns used. Skipping ion_occ.
  | Found hydrogenic basis function :  2 s   2.100
  | Found hydrogenic basis function :  2 p   3.500
  Species H                   : Missing cutoff potential type.
  Defaulting to exp(1/x)/(1-x)^2 type cutoff potential.
  Species H : No 'logarithmic' tag. Using default grid for free atom:
  | Default logarithmic grid data [bohr] : 0.1000E-03 0.1000E+03 0.1012E+01
  Species H : On-site basis accuracy parameter (for Gram-Schmidt orthonormalisation) not specified.
  Using default value basis_acc =  0.1000000E-03.
  Species H                   : Using default innermost maximum threshold i_radial=  2 for radial functions.
  Species H                   : Default cutoff onset for free atom density etc. : 0.35000000E+01 AA.
  Species H                   : Basic radial grid will be enhanced according to radial_multiplier =   1, to contain    24 grid points.
 
  Reading configuration options for species C                   .
  | Found nuclear charge :   6.0000
  | Found atomic mass :    12.0107000000000      amu
  | Found l_max for Hartree potential  :   4
  | Found cutoff potl. onset [A], width [A], scale factor :    3.50000    1.50000    1.00000
  | Threshold for basis-dependent cutoff potential is   0.100000E-03
  | Found data for basic radial integration grid :    34 points, outermost radius =    5.000 A
  | Found multiplier for basic radial grid :   1
  | Found angular grid specification: user-specified.
  | Specified grid contains     5 separate shells.
  | Check grid settings after all constraints further below.
  | Found free-atom valence shell :  2 s   2.000
  | Found free-atom valence shell :  2 p   2.000
  | No ionic wave fns used. Skipping ion_occ.
  | No ionic wave fns used. Skipping ion_occ.
  | Found hydrogenic basis function :  2 p   1.700
  | Found hydrogenic basis function :  3 d   6.000
  | Found hydrogenic basis function :  2 s   4.900
  Species C                   : Missing cutoff potential type.
  Defaulting to exp(1/x)/(1-x)^2 type cutoff potential.
  Species C : No 'logarithmic' tag. Using default grid for free atom:
  | Default logarithmic grid data [bohr] : 0.1000E-03 0.1000E+03 0.1012E+01
  Species C : On-site basis accuracy parameter (for Gram-Schmidt orthonormalisation) not specified.
  Using default value basis_acc =  0.1000000E-03.
  Species C                   : Using default innermost maximum threshold i_radial=  2 for radial functions.
  Species C                   : Default cutoff onset for free atom density etc. : 0.35000000E+01 AA.
  Species C                   : Basic radial grid will be enhanced according to radial_multiplier =   1, to contain    34 grid points.
 
  Finished reading input file 'control.in'. Consistency checks are next.
 
  MPI_IN_PLACE appears to work with this MPI implementation.
  | Keeping use_mpi_in_place .true. (see manual).
  Target number of points in a grid batch is not set. Defaulting to  100
  Method for grid partitioning is not set. Defaulting to parallel hash+maxmin partitioning.
  Batch size limit is not set. Defaulting to    200
  By default, will store active basis functions for each batch.
  If in need of memory, prune_basis_once .false. can be used to disable this option.
  communication_type for Hartree potential was not specified.
  Defaulting to calc_hartree .
  Defaulting to Pulay charge density mixer.
  Pulay mixer: Number of relevant iterations not set.
  Defaulting to    8 iterations.
  Pulay mixer: Number of initial linear mixing iterations not set.
  Defaulting to    0 iterations.
  Work space size for distributed Hartree potential not set.
  Defaulting to   0.200000E+03 MB.
  Mixing parameter for charge density mixing has not been set.
  Using default: charge_mix_param =     0.0500.
  The mixing parameter will be adjusted in iteration number     2 of the first full s.c.f. cycle only.
  Algorithm-dependent basis array size parameters:
  | n_max_pulay                         :        8
  Presetting        40 iterations before the initial mixing cycle
  is restarted anyway using the sc_init_iter criterion / keyword.
  Presetting a factor      1.000 between actual scf density residual
  and density convergence criterion sc_accuracy_rho below which sc_init_iter
  takes no effect.
  Geometry relaxation not requested: no relaxation will be performed.
  Force calculation: scf convergence accuracy of forces not set.
  Defaulting to 'sc_accuracy_forces not_checked'.
  Handling of forces: Unphysical translation and rotation will be removed from forces.
  No accuracy limit for integral partition fn. given. Defaulting to  0.1000E-14.
  No threshold value for u(r) in integrations given. Defaulting to  0.1000E-05.
  No occupation type (smearing scheme) given. Defaulting to Gaussian broadening, width =  0.1000E-01 eV.
  The width will be adjusted in iteration number     2 of the first full s.c.f. cycle only.
  S.C.F. convergence parameters will be adjusted in iteration number     2 of the first full s.c.f. cycle only.
  No accuracy for occupation numbers given. Defaulting to  0.1000E-12.
  No threshold value for occupation numbers given. Defaulting to  0.0000E+00.
  No accuracy for fermi level given. Defaulting to  0.1000E-19.
  Maximum # of iterations to find E_F not set. Defaulting to  200.
  Preferred method for the eigenvalue solver ('KS_method') not specified in 'control.in'.
  Calling BLACS routine to test compilation state
  The best choice would be 'elsi', but your version of FHI-aims is compiled without ScaLAPACK support.
  Defaulting to 'lapack_fast' instead (serial solution, time will not improve with more CPUs).
  Will not use alltoall communication since running on < 1024 CPUs.
  Threshold for basis singularities not set.
  Default threshold for basis singularities:  0.1000E-04
  partition_type (choice of integration weights) for integrals was not specified.
  | Using a version of the partition function of Stratmann and coworkers ('stratmann_smoother').
  | At each grid point, the set of atoms used to build the partition table is smoothly restricted to
  | only those atoms whose free-atom density would be non-zero at that grid point.
  Partitioning for Hartree potential was not defined. Using partition_type for integrals.
  | Adjusted default value of keyword multip_moments_threshold to:       0.10000000E-11
  | This value may affect high angular momentum components of the Hartree potential in periodic systems.
  Spin handling was not defined in control.in. Defaulting to unpolarized case.
  No q(lm)/r^(l+1) cutoff set for long-range Hartree potential.
  | Using default value of  0.100000E-09 .
  | Verify using the multipole_threshold keyword.
  Defaulting to new monopole extrapolation.
  Density update method: automatic selection selected.
------------------------------------------------------------


------------------------------------------------------------
          Reading geometry description geometry.in.
------------------------------------------------------------
  Input structure read successfully.
  The structure contains       12 atoms,  and a total of         32.000 electrons.

  Input geometry:
  | No unit cell requested.
  | Atomic structure:
  |       Atom                x [A]            y [A]            z [A]
  |    1: Species C            -1.66646387       -1.04582223       -0.00598698
  |    2: Species C            -0.66572600        0.07697714        0.01560518
  |    3: Species C             0.66572600       -0.07697710        0.01560540
  |    4: Species C             1.66646385        1.04582223       -0.00598734
  |    5: Species H            -1.27441603       -1.91898177       -0.54657310
  |    6: Species H            -2.59770482       -0.73525514       -0.50059286
  |    7: Species H            -1.94155529       -1.37954672        1.00800822
  |    8: Species H            -1.07253984        1.09600857        0.02953984
  |    9: Species H             1.07253988       -1.09600850        0.02954087
  |   10: Species H             1.27441514        1.91898232       -0.54657191
  |   11: Species H             1.94155702        1.37954564        1.00800776
  |   12: Species H             2.59770396        0.73525556       -0.50059508
  |

  | The smallest distance between any two atoms is         1.09732252 AA.
  |
  | The first atom of this pair is atom number                      2 .
  | The second atom of this pair is atom number                     8 .

  Number of empty states per atom not set in control.in - providing a guess from actual geometry.
  | Total number of empty states used during s.c.f. cycle:       24
  If you use a very high smearing, use empty_states (per atom!) in control.in to increase this value.

  Structure-dependent array size parameters: 
  | Maximum number of distinct radial functions  :        9
  | Maximum number of basis functions            :       96
  | Number of Kohn-Sham states (occupied + empty):       40
------------------------------------------------------------

------------------------------------------------------------
          Preparing all fixed parts of the calculation.
------------------------------------------------------------
  Determining machine precision:
    2.225073858507201E-308
  Setting up grids for atomic and cluster calculations.

  Creating wave function, potential, and density for free atoms.

  Species: H

  List of occupied orbitals and eigenvalues:
    n    l              occ      energy [Ha]    energy [eV]
    1    0           1.0000        -0.237589        -6.4651


  Species: C

  List of occupied orbitals and eigenvalues:
    n    l              occ      energy [Ha]    energy [eV]
    1    0           2.0000       -10.038835      -273.1706
    2    0           2.0000        -0.502696       -13.6791
    2    1           2.0000        -0.191971        -5.2238

  Creating fixed part of basis set: Ionic, confined, hydrogenic.
 
  H                    hydrogenic:
 
  List of hydrogenic basis orbitals: 
    n    l      effective z      eigenvalue [eV]  inner max. [A]     outer max. [A]     outer radius [A]   
    2    0         2.100000       -14.9728           0.193243           1.317208           4.583499
    2    1         3.500000       -41.6669           0.602369           0.602369           3.723403
 
 
  C                    hydrogenic:
 
  List of hydrogenic basis orbitals: 
    n    l      effective z      eigenvalue [eV]  inner max. [A]     outer max. [A]     outer radius [A]   
    2    1         1.700000        -9.7616           1.230570           1.230570           4.607917
    3    2         6.000000       -54.4224           0.792453           0.792453           3.883070
    2    0         4.900000       -81.6679           0.082559           0.562749           3.078220
 

  Adding cutoff potential to free-atom effective potential.
  Creating atomic-like basis functions for current effective potential.

  Species H                   :

  List of atomic basis orbitals and eigenvalues:
    n    l      energy [Ha]    energy [eV]    outer radius [A]
    1    0        -0.237589        -6.4651       4.527807


  Species C                   :

  List of atomic basis orbitals and eigenvalues:
    n    l      energy [Ha]    energy [eV]    outer radius [A]
    1    0       -10.038835      -273.1706       1.934409
    2    0        -0.502696       -13.6791       4.496620
    2    1        -0.191971        -5.2238       4.551928

  Assembling full basis from fixed parts.
  | Species H :   atomic orbital   1 s accepted.
  | Species H :    hydro orbital   2 s accepted.
  | Species H :    hydro orbital   2 p accepted.
  | Species C :   atomic orbital   1 s accepted.
  | Species C :    hydro orbital   2 s accepted.
  | Species C :   atomic orbital   2 s accepted.
  | Species C :   atomic orbital   2 p accepted.
  | Species C :    hydro orbital   2 p accepted.
  | Species C :    hydro orbital   3 d accepted.
 
  Basis size parameters after reduction:
  | Total number of radial functions:        9
  | Total number of basis functions :       96
 
  Per-task memory consumption for arrays in subroutine allocate_ext:
  |           2.209696MB.
  Testing on-site integration grid accuracy.
  |  Species  Function  <phi|h_atom|phi> (log., in eV)  <phi|h_atom|phi> (rad., in eV)
           1        1                 -6.4663192853                 -6.4651273558
           1        2                 13.7111246313                 13.7170609718
           1        3                 25.2673269279                 25.2674696378
           2        4               -273.1705927641               -273.1705631568
           2        5                -10.7109323383                -10.7107120029
           2        6                 17.4381822266                 17.4352413244
           2        7                 -5.2255326521                 -5.2270484734
           2        8                  8.6835629259                  8.6603288385
           2        9                 27.4952418996                 27.4953360207

  Preparing densities etc. for the partition functions (integrals / Hartree potential).

  Preparations completed.
  max(cpu_time)          :      0.128 s.
  Wall clock time (cpu1) :      0.131 s.
------------------------------------------------------------

------------------------------------------------------------
          Begin self-consistency loop: Initialization.

          Date     :  20180215, Time     :  214248.689
------------------------------------------------------------

  Initializing index lists of integration centers etc. from given atomic structure:
  | Number of centers in hartree potential         :        12
  | Number of centers in hartree multipole         :        12
  | Number of centers in electron density summation:        12
  | Number of centers in basis integrals           :        12
  | Number of centers in integrals                 :        12
  | Number of centers in hamiltonian               :        12
  Partitioning the integration grid into batches with parallel hashing+maxmin method.
  | Number of batches:      730
  | Maximal batch size:     200
  | Minimal batch size:      49
  | Average batch size:      83.485
  | Standard deviation of batch sizes:      25.353

  Integration load balanced across     8 MPI tasks.
  Work distribution over tasks is as follows:
  Task     0 has       7615 integration points.
  Task     1 has       7639 integration points.
  Task     2 has       7592 integration points.
  Task     3 has       7641 integration points.
  Task     4 has       7596 integration points.
  Task     5 has       7650 integration points.
  Task     6 has       7597 integration points.
  Task     7 has       7614 integration points.
  Initializing partition tables, free-atom densities, potentials, etc. across the integration grid (initialize_grid_storage).
  | initialize_grid_storage: Actual outermost partition radius vs. multipole_radius_free
  | (-- VB: in principle, multipole_radius_free should be larger, hence this output)
  | Species        1: Confinement radius =              4.999999999999999 AA, multipole_radius_free =              5.054417573612229 AA.
  | Species        1: outer_partition_radius set to              5.054417573612229 AA .
  | Species        2: Confinement radius =              4.999999999999999 AA, multipole_radius_free =              5.019602836301480 AA.
  | Species        2: outer_partition_radius set to              5.019602836301480 AA .
  | Original list of interatomic distances with          12 x         12 entries is created.
  | Net number of integration points:    60944
  | of which are non-zero points    :    52404
  Renormalizing the initial density to the exact electron count on the 3D integration grid.
  | Initial density: Formal number of electrons (from input files) :      32.0000000000
  | Integrated number of electrons on 3D grid     :      31.9998413270
  | Charge integration error                      :      -0.0001586730
  | Normalization factor for density and gradient :       1.0000049586
  Obtaining max. number of non-zero basis functions in each batch (get_n_compute_maxes).
  | Maximal number of non-zero basis functions:       96 in task     0
  | Maximal number of non-zero basis functions:       96 in task     1
  | Maximal number of non-zero basis functions:       96 in task     2
  | Maximal number of non-zero basis functions:       96 in task     3
  | Maximal number of non-zero basis functions:       96 in task     4
  | Maximal number of non-zero basis functions:       96 in task     5
  | Maximal number of non-zero basis functions:       96 in task     6
  | Maximal number of non-zero basis functions:       96 in task     7
  Selecting the method for density update.
  Loop over occupied states selected for charge density update.
  Allocating        0.031 MB for KS_eigenvector
  Integrating Hamiltonian matrix: batch-based integration.
  Time summed over all CPUs for integration: real work        1.294 s, elapsed        1.340 s
  Integrating overlap matrix.
  Time summed over all CPUs for integration: real work        0.496 s, elapsed        0.511 s

  Updating Kohn-Sham eigenvalues, eigenvectors, occupation numbers, and Fermi level.
  Solving generalized eigenproblem
  Updating Kohn-Sham eigenvalues and eigenfunctions.
  Transforming overlap matrix and checking for singularities.
  Overlap matrix is nonsingular:
  | Lowest eigenvalue:  0.319747E-02
  Solving real generalised eigenvalue problem by standard LAPACK (fast)

  Obtaining occupation numbers and chemical potential using ELSI.
  | Chemical potential (Fermi level):    -8.47507552eV
  Writing Kohn-Sham eigenvalues.

  State    Occupation    Eigenvalue [Ha]    Eigenvalue [eV]
      1       2.00000         -10.166453         -276.64326
      2       2.00000         -10.166453         -276.64326
      3       2.00000         -10.151184         -276.22778
      4       2.00000         -10.150529         -276.20994
      5       2.00000          -0.927949          -25.25077
      6       2.00000          -0.854589          -23.25454
      7       2.00000          -0.784725          -21.35344
      8       2.00000          -0.667802          -18.17182
      9       2.00000          -0.592101          -16.11188
     10       2.00000          -0.584698          -15.91043
     11       2.00000          -0.547003          -14.88470
     12       2.00000          -0.534612          -14.54755
     13       2.00000          -0.517583          -14.08415
     14       2.00000          -0.511696          -13.92396
     15       2.00000          -0.475621          -12.94231
     16       2.00000          -0.385327          -10.48527
     17       0.00000          -0.181269           -4.93258
     18       0.00000          -0.036054           -0.98108
     19       0.00000          -0.030988           -0.84322
     20       0.00000          -0.018248           -0.49656
     21       0.00000           0.004756            0.12940
     22       0.00000           0.020187            0.54932
     23       0.00000           0.025088            0.68269
     24       0.00000           0.034779            0.94637
     25       0.00000           0.039364            1.07115
     26       0.00000           0.047435            1.29077
     27       0.00000           0.135264            3.68072
     28       0.00000           0.189108            5.14589
     29       0.00000           0.190983            5.19692
     30       0.00000           0.193693            5.27066
     31       0.00000           0.227833            6.19964
     32       0.00000           0.231356            6.29551
     33       0.00000           0.245044            6.66798
     34       0.00000           0.272432            7.41325
     35       0.00000           0.357078            9.71658
     36       0.00000           0.367256            9.99353
     37       0.00000           0.372238           10.12911
     38       0.00000           0.457682           12.45416
     39       0.00000           0.508181           13.82830
     40       0.00000           0.523716           14.25104

  Highest occupied state (VBM) at    -10.48527010 eV
  | Occupation number:      2.00000000

  Lowest unoccupied state (CBM) at    -4.93258392 eV
  | Occupation number:      0.00000000

  Overall HOMO-LUMO gap:      5.55268619 eV.
  Calculating total energy contributions from superposition of free atom densities.

  Total energy components:
  | Sum of eigenvalues            :         -96.03664584 Ha       -2613.29009592 eV
  | XC energy correction          :         -23.65610707 Ha        -643.71542521 eV
  | XC potential correction       :          30.38800026 Ha         826.89955918 eV
  | Free-atom electrostatic energy:         -68.02167370 Ha       -1850.96391733 eV
  | Hartree energy correction     :           0.00000000 Ha           0.00000000 eV
  | vdW energy correction         :           0.00000000 Ha           0.00000000 eV
  | Entropy correction            :           0.00000000 Ha           0.00000000 eV
  | ---------------------------
  | Total energy                  :        -157.32642634 Ha       -4281.06987928 eV
  | Total energy, T -> 0          :        -157.32642634 Ha       -4281.06987928 eV  <-- do not rely on this value for anything but (periodic) metals
  | Electronic free energy        :        -157.32642634 Ha       -4281.06987928 eV

  Derived energy quantities:
  | Kinetic energy                :         154.18629675 Ha        4195.62260557 eV
  | Electrostatic energy          :        -287.85661603 Ha       -7832.97705963 eV
  | Energy correction for multipole
  | error in Hartree potential    :           0.00000000 Ha           0.00000000 eV
  | Sum of eigenvalues per atom                           :        -217.77417466 eV
  | Total energy (T->0) per atom                          :        -356.75582327 eV  <-- do not rely on this value for anything but (periodic) metals
  | Electronic free energy per atom                       :        -356.75582327 eV
  Initialize hartree_potential_storage
  Max. number of atoms included in rho_multipole:           12

  End scf initialization - timings             :  max(cpu_time)    wall_clock(cpu1)
  | Time for scf. initialization               :        0.420 s           0.420 s
  | Boundary condition initialization          :        0.000 s           0.002 s
  | Integration                                :        0.236 s           0.236 s
  | Solution of K.-S. eqns.                    :        0.012 s           0.011 s
  | Grid partitioning                          :        0.064 s           0.063 s
  | Preloading free-atom quantities on grid    :        0.004 s           0.003 s
  | Free-atom superposition energy             :        0.024 s           0.022 s
  | Total energy evaluation                    :        0.004 s           0.001 s

  Partial memory accounting:
  | Current value for overall tracked memory usage on task 0  :           0.179 MB
  | Peak value for overall tracked memory usage on task 0     :           0.642 MB after allocating wave
  | Largest tracked array allocation on task 0 so far         :           0.154 MB  when allocating H_times_psi
  Note:  These values currently only include a subset of arrays which are explicitly tracked.
  The "true" memory usage will be greater.
------------------------------------------------------------

------------------------------------------------------------
          Begin self-consistency iteration #    1

  Date     :  20180215, Time     :  214249.110
------------------------------------------------------------
  Evaluating new KS density.
  Integration grid: deviation in total charge (<rho> - N_e) =   1.421085E-14
  Pulay mixing of updated and previous charge densities.

  Evaluating partitioned Hartree potential by multipole expansion.
  | Analytical far-field extrapolation by fixed multipoles:
  | Hartree multipole sum: apparent total charge =  -0.188548E-03
  Summing up the Hartree potential.
  Time summed over all CPUs for potential: real work        1.321 s, elapsed        1.336 s
  | RMS charge density error from multipole expansion :   0.132921E-02

  Integrating Hamiltonian matrix: batch-based integration.
  Time summed over all CPUs for integration: real work        1.295 s, elapsed        1.354 s

  Updating Kohn-Sham eigenvalues, eigenvectors, occupation numbers, and Fermi level.
  Solving generalized eigenproblem
  Updating Kohn-Sham eigenvalues and eigenfunctions.
  Solving real generalised eigenvalue problem by standard LAPACK (fast)

  Obtaining occupation numbers and chemical potential using ELSI.
  | Chemical potential (Fermi level):    -8.09129609eV
  Writing Kohn-Sham eigenvalues.

  State    Occupation    Eigenvalue [Ha]    Eigenvalue [eV]
      1       2.00000         -10.131750         -275.69895
      2       2.00000         -10.131750         -275.69895
      3       2.00000         -10.121652         -275.42418
      4       2.00000         -10.120996         -275.40633
      5       2.00000          -0.907588          -24.69673
      6       2.00000          -0.835650          -22.73921
      7       2.00000          -0.765379          -20.82702
      8       2.00000          -0.651558          -17.72980
      9       2.00000          -0.573336          -15.60127
     10       2.00000          -0.566499          -15.41522
     11       2.00000          -0.530492          -14.43541
     12       2.00000          -0.518236          -14.10191
     13       2.00000          -0.498756          -13.57183
     14       2.00000          -0.495218          -13.47556
     15       2.00000          -0.459425          -12.50159
     16       2.00000          -0.368102          -10.01657
     17       0.00000          -0.165092           -4.49239
     18       0.00000          -0.024204           -0.65862
     19       0.00000          -0.022028           -0.59942
     20       0.00000          -0.010191           -0.27730
     21       0.00000           0.014401            0.39187
     22       0.00000           0.035305            0.96071
     23       0.00000           0.035336            0.96154
     24       0.00000           0.045039            1.22556
     25       0.00000           0.050351            1.37011
     26       0.00000           0.058163            1.58270
     27       0.00000           0.147463            4.01267
     28       0.00000           0.199730            5.43492
     29       0.00000           0.202603            5.51310
     30       0.00000           0.203452            5.53622
     31       0.00000           0.241912            6.58277
     32       0.00000           0.243359            6.62215
     33       0.00000           0.256002            6.96616
     34       0.00000           0.284650            7.74573
     35       0.00000           0.367433            9.99836
     36       0.00000           0.379877           10.33699
     37       0.00000           0.383653           10.43974
     38       0.00000           0.468713           12.75433
     39       0.00000           0.520427           14.16154
     40       0.00000           0.536074           14.58732

  Highest occupied state (VBM) at    -10.01656829 eV
  | Occupation number:      2.00000000

  Lowest unoccupied state (CBM) at    -4.49239109 eV
  | Occupation number:      0.00000000

  Overall HOMO-LUMO gap:      5.52417721 eV.

  Total energy components:
  | Sum of eigenvalues            :         -95.35277587 Ha       -2594.68104747 eV
  | XC energy correction          :         -23.71669731 Ha        -645.36416968 eV
  | XC potential correction       :          30.46653332 Ha         829.03655267 eV
  | Free-atom electrostatic energy:         -68.02167370 Ha       -1850.96391733 eV
  | Hartree energy correction     :          -0.65250141 Ha         -17.75546673 eV
  | vdW energy correction         :           0.00000000 Ha           0.00000000 eV
  | Entropy correction            :           0.00000000 Ha           0.00000000 eV
  | ---------------------------
  | Total energy                  :        -157.27711497 Ha       -4279.72804854 eV
  | Total energy, T -> 0          :        -157.27711497 Ha       -4279.72804854 eV  <-- do not rely on this value for anything but (periodic) metals
  | Electronic free energy        :        -157.27711497 Ha       -4279.72804854 eV

  Derived energy quantities:
  | Kinetic energy                :         154.51497506 Ha        4204.56639749 eV
  | Electrostatic energy          :        -288.07539272 Ha       -7838.93027636 eV
  | Energy correction for multipole
  | error in Hartree potential    :           0.00228685 Ha           0.06222825 eV
  | Sum of eigenvalues per atom                           :        -216.22342062 eV
  | Total energy (T->0) per atom                          :        -356.64400405 eV  <-- do not rely on this value for anything but (periodic) metals
  | Electronic free energy per atom                       :        -356.64400405 eV

  Self-consistency convergence accuracy:
  | Change of charge density      :  0.4885E+00
  | Change of sum of eigenvalues  :  0.1861E+02 eV
  | Change of total energy        :  0.1342E+01 eV

  End self-consistency iteration #     1       :  max(cpu_time)    wall_clock(cpu1)
  | Time for this iteration                    :        0.528 s           0.525 s
  | Charge density update                      :        0.168 s           0.165 s
  | Density mixing                             :        0.004 s           0.001 s
  | Hartree multipole update                   :        0.012 s           0.012 s
  | Hartree multipole summation                :        0.172 s           0.170 s
  | Integration                                :        0.172 s           0.172 s
  | Solution of K.-S. eqns.                    :        0.004 s           0.002 s
  | Total energy evaluation                    :        0.000 s           0.000 s

  Partial memory accounting:
  | Current value for overall tracked memory usage on task 0  :           0.179 MB
  | Peak value for overall tracked memory usage on task 0     :           0.794 MB after allocating gradient_basis_wave
  | Largest tracked array allocation on task 0 so far         :           0.461 MB  when allocating gradient_basis_wave
  Note:  These values currently only include a subset of arrays which are explicitly tracked.
  The "true" memory usage will be greater.
------------------------------------------------------------

------------------------------------------------------------
          Begin self-consistency iteration #    2

  Date     :  20180215, Time     :  214249.635
------------------------------------------------------------
  Evaluating new KS density.
  Integration grid: deviation in total charge (<rho> - N_e) =   0.000000E+00
  Pulay mixing of updated and previous charge densities.

  Evaluating partitioned Hartree potential by multipole expansion.
  | Analytical far-field extrapolation by fixed multipoles:
  | Hartree multipole sum: apparent total charge =  -0.450692E-03
  Summing up the Hartree potential.
  Time summed over all CPUs for potential: real work        1.323 s, elapsed        1.356 s
  | RMS charge density error from multipole expansion :   0.130822E-01

  Integrating Hamiltonian matrix: batch-based integration.
  Time summed over all CPUs for integration: real work        1.276 s, elapsed        1.327 s

  Updating Kohn-Sham eigenvalues, eigenvectors, occupation numbers, and Fermi level.
  Solving generalized eigenproblem
  Updating Kohn-Sham eigenvalues and eigenfunctions.
  Solving real generalised eigenvalue problem by standard LAPACK (fast)

  Obtaining occupation numbers and chemical potential using ELSI.
  | Chemical potential (Fermi level):    -4.75395471eV
  Highest occupied state (VBM) at     -6.15273056 eV
  | Occupation number:      2.00000000

  Lowest unoccupied state (CBM) at    -0.92826934 eV
  | Occupation number:      0.00000000

  Overall HOMO-LUMO gap:      5.22446121 eV.

  Checking to see if s.c.f. parameters should be adjusted.
  The system likely has a gap. Increased the default Pulay mixing parameter (charge_mix_param). Value:   0.200000 .
  Kept the default occupation width. Value:   0.010000 eV.

  Total energy components:
  | Sum of eigenvalues            :         -89.63842337 Ha       -2439.18560440 eV
  | XC energy correction          :         -24.27536020 Ha        -660.56616040 eV
  | XC potential correction       :          31.19030201 Ha         848.73130061 eV
  | Free-atom electrostatic energy:         -68.02167370 Ha       -1850.96391733 eV
  | Hartree energy correction     :          -6.32892792 Ha        -172.21889105 eV
  | vdW energy correction         :           0.00000000 Ha           0.00000000 eV
  | Entropy correction            :           0.00000000 Ha           0.00000000 eV
  | ---------------------------
  | Total energy                  :        -157.07408319 Ha       -4274.20327259 eV
  | Total energy, T -> 0          :        -157.07408319 Ha       -4274.20327259 eV  <-- do not rely on this value for anything but (periodic) metals
  | Electronic free energy        :        -157.07408319 Ha       -4274.20327259 eV

  Derived energy quantities:
  | Kinetic energy                :         156.94038659 Ha        4270.56520311 eV
  | Electrostatic energy          :        -289.73910957 Ha       -7884.20231529 eV
  | Energy correction for multipole
  | error in Hartree potential    :           0.02170986 Ha           0.59075525 eV
  | Sum of eigenvalues per atom                           :        -203.26546703 eV
  | Total energy (T->0) per atom                          :        -356.18360605 eV  <-- do not rely on this value for anything but (periodic) metals
  | Electronic free energy per atom                       :        -356.18360605 eV

  Self-consistency convergence accuracy:
  | Change of charge density      :  0.4495E+00
  | Change of sum of eigenvalues  :  0.1555E+03 eV
  | Change of total energy        :  0.5525E+01 eV

  End self-consistency iteration #     2       :  max(cpu_time)    wall_clock(cpu1)
  | Time for this iteration                    :        0.520 s           0.521 s
  | Charge density update                      :        0.164 s           0.164 s
  | Density mixing                             :        0.004 s           0.003 s
  | Hartree multipole update                   :        0.012 s           0.010 s
  | Hartree multipole summation                :        0.172 s           0.172 s
  | Integration                                :        0.172 s           0.169 s
  | Solution of K.-S. eqns.                    :        0.004 s           0.002 s
  | Total energy evaluation                    :        0.004 s           0.001 s

  Partial memory accounting:
  | Current value for overall tracked memory usage on task 0  :           0.180 MB
  | Peak value for overall tracked memory usage on task 0     :           0.794 MB after allocating gradient_basis_wave
  | Largest tracked array allocation on task 0 so far         :           0.461 MB  when allocating gradient_basis_wave
  Note:  These values currently only include a subset of arrays which are explicitly tracked.
  The "true" memory usage will be greater.
------------------------------------------------------------

------------------------------------------------------------
          Begin self-consistency iteration #    3

  Date     :  20180215, Time     :  214250.158
------------------------------------------------------------
  Evaluating new KS density.
  Integration grid: deviation in total charge (<rho> - N_e) =   7.105427E-15
  Pulay mixing of updated and previous charge densities.

  Evaluating partitioned Hartree potential by multipole expansion.
  | Analytical far-field extrapolation by fixed multipoles:
  | Hartree multipole sum: apparent total charge =  -0.443924E-03
  Summing up the Hartree potential.
  Time summed over all CPUs for potential: real work        1.329 s, elapsed        1.373 s
  | RMS charge density error from multipole expansion :   0.162005E-01

  Integrating Hamiltonian matrix: batch-based integration.
  Time summed over all CPUs for integration: real work        1.281 s, elapsed        1.343 s

  Updating Kohn-Sham eigenvalues, eigenvectors, occupation numbers, and Fermi level.
  Solving generalized eigenproblem
  Updating Kohn-Sham eigenvalues and eigenfunctions.
  Solving real generalised eigenvalue problem by standard LAPACK (fast)

  Obtaining occupation numbers and chemical potential using ELSI.
  | Chemical potential (Fermi level):    -5.11972595eV
  Highest occupied state (VBM) at     -6.81850286 eV
  | Occupation number:      2.00000000

  Lowest unoccupied state (CBM) at    -1.54366317 eV
  | Occupation number:      0.00000000

  Overall HOMO-LUMO gap:      5.27483969 eV.

  Total energy components:
  | Sum of eigenvalues            :         -90.57885172 Ha       -2464.77596161 eV
  | XC energy correction          :         -24.23069617 Ha        -659.35079016 eV
  | XC potential correction       :          31.12885382 Ha         847.05921036 eV
  | Free-atom electrostatic energy:         -68.02167370 Ha       -1850.96391733 eV
  | Hartree energy correction     :          -5.36633819 Ha        -146.02549189 eV
  | vdW energy correction         :           0.00000000 Ha           0.00000000 eV
  | Entropy correction            :           0.00000000 Ha           0.00000000 eV
  | ---------------------------
  | Total energy                  :        -157.06870595 Ha       -4274.05695063 eV
  | Total energy, T -> 0          :        -157.06870595 Ha       -4274.05695063 eV  <-- do not rely on this value for anything but (periodic) metals
  | Electronic free energy        :        -157.06870595 Ha       -4274.05695063 eV

  Derived energy quantities:
  | Kinetic energy                :         156.28243782 Ha        4252.66150623 eV
  | Electrostatic energy          :        -289.12044761 Ha       -7867.36766669 eV
  | Energy correction for multipole
  | error in Hartree potential    :           0.02616590 Ha           0.71201032 eV
  | Sum of eigenvalues per atom                           :        -205.39799680 eV
  | Total energy (T->0) per atom                          :        -356.17141255 eV  <-- do not rely on this value for anything but (periodic) metals
  | Electronic free energy per atom                       :        -356.17141255 eV

  Self-consistency convergence accuracy:
  | Change of charge density      :  0.2094E+00
  | Change of sum of eigenvalues  : -0.2559E+02 eV
  | Change of total energy        :  0.1463E+00 eV

  End self-consistency iteration #     3       :  max(cpu_time)    wall_clock(cpu1)
  | Time for this iteration                    :        0.532 s           0.528 s
  | Charge density update                      :        0.164 s           0.161 s
  | Density mixing                             :        0.004 s           0.005 s
  | Hartree multipole update                   :        0.012 s           0.010 s
  | Hartree multipole summation                :        0.176 s           0.174 s
  | Integration                                :        0.176 s           0.176 s
  | Solution of K.-S. eqns.                    :        0.004 s           0.002 s
  | Total energy evaluation                    :        0.000 s           0.000 s

  Partial memory accounting:
  | Current value for overall tracked memory usage on task 0  :           0.180 MB
  | Peak value for overall tracked memory usage on task 0     :           0.794 MB after allocating gradient_basis_wave
  | Largest tracked array allocation on task 0 so far         :           0.461 MB  when allocating gradient_basis_wave
  Note:  These values currently only include a subset of arrays which are explicitly tracked.
  The "true" memory usage will be greater.
------------------------------------------------------------

------------------------------------------------------------
          Begin self-consistency iteration #    4

  Date     :  20180215, Time     :  214250.687
------------------------------------------------------------
  Evaluating new KS density.
  Integration grid: deviation in total charge (<rho> - N_e) =   7.105427E-15
  Pulay mixing of updated and previous charge densities.

  Evaluating partitioned Hartree potential by multipole expansion.
  | Analytical far-field extrapolation by fixed multipoles:
  | Hartree multipole sum: apparent total charge =  -0.521778E-03
  Summing up the Hartree potential.
  Time summed over all CPUs for potential: real work        1.317 s, elapsed        1.334 s
  | RMS charge density error from multipole expansion :   0.220206E-01

  Integrating Hamiltonian matrix: batch-based integration.
  Time summed over all CPUs for integration: real work        1.282 s, elapsed        1.333 s

  Updating Kohn-Sham eigenvalues, eigenvectors, occupation numbers, and Fermi level.
  Solving generalized eigenproblem
  Updating Kohn-Sham eigenvalues and eigenfunctions.
  Solving real generalised eigenvalue problem by standard LAPACK (fast)

  Obtaining occupation numbers and chemical potential using ELSI.
  | Chemical potential (Fermi level):    -4.38901213eV
  Highest occupied state (VBM) at     -6.16156194 eV
  | Occupation number:      2.00000000

  Lowest unoccupied state (CBM) at    -0.94687646 eV
  | Occupation number:      0.00000000

  Overall HOMO-LUMO gap:      5.21468548 eV.

  Total energy components:
  | Sum of eigenvalues            :         -89.65464908 Ha       -2439.62712821 eV
  | XC energy correction          :         -24.37150163 Ha        -663.18230166 eV
  | XC potential correction       :          31.30889187 Ha         851.95829484 eV
  | Free-atom electrostatic energy:         -68.02167370 Ha       -1850.96391733 eV
  | Hartree energy correction     :          -6.31904764 Ha        -171.95003513 eV
  | vdW energy correction         :           0.00000000 Ha           0.00000000 eV
  | Entropy correction            :           0.00000000 Ha           0.00000000 eV
  | ---------------------------
  | Total energy                  :        -157.05798018 Ha       -4273.76508749 eV
  | Total energy, T -> 0          :        -157.05798018 Ha       -4273.76508749 eV  <-- do not rely on this value for anything but (periodic) metals
  | Electronic free energy        :        -157.05798018 Ha       -4273.76508749 eV

  Derived energy quantities:
  | Kinetic energy                :         156.35088351 Ha        4254.52400801 eV
  | Electrostatic energy          :        -289.03736206 Ha       -7865.10679384 eV
  | Energy correction for multipole
  | error in Hartree potential    :           0.03398944 Ha           0.92489970 eV
  | Sum of eigenvalues per atom                           :        -203.30226068 eV
  | Total energy (T->0) per atom                          :        -356.14709062 eV  <-- do not rely on this value for anything but (periodic) metals
  | Electronic free energy per atom                       :        -356.14709062 eV

  Self-consistency convergence accuracy:
  | Change of charge density      :  0.1268E+00
  | Change of sum of eigenvalues  :  0.2515E+02 eV
  | Change of total energy        :  0.2919E+00 eV

  End self-consistency iteration #     4       :  max(cpu_time)    wall_clock(cpu1)
  | Time for this iteration                    :        0.528 s           0.529 s
  | Charge density update                      :        0.172 s           0.171 s
  | Density mixing                             :        0.008 s           0.005 s
  | Hartree multipole update                   :        0.012 s           0.010 s
  | Hartree multipole summation                :        0.172 s           0.170 s
  | Integration                                :        0.172 s           0.169 s
  | Solution of K.-S. eqns.                    :        0.004 s           0.002 s
  | Total energy evaluation                    :        0.000 s           0.000 s

  Partial memory accounting:
  | Current value for overall tracked memory usage on task 0  :           0.180 MB
  | Peak value for overall tracked memory usage on task 0     :           0.794 MB after allocating gradient_basis_wave
  | Largest tracked array allocation on task 0 so far         :           0.461 MB  when allocating gradient_basis_wave
  Note:  These values currently only include a subset of arrays which are explicitly tracked.
  The "true" memory usage will be greater.
------------------------------------------------------------

------------------------------------------------------------
          Begin self-consistency iteration #    5

  Date     :  20180215, Time     :  214251.217
------------------------------------------------------------
  Evaluating new KS density.
  Integration grid: deviation in total charge (<rho> - N_e) =   0.000000E+00
  Pulay mixing of updated and previous charge densities.

  Evaluating partitioned Hartree potential by multipole expansion.
  | Analytical far-field extrapolation by fixed multipoles:
  | Hartree multipole sum: apparent total charge =  -0.547050E-03
  Summing up the Hartree potential.
  Time summed over all CPUs for potential: real work        1.321 s, elapsed        1.336 s
  | RMS charge density error from multipole expansion :   0.225304E-01

  Integrating Hamiltonian matrix: batch-based integration.
  Time summed over all CPUs for integration: real work        1.282 s, elapsed        1.329 s

  Updating Kohn-Sham eigenvalues, eigenvectors, occupation numbers, and Fermi level.
  Solving generalized eigenproblem
  Updating Kohn-Sham eigenvalues and eigenfunctions.
  Solving real generalised eigenvalue problem by standard LAPACK (fast)

  Obtaining occupation numbers and chemical potential using ELSI.
  | Chemical potential (Fermi level):    -4.21479980eV
  Highest occupied state (VBM) at     -5.92330059 eV
  | Occupation number:      2.00000000

  Lowest unoccupied state (CBM) at    -0.71745034 eV
  | Occupation number:      0.00000000

  Overall HOMO-LUMO gap:      5.20585025 eV.

  Total energy components:
  | Sum of eigenvalues            :         -89.42460799 Ha       -2433.36739177 eV
  | XC energy correction          :         -24.39088962 Ha        -663.70987581 eV
  | XC potential correction       :          31.33412570 Ha         852.64494250 eV
  | Free-atom electrostatic energy:         -68.02167370 Ha       -1850.96391733 eV
  | Hartree energy correction     :          -6.55391535 Ha        -178.34111058 eV
  | vdW energy correction         :           0.00000000 Ha           0.00000000 eV
  | Entropy correction            :           0.00000000 Ha           0.00000000 eV
  | ---------------------------
  | Total energy                  :        -157.05696096 Ha       -4273.73735300 eV
  | Total energy, T -> 0          :        -157.05696096 Ha       -4273.73735300 eV  <-- do not rely on this value for anything but (periodic) metals
  | Electronic free energy        :        -157.05696096 Ha       -4273.73735300 eV

  Derived energy quantities:
  | Kinetic energy                :         156.33088508 Ha        4253.97982321 eV
  | Electrostatic energy          :        -288.99695642 Ha       -7864.00730040 eV
  | Energy correction for multipole
  | error in Hartree potential    :           0.03342884 Ha           0.90964500 eV
  | Sum of eigenvalues per atom                           :        -202.78061598 eV
  | Total energy (T->0) per atom                          :        -356.14477942 eV  <-- do not rely on this value for anything but (periodic) metals
  | Electronic free energy per atom                       :        -356.14477942 eV

  Self-consistency convergence accuracy:
  | Change of charge density      :  0.3046E-01
  | Change of sum of eigenvalues  :  0.6260E+01 eV
  | Change of total energy        :  0.2773E-01 eV

  End self-consistency iteration #     5       :  max(cpu_time)    wall_clock(cpu1)
  | Time for this iteration                    :        0.524 s           0.524 s
  | Charge density update                      :        0.168 s           0.165 s
  | Density mixing                             :        0.008 s           0.007 s
  | Hartree multipole update                   :        0.012 s           0.010 s
  | Hartree multipole summation                :        0.172 s           0.170 s
  | Integration                                :        0.172 s           0.169 s
  | Solution of K.-S. eqns.                    :        0.004 s           0.002 s
  | Total energy evaluation                    :        0.004 s           0.001 s

  Partial memory accounting:
  | Current value for overall tracked memory usage on task 0  :           0.180 MB
  | Peak value for overall tracked memory usage on task 0     :           0.794 MB after allocating gradient_basis_wave
  | Largest tracked array allocation on task 0 so far         :           0.461 MB  when allocating gradient_basis_wave
  Note:  These values currently only include a subset of arrays which are explicitly tracked.
  The "true" memory usage will be greater.
------------------------------------------------------------

------------------------------------------------------------
          Begin self-consistency iteration #    6

  Date     :  20180215, Time     :  214251.742
------------------------------------------------------------
  Evaluating new KS density.
  Integration grid: deviation in total charge (<rho> - N_e) =   7.105427E-15
  Pulay mixing of updated and previous charge densities.

  Evaluating partitioned Hartree potential by multipole expansion.
  | Analytical far-field extrapolation by fixed multipoles:
  | Hartree multipole sum: apparent total charge =  -0.567214E-03
  Summing up the Hartree potential.
  Time summed over all CPUs for potential: real work        1.318 s, elapsed        1.343 s
  | RMS charge density error from multipole expansion :   0.228531E-01

  Integrating Hamiltonian matrix: batch-based integration.
  Time summed over all CPUs for integration: real work        1.288 s, elapsed        1.337 s

  Updating Kohn-Sham eigenvalues, eigenvectors, occupation numbers, and Fermi level.
  Solving generalized eigenproblem
  Updating Kohn-Sham eigenvalues and eigenfunctions.
  Solving real generalised eigenvalue problem by standard LAPACK (fast)

  Obtaining occupation numbers and chemical potential using ELSI.
  | Chemical potential (Fermi level):    -4.12217900eV
  Highest occupied state (VBM) at     -5.82514129 eV
  | Occupation number:      2.00000000

  Lowest unoccupied state (CBM) at    -0.62349374 eV
  | Occupation number:      0.00000000

  Overall HOMO-LUMO gap:      5.20164756 eV.

  Total energy components:
  | Sum of eigenvalues            :         -89.31426382 Ha       -2430.36477402 eV
  | XC energy correction          :         -24.40252033 Ha        -664.02636345 eV
  | XC potential correction       :          31.34922457 Ha         853.05580367 eV
  | Free-atom electrostatic energy:         -68.02167370 Ha       -1850.96391733 eV
  | Hartree energy correction     :          -6.66746793 Ha        -181.43103358 eV
  | vdW energy correction         :           0.00000000 Ha           0.00000000 eV
  | Entropy correction            :           0.00000000 Ha           0.00000000 eV
  | ---------------------------
  | Total energy                  :        -157.05670120 Ha       -4273.73028471 eV
  | Total energy, T -> 0          :        -157.05670120 Ha       -4273.73028471 eV  <-- do not rely on this value for anything but (periodic) metals
  | Electronic free energy        :        -157.05670120 Ha       -4273.73028471 eV

  Derived energy quantities:
  | Kinetic energy                :         156.28660935 Ha        4252.77501921 eV
  | Electrostatic energy          :        -288.94079022 Ha       -7862.47894048 eV
  | Energy correction for multipole
  | error in Hartree potential    :           0.03264262 Ha           0.88825087 eV
  | Sum of eigenvalues per atom                           :        -202.53039783 eV
  | Total energy (T->0) per atom                          :        -356.14419039 eV  <-- do not rely on this value for anything but (periodic) metals
  | Electronic free energy per atom                       :        -356.14419039 eV

  Self-consistency convergence accuracy:
  | Change of charge density      :  0.1614E-01
  | Change of sum of eigenvalues  :  0.3003E+01 eV
  | Change of total energy        :  0.7068E-02 eV

  End self-consistency iteration #     6       :  max(cpu_time)    wall_clock(cpu1)
  | Time for this iteration                    :        0.536 s           0.535 s
  | Charge density update                      :        0.172 s           0.169 s
  | Density mixing                             :        0.012 s           0.010 s
  | Hartree multipole update                   :        0.012 s           0.012 s
  | Hartree multipole summation                :        0.172 s           0.170 s
  | Integration                                :        0.172 s           0.170 s
  | Solution of K.-S. eqns.                    :        0.004 s           0.002 s
  | Total energy evaluation                    :        0.000 s           0.001 s

  Partial memory accounting:
  | Current value for overall tracked memory usage on task 0  :           0.180 MB
  | Peak value for overall tracked memory usage on task 0     :           0.794 MB after allocating gradient_basis_wave
  | Largest tracked array allocation on task 0 so far         :           0.461 MB  when allocating gradient_basis_wave
  Note:  These values currently only include a subset of arrays which are explicitly tracked.
  The "true" memory usage will be greater.
------------------------------------------------------------

------------------------------------------------------------
          Begin self-consistency iteration #    7

  Date     :  20180215, Time     :  214252.278
------------------------------------------------------------
  Evaluating new KS density.
  Integration grid: deviation in total charge (<rho> - N_e) =   1.421085E-14
  Pulay mixing of updated and previous charge densities.

  Evaluating partitioned Hartree potential by multipole expansion.
  | Analytical far-field extrapolation by fixed multipoles:
  | Hartree multipole sum: apparent total charge =  -0.571494E-03
  Summing up the Hartree potential.
  Time summed over all CPUs for potential: real work        1.348 s, elapsed        1.408 s
  | RMS charge density error from multipole expansion :   0.228342E-01

  Integrating Hamiltonian matrix: batch-based integration.
  Time summed over all CPUs for integration: real work        1.297 s, elapsed        1.374 s

  Updating Kohn-Sham eigenvalues, eigenvectors, occupation numbers, and Fermi level.
  Solving generalized eigenproblem
  Updating Kohn-Sham eigenvalues and eigenfunctions.
  Solving real generalised eigenvalue problem by standard LAPACK (fast)

  Obtaining occupation numbers and chemical potential using ELSI.
  | Chemical potential (Fermi level):    -4.09956097eV
  Highest occupied state (VBM) at     -5.79269425 eV
  | Occupation number:      2.00000000

  Lowest unoccupied state (CBM) at    -0.59248390 eV
  | Occupation number:      0.00000000

  Overall HOMO-LUMO gap:      5.20021034 eV.

  Total energy components:
  | Sum of eigenvalues            :         -89.28192177 Ha       -2429.48470215 eV
  | XC energy correction          :         -24.40455503 Ha        -664.08173060 eV
  | XC potential correction       :          31.35193523 Ha         853.12956439 eV
  | Free-atom electrostatic energy:         -68.02167370 Ha       -1850.96391733 eV
  | Hartree energy correction     :          -6.70043816 Ha        -182.32819921 eV
  | vdW energy correction         :           0.00000000 Ha           0.00000000 eV
  | Entropy correction            :           0.00000000 Ha           0.00000000 eV
  | ---------------------------
  | Total energy                  :        -157.05665344 Ha       -4273.72898491 eV
  | Total energy, T -> 0          :        -157.05665344 Ha       -4273.72898491 eV  <-- do not rely on this value for anything but (periodic) metals
  | Electronic free energy        :        -157.05665344 Ha       -4273.72898491 eV

  Derived energy quantities:
  | Kinetic energy                :         156.28520257 Ha        4252.73673879 eV
  | Electrostatic energy          :        -288.93730097 Ha       -7862.38399309 eV
  | Energy correction for multipole
  | error in Hartree potential    :           0.03233879 Ha           0.87998313 eV
  | Sum of eigenvalues per atom                           :        -202.45705851 eV
  | Total energy (T->0) per atom                          :        -356.14408208 eV  <-- do not rely on this value for anything but (periodic) metals
  | Electronic free energy per atom                       :        -356.14408208 eV

  Self-consistency convergence accuracy:
  | Change of charge density      :  0.6577E-02
  | Change of sum of eigenvalues  :  0.8801E+00 eV
  | Change of total energy        :  0.1300E-02 eV

  End self-consistency iteration #     7       :  max(cpu_time)    wall_clock(cpu1)
  | Time for this iteration                    :        0.544 s           0.543 s
  | Charge density update                      :        0.164 s           0.162 s
  | Density mixing                             :        0.012 s           0.013 s
  | Hartree multipole update                   :        0.012 s           0.011 s
  | Hartree multipole summation                :        0.180 s           0.179 s
  | Integration                                :        0.176 s           0.175 s
  | Solution of K.-S. eqns.                    :        0.004 s           0.002 s
  | Total energy evaluation                    :        0.000 s           0.001 s

  Partial memory accounting:
  | Current value for overall tracked memory usage on task 0  :           0.180 MB
  | Peak value for overall tracked memory usage on task 0     :           0.794 MB after allocating gradient_basis_wave
  | Largest tracked array allocation on task 0 so far         :           0.461 MB  when allocating gradient_basis_wave
  Note:  These values currently only include a subset of arrays which are explicitly tracked.
  The "true" memory usage will be greater.
------------------------------------------------------------

------------------------------------------------------------
          Begin self-consistency iteration #    8

  Date     :  20180215, Time     :  214252.822
------------------------------------------------------------
  Evaluating new KS density.
  Integration grid: deviation in total charge (<rho> - N_e) =   0.000000E+00
  Pulay mixing of updated and previous charge densities.

  Evaluating partitioned Hartree potential by multipole expansion.
  | Analytical far-field extrapolation by fixed multipoles:
  | Hartree multipole sum: apparent total charge =  -0.580122E-03
  Summing up the Hartree potential.
  Time summed over all CPUs for potential: real work        1.332 s, elapsed        1.370 s
  | RMS charge density error from multipole expansion :   0.228766E-01

  Integrating Hamiltonian matrix: batch-based integration.
  Time summed over all CPUs for integration: real work        1.284 s, elapsed        1.332 s

  Updating Kohn-Sham eigenvalues, eigenvectors, occupation numbers, and Fermi level.
  Solving generalized eigenproblem
  Updating Kohn-Sham eigenvalues and eigenfunctions.
  Solving real generalised eigenvalue problem by standard LAPACK (fast)

  Obtaining occupation numbers and chemical potential using ELSI.
  | Chemical potential (Fermi level):    -4.05119897eV
  Highest occupied state (VBM) at     -5.73154526 eV
  | Occupation number:      2.00000000

  Lowest unoccupied state (CBM) at    -0.53579786 eV
  | Occupation number:      0.00000000

  Overall HOMO-LUMO gap:      5.19574740 eV.

  Total energy components:
  | Sum of eigenvalues            :         -89.21705285 Ha       -2427.71952909 eV
  | XC energy correction          :         -24.41085744 Ha        -664.25322775 eV
  | XC potential correction       :          31.36017937 Ha         853.35389891 eV
  | Free-atom electrostatic energy:         -68.02167370 Ha       -1850.96391733 eV
  | Hartree energy correction     :          -6.76721017 Ha        -184.14515791 eV
  | vdW energy correction         :           0.00000000 Ha           0.00000000 eV
  | Entropy correction            :           0.00000000 Ha           0.00000000 eV
  | ---------------------------
  | Total energy                  :        -157.05661478 Ha       -4273.72793318 eV
  | Total energy, T -> 0          :        -157.05661478 Ha       -4273.72793318 eV  <-- do not rely on this value for anything but (periodic) metals
  | Electronic free energy        :        -157.05661478 Ha       -4273.72793318 eV

  Derived energy quantities:
  | Kinetic energy                :         156.28829930 Ha        4252.82100501 eV
  | Electrostatic energy          :        -288.93405664 Ha       -7862.29571044 eV
  | Energy correction for multipole
  | error in Hartree potential    :           0.03194686 Ha           0.86931841 eV
  | Sum of eigenvalues per atom                           :        -202.30996076 eV
  | Total energy (T->0) per atom                          :        -356.14399443 eV  <-- do not rely on this value for anything but (periodic) metals
  | Electronic free energy per atom                       :        -356.14399443 eV

  Self-consistency convergence accuracy:
  | Change of charge density      :  0.4749E-02
  | Change of sum of eigenvalues  :  0.1765E+01 eV
  | Change of total energy        :  0.1052E-02 eV

  End self-consistency iteration #     8       :  max(cpu_time)    wall_clock(cpu1)
  | Time for this iteration                    :        0.540 s           0.540 s
  | Charge density update                      :        0.172 s           0.171 s
  | Density mixing                             :        0.012 s           0.012 s
  | Hartree multipole update                   :        0.012 s           0.010 s
  | Hartree multipole summation                :        0.176 s           0.175 s
  | Integration                                :        0.168 s           0.169 s
  | Solution of K.-S. eqns.                    :        0.004 s           0.002 s
  | Total energy evaluation                    :        0.000 s           0.001 s

  Partial memory accounting:
  | Current value for overall tracked memory usage on task 0  :           0.180 MB
  | Peak value for overall tracked memory usage on task 0     :           0.794 MB after allocating gradient_basis_wave
  | Largest tracked array allocation on task 0 so far         :           0.461 MB  when allocating gradient_basis_wave
  Note:  These values currently only include a subset of arrays which are explicitly tracked.
  The "true" memory usage will be greater.
------------------------------------------------------------

------------------------------------------------------------
          Begin self-consistency iteration #    9

  Date     :  20180215, Time     :  214253.363
------------------------------------------------------------
  Evaluating new KS density.
  Integration grid: deviation in total charge (<rho> - N_e) =   7.105427E-15
  Pulay mixing of updated and previous charge densities.

  Evaluating partitioned Hartree potential by multipole expansion.
  | Analytical far-field extrapolation by fixed multipoles:
  | Hartree multipole sum: apparent total charge =  -0.581555E-03
  Summing up the Hartree potential.
  Time summed over all CPUs for potential: real work        1.344 s, elapsed        1.463 s
  | RMS charge density error from multipole expansion :   0.228856E-01

  Integrating Hamiltonian matrix: batch-based integration.
  Time summed over all CPUs for integration: real work        1.288 s, elapsed        1.332 s

  Updating Kohn-Sham eigenvalues, eigenvectors, occupation numbers, and Fermi level.
  Solving generalized eigenproblem
  Updating Kohn-Sham eigenvalues and eigenfunctions.
  Solving real generalised eigenvalue problem by standard LAPACK (fast)

  Obtaining occupation numbers and chemical potential using ELSI.
  | Chemical potential (Fermi level):    -4.04249235eV
  Highest occupied state (VBM) at     -5.72117073 eV
  | Occupation number:      2.00000000

  Lowest unoccupied state (CBM) at    -0.52596408 eV
  | Occupation number:      0.00000000

  Overall HOMO-LUMO gap:      5.19520666 eV.

  Total energy components:
  | Sum of eigenvalues            :         -89.20509926 Ha       -2427.39425536 eV
  | XC energy correction          :         -24.41220276 Ha        -664.28983574 eV
  | XC potential correction       :          31.36192926 Ha         853.40151580 eV
  | Free-atom electrostatic energy:         -68.02167370 Ha       -1850.96391733 eV
  | Hartree energy correction     :          -6.77956846 Ha        -184.48144411 eV
  | vdW energy correction         :           0.00000000 Ha           0.00000000 eV
  | Entropy correction            :           0.00000000 Ha           0.00000000 eV
  | ---------------------------
  | Total energy                  :        -157.05661492 Ha       -4273.72793673 eV
  | Total energy, T -> 0          :        -157.05661492 Ha       -4273.72793673 eV  <-- do not rely on this value for anything but (periodic) metals
  | Electronic free energy        :        -157.05661492 Ha       -4273.72793673 eV

  Derived energy quantities:
  | Kinetic energy                :         156.29113761 Ha        4252.89823956 eV
  | Electrostatic energy          :        -288.93554977 Ha       -7862.33634056 eV
  | Energy correction for multipole
  | error in Hartree potential    :           0.03190582 Ha           0.86820154 eV
  | Sum of eigenvalues per atom                           :        -202.28285461 eV
  | Total energy (T->0) per atom                          :        -356.14399473 eV  <-- do not rely on this value for anything but (periodic) metals
  | Electronic free energy per atom                       :        -356.14399473 eV

  Self-consistency convergence accuracy:
  | Change of charge density      :  0.7101E-03
  | Change of sum of eigenvalues  :  0.3253E+00 eV
  | Change of total energy        : -0.3550E-05 eV

  End self-consistency iteration #     9       :  max(cpu_time)    wall_clock(cpu1)
  | Time for this iteration                    :        0.544 s           0.545 s
  | Charge density update                      :        0.164 s           0.163 s
  | Density mixing                             :        0.016 s           0.013 s
  | Hartree multipole update                   :        0.012 s           0.010 s
  | Hartree multipole summation                :        0.188 s           0.186 s
  | Integration                                :        0.172 s           0.169 s
  | Solution of K.-S. eqns.                    :        0.004 s           0.002 s
  | Total energy evaluation                    :        0.000 s           0.001 s

  Partial memory accounting:
  | Current value for overall tracked memory usage on task 0  :           0.180 MB
  | Peak value for overall tracked memory usage on task 0     :           0.794 MB after allocating gradient_basis_wave
  | Largest tracked array allocation on task 0 so far         :           0.461 MB  when allocating gradient_basis_wave
  Note:  These values currently only include a subset of arrays which are explicitly tracked.
  The "true" memory usage will be greater.
------------------------------------------------------------

------------------------------------------------------------
          Begin self-consistency iteration #   10

  Date     :  20180215, Time     :  214253.909
------------------------------------------------------------
  Evaluating new KS density.
  Integration grid: deviation in total charge (<rho> - N_e) =   7.105427E-15
  Pulay mixing of updated and previous charge densities.

  Evaluating partitioned Hartree potential by multipole expansion.
  | Analytical far-field extrapolation by fixed multipoles:
  | Hartree multipole sum: apparent total charge =  -0.581449E-03
  Summing up the Hartree potential.
  Time summed over all CPUs for potential: real work        1.329 s, elapsed        1.374 s
  | RMS charge density error from multipole expansion :   0.228854E-01

  Integrating Hamiltonian matrix: batch-based integration.
  Time summed over all CPUs for integration: real work        1.308 s, elapsed        1.336 s

[...]
  |   Hirshfeld dipole moment :      0.08797685
  |   Hirshfeld second moments:      0.10440175      -0.00516336       0.00476939
  |                                 -0.00516336       0.10613376       0.00606038
  |                                  0.00476939       0.00606038       0.09054181
  ----------------------------------------------------------------------
  | Atom     8: H
  |   Hirshfeld charge        :      0.03777873
  |   Free atom volume        :      9.95071624
  |   Hirshfeld volume        :      6.45976926
  |   Hirshfeld dipole vector :     -0.03789820       0.08017850       0.00158731
  |   Hirshfeld dipole moment :      0.08869828
  |   Hirshfeld second moments:      0.09785150       0.00515398       0.00028453
  |                                  0.00515398       0.08854401      -0.00064299
  |                                  0.00028453      -0.00064299       0.09937988
  ----------------------------------------------------------------------
  | Atom     9: H
  |   Hirshfeld charge        :      0.03777874
  |   Free atom volume        :      9.95071624
  |   Hirshfeld volume        :      6.45976884
  |   Hirshfeld dipole vector :      0.03789820      -0.08017850       0.00158738
  |   Hirshfeld dipole moment :      0.08869828
  |   Hirshfeld second moments:      0.09785152       0.00515399      -0.00028453
  |                                  0.00515399       0.08854401       0.00064300
  |                                 -0.00028453       0.00064300       0.09937989
  ----------------------------------------------------------------------
  | Atom    10: H
  |   Hirshfeld charge        :      0.04215147
  |   Free atom volume        :      9.95071624
  |   Hirshfeld volume        :      6.27677688
  |   Hirshfeld dipole vector :     -0.02792710       0.07199752      -0.04307779
  |   Hirshfeld dipole moment :      0.08842659
  |   Hirshfeld second moments:      0.10076177       0.00225965      -0.00449764
  |                                  0.00225965       0.09153856       0.00735076
  |                                 -0.00449764       0.00735076       0.10354548
  ----------------------------------------------------------------------
  | Atom    11: H
  |   Hirshfeld charge        :      0.04215531
  |   Free atom volume        :      9.95071624
  |   Hirshfeld volume        :      6.17742669
  |   Hirshfeld dipole vector :      0.02382693       0.02857953       0.07972084
  |   Hirshfeld dipole moment :      0.08797684
  |   Hirshfeld second moments:      0.10440173      -0.00516336      -0.00476942
  |                                 -0.00516336       0.10613378      -0.00606036
  |                                 -0.00476942      -0.00606036       0.09054182
  ----------------------------------------------------------------------
  | Atom    12: H
  |   Hirshfeld charge        :      0.04157118
  |   Free atom volume        :      9.95071624
  |   Hirshfeld volume        :      6.09311017
  |   Hirshfeld dipole vector :      0.07603970      -0.02500066      -0.03899833
  |   Hirshfeld dipole moment :      0.08903897
  |   Hirshfeld second moments:      0.09153064       0.00279089       0.00830765
  |                                  0.00279089       0.10953274      -0.00317827
  |                                  0.00830765      -0.00317827       0.10576752
  ----------------------------------------------------------------------


  Total energy components:
  | Sum of eigenvalues            :         -89.20601152 Ha       -2427.41907910 eV
  | XC energy correction          :         -24.41217137 Ha        -664.28898175 eV
  | XC potential correction       :          31.36188572 Ha         853.40033099 eV
  | Free-atom electrostatic energy:         -68.02167370 Ha       -1850.96391733 eV
  | Hartree energy correction     :          -6.77864437 Ha        -184.45629822 eV
  | vdW energy correction         :          -0.00208373 Ha          -0.05670115 eV
  | Entropy correction            :           0.00000000 Ha           0.00000000 eV
  | ---------------------------
  | Total energy                  :        -157.05869896 Ha       -4273.78464656 eV
  | Total energy, T -> 0          :        -157.05869896 Ha       -4273.78464656 eV  <-- do not rely on this value for anything but (periodic) metals
  | Electronic free energy        :        -157.05869896 Ha       -4273.78464656 eV

  Derived energy quantities:
  | Kinetic energy                :         156.29121242 Ha        4252.90027521 eV
  | Electrostatic energy          :        -288.93565628 Ha       -7862.33923887 eV
  | Energy correction for multipole
  | error in Hartree potential    :           0.03191263 Ha           0.86838686 eV
  | Sum of eigenvalues per atom                           :        -202.28492326 eV
  | Total energy (T->0) per atom                          :        -356.14872055 eV  <-- do not rely on this value for anything but (periodic) metals
  | Electronic free energy per atom                       :        -356.14872055 eV

  atomic forces [eV/Ang]:
  -----------------------
  atom #    1
   Hellmann-Feynman              :  0.190892E+00  0.135874E+00 -0.298112E-01
   Ionic forces                  :  0.000000E+00  0.000000E+00  0.000000E+00
   Multipole                     : -0.453083E+00 -0.476266E+00 -0.137566E-01
   Pulay + GGA                   :  0.263274E+00  0.335629E+00  0.474104E-01
   Van der Waals                 : -0.161191E-02  0.331601E-02 -0.167485E-03
   ----------------------------------------------------------------
   Total forces(   1)            : -0.528985E-03 -0.144726E-02  0.367512E-02
  atom #    2
   Hellmann-Feynman              :  0.221133E+01  0.347017E+00 -0.108474E-01
   Ionic forces                  :  0.000000E+00  0.000000E+00  0.000000E+00
   Multipole                     : -0.178131E+00 -0.526736E-01 -0.807253E-01
   Pulay + GGA                   : -0.203082E+01 -0.291479E+00  0.671397E-01
   Van der Waals                 : -0.298851E-02 -0.326668E-02  0.106000E-03
   ----------------------------------------------------------------
   Total forces(   2)            : -0.609310E-03 -0.402242E-03 -0.243270E-01
  atom #    3
   Hellmann-Feynman              : -0.221133E+01 -0.347017E+00 -0.108476E-01
   Ionic forces                  :  0.000000E+00  0.000000E+00  0.000000E+00
   Multipole                     :  0.178132E+00  0.526737E-01 -0.807253E-01
   Pulay + GGA                   :  0.203082E+01  0.291479E+00  0.671399E-01
   Van der Waals                 :  0.298855E-02  0.326670E-02  0.105996E-03
   ----------------------------------------------------------------
   Total forces(   3)            :  0.609322E-03  0.402228E-03 -0.243270E-01
  atom #    4
   Hellmann-Feynman              : -0.190893E+00 -0.135874E+00 -0.298111E-01
   Ionic forces                  :  0.000000E+00  0.000000E+00  0.000000E+00
   Multipole                     :  0.453083E+00  0.476266E+00 -0.137568E-01
   Pulay + GGA                   : -0.263273E+00 -0.335628E+00  0.474105E-01
   Van der Waals                 :  0.161191E-02 -0.331601E-02 -0.167482E-03
   ----------------------------------------------------------------
   Total forces(   4)            :  0.528993E-03  0.144726E-02  0.367513E-02
  atom #    5
   Hellmann-Feynman              :  0.732842E-01 -0.125199E-01  0.635053E-01
   Ionic forces                  :  0.000000E+00  0.000000E+00  0.000000E+00
   Multipole                     : -0.214574E-01 -0.115812E+00 -0.588756E-01
   Pulay + GGA                   : -0.362952E-01  0.987373E-01  0.445416E-01
   Van der Waals                 : -0.775037E-02 -0.289289E-02 -0.220217E-02
   ----------------------------------------------------------------
   Total forces(   5)            :  0.778129E-02 -0.324875E-01  0.469691E-01
  atom #    6
   Hellmann-Feynman              :  0.339981E-01  0.496177E-01 -0.145906E-01
   Ionic forces                  :  0.000000E+00  0.000000E+00  0.000000E+00
   Multipole                     : -0.122393E+00 -0.309480E-01 -0.496072E-01
   Pulay + GGA                   :  0.907999E-01 -0.338823E-01  0.419324E-01
   Van der Waals                 :  0.191233E-02 -0.247144E-02 -0.604876E-03
   ----------------------------------------------------------------
   Total forces(   6)            :  0.431712E-02 -0.176840E-01 -0.228702E-01
  atom #    7
   Hellmann-Feynman              : -0.149414E-01  0.637766E-01  0.402147E-01
   Ionic forces                  :  0.000000E+00  0.000000E+00  0.000000E+00
   Multipole                     : -0.497095E-01 -0.617377E-01  0.737460E-01
   Pulay + GGA                   :  0.470683E-01  0.425502E-01 -0.918481E-01
   Van der Waals                 :  0.159201E-02  0.193767E-03  0.188969E-03
   ----------------------------------------------------------------
   Total forces(   7)            : -0.159905E-01  0.447830E-01  0.223016E-01
  atom #    8
   Hellmann-Feynman              : -0.353060E-01 -0.555049E-01 -0.250086E-01
   Ionic forces                  :  0.000000E+00  0.000000E+00  0.000000E+00
   Multipole                     : -0.181353E-02  0.158109E+00 -0.402261E-02
   Pulay + GGA                   :  0.397013E-01 -0.101399E+00 -0.642834E-03
   Van der Waals                 : -0.379687E-02 -0.203772E-02  0.267956E-02
   ----------------------------------------------------------------
   Total forces(   8)            : -0.121513E-02 -0.831967E-03 -0.269945E-01
  atom #    9
   Hellmann-Feynman              :  0.353060E-01  0.555049E-01 -0.250085E-01
   Ionic forces                  :  0.000000E+00  0.000000E+00  0.000000E+00
   Multipole                     :  0.181360E-02 -0.158109E+00 -0.402252E-02
   Pulay + GGA                   : -0.397013E-01  0.101399E+00 -0.642919E-03
   Van der Waals                 :  0.379685E-02  0.203769E-02  0.267957E-02
   ----------------------------------------------------------------
   Total forces(   9)            :  0.121514E-02  0.831950E-03 -0.269944E-01
  atom #   10
   Hellmann-Feynman              : -0.732843E-01  0.125198E-01  0.635055E-01
   Ionic forces                  :  0.000000E+00  0.000000E+00  0.000000E+00
   Multipole                     :  0.214573E-01  0.115812E+00 -0.588755E-01
   Pulay + GGA                   :  0.362953E-01 -0.987372E-01  0.445414E-01
   Van der Waals                 :  0.775037E-02  0.289289E-02 -0.220217E-02
   ----------------------------------------------------------------
   Total forces(  10)            : -0.778128E-02  0.324875E-01  0.469692E-01
  atom #   11
   Hellmann-Feynman              :  0.149415E-01 -0.637767E-01  0.402145E-01
   Ionic forces                  :  0.000000E+00  0.000000E+00  0.000000E+00
   Multipole                     :  0.497095E-01  0.617376E-01  0.737460E-01
   Pulay + GGA                   : -0.470685E-01 -0.425501E-01 -0.918480E-01
   Van der Waals                 : -0.159202E-02 -0.193761E-03  0.188968E-03
   ----------------------------------------------------------------
   Total forces(  11)            :  0.159906E-01 -0.447830E-01  0.223015E-01
  atom #   12
   Hellmann-Feynman              : -0.339980E-01 -0.496175E-01 -0.145906E-01
   Ionic forces                  :  0.000000E+00  0.000000E+00  0.000000E+00
   Multipole                     :  0.122393E+00  0.309480E-01 -0.496073E-01
   Pulay + GGA                   : -0.907998E-01  0.338822E-01  0.419325E-01
   Van der Waals                 : -0.191233E-02  0.247144E-02 -0.604881E-03
   ----------------------------------------------------------------
   Total forces(  12)            : -0.431716E-02  0.176841E-01 -0.228702E-01

  Timings for VdW correction (Tkatchenko-Scheffler 2009 or later):
  | CPU time:        0.060 s, Wall clock time:        0.060 s.
  Removing unitary transformations (pure translations, rotations) from forces on atoms.
  Atomic forces before filtering:
  | Net force on center of mass :   0.467071E-07 -0.261065E-07 -0.249162E-02 eV/A
  | Net torque on center of mass:   0.173295E-07 -0.198305E-07  0.167186E-02 eV
  Atomic forces after filtering:
  | Net force on center of mass :  -0.348449E-17 -0.111504E-16 -0.111504E-16 eV/A
  | Net torque on center of mass:   0.147513E-16 -0.118011E-16  0.331905E-17 eV

  Energy and forces in a compact form:
  | Total energy uncorrected      :         -0.427378464656410E+04 eV
  | Total energy corrected        :         -0.427378464656410E+04 eV  <-- do not rely on this value for anything but (periodic) metals
  | Electronic free energy        :         -0.427378464656410E+04 eV
  Total atomic forces (unitary forces cleaned) [eV/Ang]:
  |   1         -0.564043091889925E-03         -0.139140325064788E-02          0.388275714750410E-02
  |   2         -0.606733811804900E-03         -0.379925515738875E-03         -0.241193409878731E-01
  |   3          0.606738049429202E-03          0.379916070746445E-03         -0.241193162859277E-01
  |   4          0.564042868529598E-03          0.139140593448764E-02          0.388276454035158E-02
  |   5          0.771696473530176E-02         -0.324448235556090E-01          0.471767274129855E-01
  |   6          0.429247165830829E-02         -0.175969410919380E-01         -0.226625750670488E-01
  |   7         -0.160367644774015E-01          0.448480340611050E-01          0.225092006302880E-01
  |   8         -0.117839985376001E-02         -0.796015421739076E-03         -0.267868242356752E-01
  |   9          0.117840479802911E-02          0.796002838125469E-03         -0.267867455732651E-01
  |  10         -0.771696262506482E-02          0.324447714011670E-01          0.471768178389738E-01
  |  11          0.160368022767359E-01         -0.448480637232836E-01          0.225091265747705E-01
  |  12         -0.429252052641269E-02          0.175970422533249E-01         -0.226625919950835E-01

  ------------------------------------ 
  Start decomposition of the XC Energy 
  ------------------------------------ 
  X and C from original XC functional choice 
  Hartree-Fock Energy :          0.000000000 Ha              0.000000000 eV
  X Energy            :        -23.396433463 Ha           -636.649346902 eV
  C Energy            :         -1.015737911 Ha            -27.639634849 eV
  Total XC Energy     :        -24.412171374 Ha           -664.288981751 eV
  ------------------------------------ 
  LDA X and C from self-consistent density 
  X Energy LDA        :        -21.148885691 Ha           -575.490460279 eV
  C Energy LDA        :         -1.974363569 Ha            -53.725166228 eV
  ------------------------------------ 
  End decomposition of the XC Energy 
  ------------------------------------ 

------------------------------------------------------------

------------------------------------------------------------------------------
  Final output of selected total energy values:

  The following output summarizes some interesting total energy values
  at the end of a run (AFTER all relaxation, molecular dynamics, etc.).

  | Total energy of the DFT / Hartree-Fock s.c.f. calculation      :          -4273.784646564 eV
  | Final zero-broadening corrected energy (caution - metals only) :          -4273.784646564 eV
  | For reference only, the value of 1 Hartree used in FHI-aims is :             27.211384500 eV

  Before relying on these values, please be sure to understand exactly which
  total energy value is referred to by a given number. Different objects may
  all carry the same name 'total energy'. Definitions:

  Total energy of the DFT / Hartree-Fock s.c.f. calculation:
  | Note that this energy does not include ANY quantities calculated after the
  | s.c.f. cycle, in particular not ANY RPA, MP2, etc. many-body perturbation terms.

  Final zero-broadening corrected energy:
  | For metallic systems only, a broadening of the occupation numbers at the Fermi
  | level can be extrapolated back to zero broadening by an electron-gas inspired
  | formula. For all systems that are not real metals, this value can be
  | meaningless and should be avoided.

------------------------------------------------------------------------------
  Methods described in the following list of references were used in this FHI-aims run.
  If you publish the results, please make sure to cite these reference if they apply.
  FHI-aims is an academic code, and for our developers (often, Ph.D. students
  and postdocs), scientific credit in the community is essential.
  Thank you for helping us!

  For any use of FHI-aims, please cite:

    Volker Blum, Ralf Gehrke, Felix Hanke, Paula Havu, Ville Havu,
    Xinguo Ren, Karsten Reuter, and Matthias Scheffler
    'Ab initio molecular simulations with numeric atom-centered orbitals'
    Computer Physics Communications 180, 2175-2196 (2009)
    http://dx.doi.org/10.1016/j.cpc.2009.06.022


  For the real-space grid partitioning and parallelization used in this calculation, please cite:

    Ville Havu, Volker Blum, Paula Havu, and Matthias Scheffler,
    'Efficient O(N) integration for all-electron electronic structure calculation'
    'using numerically tabulated basis functions'
    Journal of Computational Physics 228, 8367-8379 (2009).
    http://dx.doi.org/10.1016/j.jcp.2009.08.008

  Of course, there are many other important community references, e.g., those cited in the
  above references. Our list is limited to references that describe implementations in the
  FHI-aims code. The reason is purely practical (length of this list) - please credit others as well.

------------------------------------------------------------
          Leaving FHI-aims.
          Date     :  20180215, Time     :  214258.046

          Computational steps:
          | Number of self-consistency cycles          :           14
          | Number of SCF (re)initializations          :            1

          Detailed time accounting                     :  max(cpu_time)    wall_clock(cpu1)
          | Total time                                 :        9.460 s           9.500 s
          | Preparation time                           :        0.128 s           0.131 s
          | Boundary condition initalization           :        0.000 s           0.002 s
          | Grid partitioning                          :        0.064 s           0.063 s
          | Preloading free-atom quantities on grid    :        0.004 s           0.003 s
          | Free-atom superposition energy             :        0.024 s           0.022 s
          | Total time for integrations                :        2.780 s           2.771 s
          | Total time for solution of K.-S. equations :        0.068 s           0.040 s
          | Total time for density & force components  :        2.948 s           2.921 s
          | Total time for mixing                      :        0.160 s           0.170 s
          | Total time for Hartree multipole update    :        0.180 s           0.163 s
          | Total time for Hartree multipole sum       :        3.020 s           3.002 s
          | Total time for total energy evaluation     :        0.020 s           0.014 s
          | Total time for vdW correction              :        0.060 s           0.060 s

          Partial memory accounting:
          | Residual value for overall tracked memory usage across tasks :           0.000 MB (should be 0.000 MB)
          | Peak values for overall tracked memory usage (after allocating hessian_basis_wave):
          |   Minimum:        1.870 MB (on task 1)
          |   Maximum:        1.870 MB (on task 1)
          |   Average:        1.870 MB
          | Largest tracked array allocation (hessian_basis_wave):
          |   Minimum:        0.922 MB (on task 1)
          |   Maximum:        0.922 MB (on task 1)
          |   Average:        0.922 MB
          Note:  These values currently only include a subset of arrays which are explicitly tracked.
          The "true" memory usage will be greater.

          Have a nice day.
------------------------------------------------------------
