  MPI-parallelism will be employed.
------------------------------------------------------------
          Invoking FHI-aims ...
          Version 171221
          Git rev.: 70e78bb6 VB: Updated error message for aborted rel[...]
          Compiled on 2017/12/22 at 19:14:53 on host egr-vwb3-mbp2.local.

          When using FHI-aims, please cite the following reference:

          Volker Blum, Ralf Gehrke, Felix Hanke, Paula Havu,
          Ville Havu, Xinguo Ren, Karsten Reuter, and Matthias Scheffler,
          'Ab Initio Molecular Simulations with Numeric Atom-Centered Orbitals',
          Computer Physics Communications 180, 2175-2196 (2009)

          For any questions about FHI-aims, please visit the aimsclub website
          with its forums and wiki. Contributions to both the forums and the
          wiki are warmly encouraged - they are for you, and everyone is welcome there.

------------------------------------------------------------



  Date     :  20171223, Time     :  140302.037
  Time zero on CPU 1             :   0.100643000000000E+00  s.
  Internal wall clock time zero  :           283269782.037  s.

  FHI-aims created a unique identifier for this run for later identification
  aims_uuid : C2A3FAFA-2B41-4D09-A6CA-1C040936CEB6

  Using        4 parallel tasks.
  Task        0 on host egr-vwb3-mbp2.netgear.com reporting.
  Task        1 on host egr-vwb3-mbp2.netgear.com reporting.
  Task        2 on host egr-vwb3-mbp2.netgear.com reporting.
  Task        3 on host egr-vwb3-mbp2.netgear.com reporting.

  Performing system and environment tests:
  *** Environment variable OMP_NUM_THREADS is not set
  *** For performance reasons you might want to set it to 1
  | Maximum stacksize for task 0: 48 [Mb]
  | Maximum stacksize for task 1: 48 [Mb]
  | Maximum stacksize for task 2: 48 [Mb]
  | Maximum stacksize for task 3: 48 [Mb]
   *** Stacksize is not set to unlimited. This might cause problems...
  | Current stacksize for task 0: 48 [Mb]
  | Current stacksize for task 1: 48 [Mb]
  | Current stacksize for task 2: 48 [Mb]
  | Current stacksize for task 3: 48 [Mb]
  | Checking for scalapack...
  | Testing pdtran()...
  | All pdtran() tests passed.

  Obtaining array dimensions for all initial allocations:
  
  -----------------------------------------------------------------------
  Parsing control.in (first pass over file, find array dimensions only).
  The contents of control.in will be repeated verbatim below
  unless switched off by setting 'verbatim_writeout .false.' .
  in the first line of control.in .
  -----------------------------------------------------------------------
  
  #########################################################################################
  #
  #  Volker Blum, FHI 2017 : Input file for FHI-aims
  #
  #  Input file control.in : All computational details for fcc Al
  #
  #########################################################################################
    #
    #  Physical model settings
    #
      xc               pw-lda
      charge           0.
      spin             none
      relativistic     atomic_zora scalar
    #
    #  SCF convergence settings
    #
      occupation_type  gaussian 0.1
    #
    #  For periodic boundary conditions
    #
      k_grid 12 12 12
    #
    #  For relaxation:
    #
      relax_geometry bfgs 5.e-3
      relax_unit_cell full
    #
    #  Output options (examples):
    #
    #  Density of states. The DOS is here evaluated
    #  with an effective 144x144x144 k-point grid.
    #  (12 for each k-space direction in s.c.f., and then denser
    #  by another factor of 12 during post-processing). Check whether the
    #  the DOS is smooth, however - fcc Al may need significantly
    #  more k-points (van Hove singularities in DOS).
    #
    #  The dense dos_kgrid_factors below will take a noticeable amount
    #  of time, but they do lead to a smooth DOS.
    #
  #    output dos -20 30 1000 0.1
  #    dos_kgrid_factors  12 12 12
    #
    #  angular momentum channel resolved density of states
    #
  #    output atom_proj_dos -20 30 1000 0.1
    #
    #  High-symmetry k-points for fcc band structure output, if requested.
    #
  #    output band  0.25  0.50  0.75  0.5   0.5   0.5   40	W      L
  #    output band  0.5   0.5   0.5   0.25  0.25  0.25  40	L      Lambda
  #    output band  0.25  0.25  0.25  0     0     0     40	Lambda Gamma
  #    output band  0     0       0   0.00  0.25  0.25  40	Gamma  Delta
  #    output band  0.00  0.25  0.25  0     0.5   0.5   40	Delta  X
  #    output band  0     0.5   0.5   0.125 0.5   0.625 40	X      Z
  #    output band  0.125 0.5   0.625 0.25  0.50  0.75  40	Z      W
  #    output band  0.25  0.50  0.75  0.375 0.375 0.75  40	W      K
  
  ################################################################################
  #
  #  FHI-aims code project
  #  VB, Fritz-Haber Institut, 2009
  #
  #  Suggested "light" defaults for Al atom (to be pasted into control.in file)
  #  Be sure to double-check any results obtained with these settings for post-processing,
  #  e.g., with the "tight" defaults and larger basis sets.
  #
  ################################################################################
    species        Al
  #     global species definitions
      nucleus             13
      mass                26.9815386
  #
      l_hartree           4
  #
      cut_pot             3.5          1.5  1.0
      basis_dep_cutoff    1e-4
  #
      radial_base         41 5.0
      radial_multiplier   1
      angular_grids       specified
        division   0.6594  110
        division   0.8170  194
        division   0.9059  302
  #      division   1.0363  434
  #      division   1.1443  590
  #      division   1.2621  770
  #      division   2.8177  974
  #      outer_grid   974
        outer_grid   302
  ################################################################################
  #
  #  Definition of "minimal" basis
  #
  ################################################################################
  #     valence basis states
      valence      3  s   2.
      valence      3  p   1.
  #     ion occupancy
      ion_occ      3  s   1.
      ion_occ      2  p   6.
  ################################################################################
  #
  #  Suggested additional basis functions. For production calculations,
  #  uncomment them one after another (the most important basis functions are
  #  listed first).
  #
  #  Constructed for dimers: 2.0 A, 2.5 A, 3.0 A, 3.75 A, 4.5 A
  #
  ################################################################################
  #  "First tier" - improvements: -199.47 meV to -10.63 meV
       ionic 3 d auto
       ionic 3 p auto
  #     hydro 4 f 4.7
       ionic 3 s auto
  #  "Second tier" - improvements: -5.35 meV to -1.57 meV
  #     hydro 5 g 7
  #     hydro 3 d 6
  #     hydro 2 s 11.6
  #     hydro 2 p 0.9
  #  "Third tier" - improvements: -0.63 meV to -0.20 meV
  #     hydro 5 f 7.6
  #     hydro 4 p 7.2
  #     hydro 4 s 3.7
  #     hydro 4 d 7.6
  #  "Fourth tier" - improvements: -0.17 meV to -0.08 meV
  #     hydro 4 d 13.6
  #     hydro 5 g 11.2
  #     hydro 4 d 0.9
  #     hydro 1 s 0.4
  #     hydro 4 p 0.1
  #     hydro 5 f 9.8
  #  Further basis functions that fell out of the optimization - noise level...
  #     hydro 4 p 5
  
  
  -----------------------------------------------------------------------
  Completed first pass over input file control.in .
  -----------------------------------------------------------------------
  
  
  -----------------------------------------------------------------------
  Parsing geometry.in (first pass over file, find array dimensions only).
  The contents of geometry.in will be repeated verbatim below
  unless switched off by setting 'verbatim_writeout .false.' .
  in the first line of geometry.in .
  -----------------------------------------------------------------------
  
  #
  #  fcc Al
  #  Equilibrium lattice parameter: 3.98 A (LDA)
  #
    atom 0. 0. 0. Al
  #
  # unit cell
  #
  lattice_vector  1.99 1.99 0.0
  lattice_vector  0.0  1.99 1.99
  lattice_vector  1.99 0.0  1.99
  
  -----------------------------------------------------------------------
  Completed first pass over input file geometry.in .
  -----------------------------------------------------------------------
  

  Basic array size parameters:
  | Number of species                 :        1
  | Number of atoms                   :        1
  | Number of lattice vectors         :        3
  | Max. basis fn. angular momentum   :        2
  | Max. atomic/ionic basis occupied n:        3
  | Max. number of basis fn. types    :        2
  | Max. radial fns per species/type  :        5
  | Max. logarithmic grid size        :     1340
  | Max. radial integration grid size :       41
  | Max. angular integration grid size:      302
  | Max. angular grid division number :        8
  | Radial grid for Hartree potential :     1340
  | Number of spin channels           :        1

------------------------------------------------------------
          Reading file control.in.
------------------------------------------------------------
  XC: Using Perdew-Wang parametrisation of Ceperley-Alder LDA.
  Charge =   0.000000E+00: Neutral system requested explicitly.
  Spin treatment: No spin polarisation.
  Scalar relativistic treatment of kinetic energy: on-site free-atom approximation to ZORA.
  Occupation type: Gaussian broadening, width =   0.100000E+00 eV.
  Found k-point grid:        12        12        12
  Geometry relaxation: Modified BFGS - TRM (trust radius method, i.e., trusted quadratic extrapolation).
  Convergence accuracy for geometry relaxation: Maximum force <   0.500000E-02 eV/A.
 
  Reading configuration options for species Al                  .
  | Found nuclear charge :  13.0000
  | Found atomic mass :    26.9815386000000      amu
  | Found l_max for Hartree potential  :   4
  | Found cutoff potl. onset [A], width [A], scale factor :    3.50000    1.50000    1.00000
  | Threshold for basis-dependent cutoff potential is   0.100000E-03
  | Found data for basic radial integration grid :    41 points, outermost radius =    5.000 A
  | Found multiplier for basic radial grid :   1
  | Found angular grid specification: user-specified.
  | Specified grid contains     4 separate shells.
  | Check grid settings after all constraints further below.
  | Found free-atom valence shell :  3 s   2.000
  | Found free-atom valence shell :  3 p   1.000
  | Found free-ion valence shell :  3 s   1.000
  | Found free-ion valence shell :  2 p   6.000
  | Found ionic basis function :  3 d , default cutoff radius.
  | Found ionic basis function :  3 p , default cutoff radius.
  | Found ionic basis function :  3 s , default cutoff radius.
  Species Al                  : Missing cutoff potential type.
  Defaulting to exp(1/x)/(1-x)^2 type cutoff potential.
  Species Al: No 'logarithmic' tag. Using default grid for free atom:
  | Default logarithmic grid data [bohr] : 0.1000E-03 0.1000E+03 0.1012E+01
  | Will include ionic basis functions of  2.0-fold positive Al                   ion.
  Species Al: On-site basis accuracy parameter (for Gram-Schmidt orthonormalisation) not specified.
  Using default value basis_acc =  0.1000000E-03.
  Species Al                  : Using default innermost maximum threshold i_radial=  2 for radial functions.
  Species Al                  : Default cutoff onset for free atom density etc. : 0.35000000E+01 AA.
  Species Al                  : Basic radial grid will be enhanced according to radial_multiplier =   1, to contain    41 grid points.
 
  Finished reading input file 'control.in'. Consistency checks are next.
 
  MPI_IN_PLACE appears to work with this MPI implementation.
  | Keeping use_mpi_in_place .true. (see manual).
  Target number of points in a grid batch is not set. Defaulting to  100
  Method for grid partitioning is not set. Defaulting to parallel hash+maxmin partitioning.
  Batch size limit is not set. Defaulting to    200
  By default, will store active basis functions for each batch.
  If in need of memory, prune_basis_once .false. can be used to disable this option.
  communication_type for Hartree potential was not specified.
  Defaulting to calc_hartree .
  Defaulting to Pulay charge density mixer.
  Pulay mixer: Number of relevant iterations not set.
  Defaulting to    8 iterations.
  Pulay mixer: Number of initial linear mixing iterations not set.
  Defaulting to    0 iterations.
  Work space size for distributed Hartree potential not set.
  Defaulting to   0.200000E+03 MB.
  Mixing parameter for charge density mixing has not been set.
  Using default: charge_mix_param =     0.0500.
  The mixing parameter will be adjusted in iteration number     2 of the first full s.c.f. cycle only.
  Algorithm-dependent basis array size parameters:
  | n_max_pulay                         :        8
 * Notice: The s.c.f. convergence criterion sc_accuracy_rho was not provided.
 * We used to stop in this case, and ask the user to provide reasonable
 * scf convergence criteria. However, this led some users to employ criteria
 * that led to extremely long run times, e.g., for simple relaxation.
 * We now preset a default value for sc_accuracy_rho if it is not set.
 * You may still wish to check if this setting is too tight or too loose for your needs.
 * Based on n_atoms, FHI-aims chose sc_accuracy_rho =  0.100000E-05 .
  Maximum number of self-consistency iterations not provided.
  Presetting  1000 iterations.
  Presetting        40 iterations before the initial mixing cycle
  is restarted anyway using the sc_init_iter criterion / keyword.
  Presetting a factor      1.000 between actual scf density residual
  and density convergence criterion sc_accuracy_rho below which sc_init_iter
  takes no effect.
 * No s.c.f. convergence criteria (sc_accuracy_*) were provided in control.in.
 * The run will proceed with a reasonable default guess, but please check whether.
 * the s.c.f. cycles seem to take too much or too little time.
  No maximum number of relaxation steps, defaulting to     1000
  Default initial Hessian is Lindh matrix (thres = 15.00) plus  0.200000E+01 eV/A^2 times unity.
  No maximum energy tolerance for TRM/BFGS moves, defaulting to   0.200000E-03
  No harmonic length scale. Defaulting to   0.250000E-01 A.
  No trust radius initializer. Defaulting to   0.200000E+00 A.
  Unit cell relaxation: Unit cell will be relaxed fully.
  Unit cell relaxation: Analytical stress will be used.
  Analytical stress will be computed.
  Analytical stress calculation: Only the upper triangle is calculated.
                                 Final output is symmetrized.
  Analytical stress calculation: scf convergence accuracy of stress not set.
                                 Analytical stress self-consistency will not be checked explicitly.
                                 Be sure to set other criteria like sc_accuracy_rho tight enough.
  Force calculation: scf convergence accuracy of forces not set.
  Defaulting to 'sc_accuracy_forces not_checked'.
  Handling of forces: Unphysical translation and rotation will be removed from forces.
  No accuracy limit for integral partition fn. given. Defaulting to  0.1000E-14.
  No threshold value for u(r) in integrations given. Defaulting to  0.1000E-05.
  No accuracy for occupation numbers given. Defaulting to  0.1000E-12.
  No threshold value for occupation numbers given. Defaulting to  0.0000E+00.
  No accuracy for fermi level given. Defaulting to  0.1000E-19.
  Maximum # of iterations to find E_F not set. Defaulting to  200.
  Preferred method for the eigenvalue solver ('KS_method') not specified in 'control.in'.
  Defaulting to serial version, 'lapack_fast', since more k-points than CPUs available.
  Will not use alltoall communication since running on < 1024 CPUs.
  Threshold for basis singularities not set.
  Default threshold for basis singularities:  0.1000E-04
  partition_type (choice of integration weights) for integrals was not specified.
  | Using a version of the partition function of Stratmann and coworkers ('stratmann_smoother').
  | At each grid point, the set of atoms used to build the partition table is smoothly restricted to
  | only those atoms whose free-atom density would be non-zero at that grid point.
  Partitioning for Hartree potential was not defined. Using partition_type for integrals.
  | Adjusted default value of keyword multip_moments_threshold to:       0.10000000E-11
  | This value may affect high angular momentum components of the Hartree potential in periodic systems.
  Angular momentum expansion for Kerker preconditioner not set explicitly.
  | Using default value of   0
  No explicit requirement for turning off preconditioner.
  | By default, it will be turned off when the charge convergence reaches
  | sc_accuracy_rho  =   0.100000E-05
  No special mixing parameter while Kerker preconditioner is on.
  Using default: charge_mix_param =     0.0500.
  No q(lm)/r^(l+1) cutoff set for long-range Hartree potential.
  | Using default value of  0.100000E-09 .
  | Verify using the multipole_threshold keyword.
  Defaulting to new monopole extrapolation.
  Density update method: automatic selection selected.
  Using density matrix based charge density update.
  Using density matrix based charge density update.
  Using packed matrix style: index .
  Geometry relaxation: A file "geometry.in.next_step" is written out by default after each step.
  | This file contains the geometry of the current relaxation step as well as
  | the current Hessian matrix needed to restart the relaxation algorithm.
  | If you do not want part or all of this information, use the keywords
  | "write_restart_geometry" or "hessian_to_restart_geometry" to switch the output off.
  Defaulting to use time-reversal symmetry for k-point grid.
------------------------------------------------------------


------------------------------------------------------------
          Reading geometry description geometry.in.
------------------------------------------------------------
  Input structure read successfully.
  The structure contains        1 atoms,  and a total of         13.000 electrons.

  Input geometry:
  | Unit cell:
  |        1.99000000        1.99000000        0.00000000
  |        0.00000000        1.99000000        1.99000000
  |        1.99000000        0.00000000        1.99000000
  | Atomic structure:
  |       Atom                x [A]            y [A]            z [A]
  |    1: Species Al            0.00000000        0.00000000        0.00000000

  Lattice parameters for 3D lattice (in Angstroms) :     2.814285    2.814285    2.814285
  Angle(s) between unit vectors (in degrees)      :    60.000000   60.000000   60.000000


  Symmetry information by spglib:
  | Precision set to  0.1E-04
  | Number of Operations  : 48
  | Space group           : 225
  | International         : Fm-3m     ^
  | Schoenflies           : Oh^5
  |

  | The smallest distance between any two atoms is         2.81428499 AA.
  |
  | The first atom of this pair is atom number                      1 .
  | The second atom of this pair is atom number                     1 .
  | Wigner-Seitz cell of the first atom image          -1     0     1 .
  | (The Wigner-Seitz cell of the second atom is 0 0 0  by definition.)

  Quantities derived from the lattice vectors:
  | Reciprocal lattice vector 1:  1.578690  1.578690 -1.578690
  | Reciprocal lattice vector 2: -1.578690  1.578690  1.578690
  | Reciprocal lattice vector 3:  1.578690 -1.578690  1.578690
  | Unit cell volume                               :   0.157612E+02  A^3

  Range separation radius for Ewald summation (hartree_convergence_parameter):      3.55728942 bohr.

  Fractional coordinates:
                         L1                L2                L3
       atom_frac         0.00000000        0.00000000        0.00000000  Al

  Number of empty states per atom not set in control.in - providing a guess from actual geometry.
  | Total number of empty states used during s.c.f. cycle:        3
  If you use a very high smearing, use empty_states (per atom!) in control.in to increase this value.

  Structure-dependent array size parameters: 
  | Maximum number of distinct radial functions  :        8
  | Maximum number of basis functions            :       18
  | Number of Kohn-Sham states (occupied + empty):       10
------------------------------------------------------------

------------------------------------------------------------
          Preparing all fixed parts of the calculation.
------------------------------------------------------------
  Determining machine precision:
    2.225073858507201E-308
  Setting up grids for atomic and cluster calculations.

  Creating wave function, potential, and density for free atoms.

  Species: Al

  List of occupied orbitals and eigenvalues:
    n    l              occ      energy [Ha]    energy [eV]
    1    0           2.0000       -55.368617     -1506.6567
    2    0           2.0000        -3.933052      -107.0238
    3    0           2.0000        -0.275173        -7.4878
    2    1           6.0000        -2.544101       -69.2285
    3    1           1.0000        -0.086012        -2.3405

  Creating fixed part of basis set: Ionic, confined, hydrogenic.
 
  Al                   ion:

  List of free ionic orbitals and eigenvalues:
    n    l      energy [Ha]    energy [eV]
    1    0       -56.167517     -1528.3959
    2    0        -4.710173      -128.1703
    3    0        -0.879347       -23.9283
    2    1        -3.321561       -90.3843


  List of ionic basis orbitals and eigenvalues:
    n    l      energy [Ha]    energy [eV]    outer radius [A]
    3    2        -0.349836        -9.5195       4.594041
    3    1        -0.638653       -17.3786       4.538221
    3    0        -0.879312       -23.9273       4.483079


  Adding cutoff potential to free-atom effective potential.
  Creating atomic-like basis functions for current effective potential.

  Species Al                  :

  List of atomic basis orbitals and eigenvalues:
    n    l      energy [Ha]    energy [eV]    outer radius [A]
    1    0       -55.368617     -1506.6567       0.850197
    2    0        -3.933052      -107.0238       3.183593
    3    0        -0.275173        -7.4878       4.594041
    2    1        -2.544101       -69.2285       3.731966
    3    1        -0.086012        -2.3405       4.594041

  Assembling full basis from fixed parts.
  | Species Al :   atomic orbital   1 s accepted.
  | Species Al :   atomic orbital   2 s accepted.
  | Species Al :    ionic orbital   3 s accepted.
  | Species Al :   atomic orbital   3 s accepted.
  | Species Al :   atomic orbital   2 p accepted.
  | Species Al :    ionic orbital   3 p accepted.
  | Species Al :   atomic orbital   3 p accepted.
  | Species Al :    ionic orbital   3 d accepted.
 
  Basis size parameters after reduction:
  | Total number of radial functions:        8
  | Total number of basis functions :       18
 
  Per-task memory consumption for arrays in subroutine allocate_ext:
  |           2.745180MB.
  Testing on-site integration grid accuracy.
  |  Species  Function  <phi|h_atom|phi> (log., in eV)  <phi|h_atom|phi> (rad., in eV)
           1        1              -1506.6567349563              -1506.6561595453
           1        2               -107.0238002879               -107.0237973754
           1        3                 -7.0435360886                 -7.0439988225
           1        4                  4.8527617730                  4.7697900123 ***
           1        5                -69.2285135094                -69.2285134423
           1        6                 -1.5497969167                 -1.5527571275
           1        7                  6.4027499806                  6.1501072511 ***
           1        8                  4.3750044185                  4.3418354946 ***
 * Note: Onsite integrals marked "***" above are less accurate than
 * onsite_accuracy_threshold =    0.03000 eV. Usually, this is harmless.
 * When in doubt, tighten the "radial" and/or "radial_multiplier" flags to check.

  Preparing densities etc. for the partition functions (integrals / Hartree potential).

  Preparations completed.
  max(cpu_time)          :      0.128 s.
  Wall clock time (cpu1) :      0.137 s.
------------------------------------------------------------

------------------------------------------------------------
          Begin self-consistency loop: Initialization.

          Date     :  20171223, Time     :  140302.282
------------------------------------------------------------

  Initializing index lists of integration centers etc. from given atomic structure:
  Mapping all atomic coordinates to central unit cell.

  Initializing the k-points
          Using symmetry for reducing the k-points
  | k-points reduced from:     1728 to      868
  | Number of k-points                             :       868
  The eigenvectors in the calculations are COMPLEX.
  | K-points in task   0:       217
  | K-points in task   1:       217
  | K-points in task   2:       217
  | K-points in task   3:       217
  | Number of basis functions in the Hamiltonian integrals :      1420
  | Number of basis functions in a single unit cell        :        18
  | Number of centers in hartree potential         :       683
  | Number of centers in hartree multipole         :       321
  | Number of centers in electron density summation:       225
  | Number of centers in basis integrals           :       249
  | Number of centers in integrals                 :        93
  | Number of centers in hamiltonian               :       225
  | Consuming       3065 KiB for k_phase.
  | Number of super-cells (origin) [n_cells]                     :        3375
  | Number of super-cells (after PM_index) [n_cells]             :         226
  | Number of super-cells in hamiltonian [n_cells_in_hamiltonian]:         226
  | Size of matrix packed + index [n_hamiltonian_matrix_size] :       31382
  Initializing relaxation algorithms.
  Partitioning the integration grid into batches with parallel hashing+maxmin method.
  | Number of batches:       91
  | Maximal batch size:     159
  | Minimal batch size:      61
  | Average batch size:      83.055
  | Standard deviation of batch sizes:      18.706

  Integration load balanced across     4 MPI tasks.
  Work distribution over tasks is as follows:
  Task     0 has       1923 integration points.
  Task     1 has       1885 integration points.
  Task     2 has       1893 integration points.
  Task     3 has       1857 integration points.
  Initializing partition tables, free-atom densities, potentials, etc. across the integration grid (initialize_grid_storage).
  | initialize_grid_storage: Actual outermost partition radius vs. multipole_radius_free
  | (-- VB: in principle, multipole_radius_free should be larger, hence this output)
  | Species        1: Confinement radius =              4.999999999999999 AA, multipole_radius_free =              5.004487022111096 AA.
  | Species        1: outer_partition_radius set to              5.004487022111096 AA .
  | Original list of interatomic distances with         249 x        249 entries is created.
  | Net number of integration points:     7558
  | of which are non-zero points    :     6650
  | Numerical average free-atom electrostatic potential    :    -16.10851449 eV
  Renormalizing the initial density to the exact electron count on the 3D integration grid.
  | Initial density: Formal number of electrons (from input files) :      13.0000000000
  | Integrated number of electrons on 3D grid     :      13.0005775920
  | Charge integration error                      :       0.0005775920
  | Normalization factor for density and gradient :       0.9999555718
  Obtaining max. number of non-zero basis functions in each batch (get_n_compute_maxes).
  | Maximal number of non-zero basis functions:      582 in task     0
  | Maximal number of non-zero basis functions:      623 in task     1
  | Maximal number of non-zero basis functions:      646 in task     2
  | Maximal number of non-zero basis functions:      594 in task     3
  Allocating        0.625 MB for KS_eigenvector_complex
  Integrating Hamiltonian matrix: batch-based integration.
  Time summed over all CPUs for integration: real work        0.436 s, elapsed        0.455 s
  Integrating overlap matrix.
  Time summed over all CPUs for integration: real work        0.305 s, elapsed        0.321 s
  Decreasing sparse matrix size:
   Tolerance:  9.999999824516700E-014
   Hamiltonian matrix
  | Array has    22125 nonzero elements out of    31382 elements
  | Sparsity factor is 0.295
   Overlap matrix
  | Array has    21071 nonzero elements out of    31382 elements
  | Sparsity factor is 0.329
  New size of hamiltonian matrix:       22264

  Updating Kohn-Sham eigenvalues and eigenvectors using ELSI and the ELPA eigensolver.
  Overlap matrix is nonsingular
  | Lowest eigenvalue of overlap  :  0.47E-03
  | Highest eigenvalue of overlap :  0.84E+01
  Finished singularity check of overlap matrix
  | Time :     0.010 s
  Finished Cholesky decomposition
  | Time :     0.002 s
  Finished transformation to standard eigenproblem
  | Time :     0.000 s
  Starting LAPACK eigensolver
  Finished solving standard eigenproblem
  | Time :     0.001 s
  Finished back-transformation of eigenvectors
  | Time :     0.000 s

  Obtaining occupation numbers and chemical potential using ELSI.
  | Chemical potential (Fermi level):    -5.99169730eV
  Writing Kohn-Sham eigenvalues.
  K-point:       1 at    0.000000    0.000000    0.000000 (in units of recip. lattice)

  State    Occupation    Eigenvalue [Ha]    Eigenvalue [eV]
      1       2.00000         -55.384976        -1507.10188
      2       2.00000          -3.955405         -107.63204
      3       2.00000          -2.565990          -69.82414
      4       2.00000          -2.565990          -69.82414
      5       2.00000          -2.565990          -69.82414
      6       2.00000          -0.635696          -17.29818
      7       0.00000           0.259435            7.05960
      8       0.00000           0.259435            7.05960
      9       0.00000           0.259435            7.05960
     10       0.00000           0.345188            9.39305

  What follows are estimated values for band gap, HOMO, LUMO, etc.
  | They are estimated on a discrete k-point grid and not necessarily exact.
  | For converged numbers, create a DOS and/or band structure plot on a denser k-grid.

  Highest occupied state (VBM) at     -6.07996038 eV (relative to internal zero)
  | Occupation number:      1.78805261
  | K-point:     503 at    0.333333    0.916667    0.583333 (in units of recip. lattice)

  Lowest unoccupied state (CBM) at    -5.92933397 eV (relative to internal zero)
  | Occupation number:      0.37780350
  | K-point:     250 at    0.166667    0.583333    0.500000 (in units of recip. lattice)

  ESTIMATED overall HOMO-LUMO gap:      0.15062641 eV between HOMO at k-point 503 and LUMO at k-point 250
  | This appears to be an indirect band gap.
  | Smallest direct gap :      0.97723265 eV for k_point 376 at    0.166667    0.583333    0.500000 (in units of recip. lattice)
  However, this system has fractional occupation numbers. Since we use a finite k-point grid,
  this material is metallic within the approximate finite broadening function (occupation_type)
  applied to determine the occupation numbers.
  Calculating total energy contributions from superposition of free atom densities.

  Total energy components:
  | Sum of eigenvalues            :        -135.22664015 Ha       -3679.70409963 eV
  | XC energy correction          :         -17.73909080 Ha        -482.70522043 eV
  | XC potential correction       :          23.42935756 Ha         637.54525715 eV
  | Free-atom electrostatic energy:        -112.62192734 Ha       -3064.59856811 eV
  | Hartree energy correction     :           0.00000000 Ha           0.00000000 eV
  | Entropy correction            :          -0.00003763 Ha          -0.00102409 eV
  | ---------------------------
  | Total energy                  :        -242.15830073 Ha       -6589.46263101 eV
  | Total energy, T -> 0          :        -242.15833836 Ha       -6589.46365511 eV  <-- do not rely on this value for anything but (periodic) metals
  | Electronic free energy        :        -242.15837600 Ha       -6589.46467920 eV

  Derived energy quantities:
  | Kinetic energy                :         242.58105543 Ha        6600.96637180 eV
  | Electrostatic energy          :        -467.00026536 Ha      -12707.72378239 eV
  | Energy correction for multipole
  | error in Hartree potential    :           0.00000000 Ha           0.00000000 eV
  | Sum of eigenvalues per atom                           :       -3679.70409963 eV
  | Total energy (T->0) per atom                          :       -6589.46365511 eV  <-- do not rely on this value for anything but (periodic) metals
  | Electronic free energy per atom                       :       -6589.46467920 eV
  Initialize hartree_potential_storage
  Max. number of atoms included in rho_multipole:            1

  End scf initialization - timings             :  max(cpu_time)    wall_clock(cpu1)
  | Time for scf. initialization               :        0.408 s           0.431 s
  | Boundary condition initialization          :        0.077 s           0.079 s
  | Relaxation initialization                  :        0.001 s           0.000 s
  | Integration                                :        0.191 s           0.196 s
  | Solution of K.-S. eqns.                    :        0.074 s           0.088 s
  | Grid partitioning                          :        0.010 s           0.012 s
  | Preloading free-atom quantities on grid    :        0.001 s           0.002 s
  | Free-atom superposition energy             :        0.007 s           0.007 s
  | Total energy evaluation                    :        0.000 s           0.000 s

  Partial memory accounting:
  | Current value for overall tracked memory usage on task 0  :           1.071 MB
  | Peak value for overall tracked memory usage on task 0     :           6.184 MB after allocating wave
  | Largest tracked array allocation on task 0 so far         :           2.710 MB  when allocating hamiltonian_shell
  Note:  These values currently only include a subset of arrays which are explicitly tracked.
  The "true" memory usage will be greater.
------------------------------------------------------------

------------------------------------------------------------
          Begin self-consistency iteration #    1

  Date     :  20171223, Time     :  140302.714
------------------------------------------------------------
  Evaluating new KS density using the density matrix
  Evaluating density matrix
  Time summed over all CPUs for getting density from density matrix: real work        0.353 s, elapsed        0.370 s
  Integration grid: deviation in total charge (<rho> - N_e) =  -2.025047E-13
  Pulay mixing of updated and previous charge densities.

  Evaluating partitioned Hartree potential by multipole expansion.
  | Analytical far-field extrapolation by fixed multipoles:
  | Hartree multipole sum: apparent total charge =   0.500993E-03
  Summing up the Hartree potential.
  | Estimated reciprocal-space cutoff momentum G_max:         2.63548721 bohr^-1 .
  | Reciprocal lattice points for long-range Hartree potential:      26
  Time summed over all CPUs for potential: real work        0.222 s, elapsed        0.245 s
  | RMS charge density error from multipole expansion :   0.212900E-03
  | Average real-space part of the electrostatic potential :     -0.01909038 eV

  Integrating Hamiltonian matrix: batch-based integration.
  Time summed over all CPUs for integration: real work        0.347 s, elapsed        0.363 s

  Updating Kohn-Sham eigenvalues and eigenvectors using ELSI and the ELPA eigensolver.
  Finished Cholesky decomposition
  | Time :     0.000 s
  Finished transformation to standard eigenproblem
  | Time :     0.000 s
  Starting LAPACK eigensolver
  Finished solving standard eigenproblem
  | Time :     0.000 s
  Finished back-transformation of eigenvectors
  | Time :     0.000 s

  Obtaining occupation numbers and chemical potential using ELSI.
  | Chemical potential (Fermi level):    -5.99360871eV
  Writing Kohn-Sham eigenvalues.
  K-point:       1 at    0.000000    0.000000    0.000000 (in units of recip. lattice)

  State    Occupation    Eigenvalue [Ha]    Eigenvalue [eV]
      1       2.00000         -55.387637        -1507.17430
      2       2.00000          -3.957092         -107.67795
      3       2.00000          -2.567696          -69.87056
      4       2.00000          -2.567696          -69.87056
      5       2.00000          -2.567696          -69.87056
      6       2.00000          -0.635758          -17.29987
      7       0.00000           0.259340            7.05700
      8       0.00000           0.259340            7.05700
      9       0.00000           0.259340            7.05700
     10       0.00000           0.344864            9.38422

  What follows are estimated values for band gap, HOMO, LUMO, etc.
  | They are estimated on a discrete k-point grid and not necessarily exact.
  | For converged numbers, create a DOS and/or band structure plot on a denser k-grid.

  Highest occupied state (VBM) at     -6.08283032 eV (relative to internal zero)
  | Occupation number:      1.79297351
  | K-point:     703 at    0.583333    0.333333    0.916667 (in units of recip. lattice)

  Lowest unoccupied state (CBM) at    -5.93083201 eV (relative to internal zero)
  | Occupation number:      0.37465015
  | K-point:     628 at    0.500000    0.083333    0.666667 (in units of recip. lattice)

  ESTIMATED overall HOMO-LUMO gap:      0.15199831 eV between HOMO at k-point 703 and LUMO at k-point 628
  | This appears to be an indirect band gap.
  | Smallest direct gap :      0.97906725 eV for k_point 680 at    0.500000    0.083333    0.666667 (in units of recip. lattice)
  However, this system has fractional occupation numbers. Since we use a finite k-point grid,
  this material is metallic within the approximate finite broadening function (occupation_type)
  applied to determine the occupation numbers.

  Total energy components:
  | Sum of eigenvalues            :        -135.24577554 Ha       -3680.22480027 eV
  | XC energy correction          :         -17.73806373 Ha        -482.67727234 eV
  | XC potential correction       :          23.42799939 Ha         637.50829934 eV
  | Free-atom electrostatic energy:        -112.62192734 Ha       -3064.59856811 eV
  | Hartree energy correction     :           0.01954457 Ha           0.53183468 eV
  | Entropy correction            :          -0.00003738 Ha          -0.00101713 eV
  | ---------------------------
  | Total energy                  :        -242.15822266 Ha       -6589.46050669 eV
  | Total energy, T -> 0          :        -242.15826004 Ha       -6589.46152382 eV  <-- do not rely on this value for anything but (periodic) metals
  | Electronic free energy        :        -242.15829742 Ha       -6589.46254095 eV

  Derived energy quantities:
  | Kinetic energy                :         242.55091019 Ha        6600.14607795 eV
  | Electrostatic energy          :        -466.97106912 Ha      -12706.92931230 eV
  | Energy correction for multipole
  | error in Hartree potential    :           0.00002830 Ha           0.00077008 eV
  | Sum of eigenvalues per atom                           :       -3680.22480027 eV
  | Total energy (T->0) per atom                          :       -6589.46152382 eV  <-- do not rely on this value for anything but (periodic) metals
  | Electronic free energy per atom                       :       -6589.46254095 eV

  Self-consistency convergence accuracy:
  | Change of charge density      :  0.4030E-01
  | Change of sum of eigenvalues  : -0.5207E+00 eV
  | Change of total energy        :  0.2124E-02 eV

  End self-consistency iteration #     1       :  max(cpu_time)    wall_clock(cpu1)
  | Time for this iteration                    :        0.326 s           0.333 s
  | Charge density update                      :        0.101 s           0.104 s
  | Density mixing & preconditioning           :        0.008 s           0.009 s
  | Hartree multipole update                   :        0.000 s           0.000 s
  | Hartree multipole summation                :        0.060 s           0.063 s
  | Integration                                :        0.091 s           0.092 s
  | Solution of K.-S. eqns.                    :        0.063 s           0.064 s
  | Total energy evaluation                    :        0.000 s           0.000 s

  Partial memory accounting:
  | Current value for overall tracked memory usage on task 0  :           1.071 MB
  | Peak value for overall tracked memory usage on task 0     :           6.184 MB after allocating wave
  | Largest tracked array allocation on task 0 so far         :           2.710 MB  when allocating hamiltonian_shell
  Note:  These values currently only include a subset of arrays which are explicitly tracked.
  The "true" memory usage will be greater.
------------------------------------------------------------

------------------------------------------------------------
          Begin self-consistency iteration #    2

  Date     :  20171223, Time     :  140303.047
------------------------------------------------------------
  Evaluating new KS density using the density matrix
  Evaluating density matrix
  Time summed over all CPUs for getting density from density matrix: real work        0.324 s, elapsed        0.354 s
  Integration grid: deviation in total charge (<rho> - N_e) =  -2.362555E-13
  Pulay mixing of updated and previous charge densities.

  Evaluating partitioned Hartree potential by multipole expansion.
  | Analytical far-field extrapolation by fixed multipoles:
  | Hartree multipole sum: apparent total charge =  -0.100632E-02
  Summing up the Hartree potential.
  Time summed over all CPUs for potential: real work        0.280 s, elapsed        0.290 s
  | RMS charge density error from multipole expansion :   0.439087E-02
  | Average real-space part of the electrostatic potential :     -0.28844198 eV

  Integrating Hamiltonian matrix: batch-based integration.
  Time summed over all CPUs for integration: real work        0.361 s, elapsed        0.379 s

  Updating Kohn-Sham eigenvalues and eigenvectors using ELSI and the ELPA eigensolver.
  Finished Cholesky decomposition
  | Time :     0.000 s
  Finished transformation to standard eigenproblem
  | Time :     0.000 s
  Starting LAPACK eigensolver
  Finished solving standard eigenproblem
  | Time :     0.000 s
  Finished back-transformation of eigenvectors
  | Time :     0.000 s

  Obtaining occupation numbers and chemical potential using ELSI.
  | Chemical potential (Fermi level):    -6.02485937eV
  What follows are estimated values for band gap, HOMO, LUMO, etc.
  | They are estimated on a discrete k-point grid and not necessarily exact.
  | For converged numbers, create a DOS and/or band structure plot on a denser k-grid.

  Highest occupied state (VBM) at     -6.12857071 eV (relative to internal zero)
  | Occupation number:      1.85754228
  | K-point:     522 at    0.416667    0.083333    0.666667 (in units of recip. lattice)

  Lowest unoccupied state (CBM) at    -5.95649693 eV (relative to internal zero)
  | Occupation number:      0.33364854
  | K-point:     125 at    0.083333    0.416667    0.583333 (in units of recip. lattice)

  ESTIMATED overall HOMO-LUMO gap:      0.17207379 eV between HOMO at k-point 522 and LUMO at k-point 125
  | This appears to be an indirect band gap.
  | Smallest direct gap :      1.00464735 eV for k_point 779 at    0.083333    0.416667    0.583333 (in units of recip. lattice)
  However, this system has fractional occupation numbers. Since we use a finite k-point grid,
  this material is metallic within the approximate finite broadening function (occupation_type)
  applied to determine the occupation numbers.

  Checking to see if s.c.f. parameters should be adjusted.
  Adjusted the Pulay mixing parameter (charge_mix_param) for an expected low-gap system. New value:   0.020000 .

  Total energy components:
  | Sum of eigenvalues            :        -135.49836961 Ha       -3687.09823460 eV
  | XC energy correction          :         -17.71918668 Ha        -482.16360187 eV
  | XC potential correction       :          23.40303475 Ha         636.82897704 eV
  | Free-atom electrostatic energy:        -112.62192734 Ha       -3064.59856811 eV
  | Hartree energy correction     :           0.27897426 Ha           7.59127578 eV
  | Entropy correction            :          -0.00003387 Ha          -0.00092155 eV
  | ---------------------------
  | Total energy                  :        -242.15747463 Ha       -6589.44015176 eV
  | Total energy, T -> 0          :        -242.15750850 Ha       -6589.44107331 eV  <-- do not rely on this value for anything but (periodic) metals
  | Electronic free energy        :        -242.15754236 Ha       -6589.44199486 eV

  Derived energy quantities:
  | Kinetic energy                :         242.27565417 Ha        6592.65598052 eV
  | Electrostatic energy          :        -466.71394212 Ha      -12699.93253040 eV
  | Energy correction for multipole
  | error in Hartree potential    :           0.00061787 Ha           0.01681316 eV
  | Sum of eigenvalues per atom                           :       -3687.09823460 eV
  | Total energy (T->0) per atom                          :       -6589.44107331 eV  <-- do not rely on this value for anything but (periodic) metals
  | Electronic free energy per atom                       :       -6589.44199486 eV

  Self-consistency convergence accuracy:
  | Change of charge density      :  0.3853E-01
  | Change of sum of eigenvalues  : -0.6873E+01 eV
  | Change of total energy        :  0.2035E-01 eV

  End self-consistency iteration #     2       :  max(cpu_time)    wall_clock(cpu1)
  | Time for this iteration                    :        0.333 s           0.341 s
  | Charge density update                      :        0.100 s           0.102 s
  | Density mixing & preconditioning           :        0.010 s           0.010 s
  | Hartree multipole update                   :        0.000 s           0.000 s
  | Hartree multipole summation                :        0.072 s           0.074 s
  | Integration                                :        0.094 s           0.096 s
  | Solution of K.-S. eqns.                    :        0.057 s           0.059 s
  | Total energy evaluation                    :        0.000 s           0.000 s

  Partial memory accounting:
  | Current value for overall tracked memory usage on task 0  :           1.071 MB
  | Peak value for overall tracked memory usage on task 0     :           6.184 MB after allocating wave
  | Largest tracked array allocation on task 0 so far         :           2.710 MB  when allocating hamiltonian_shell
  Note:  These values currently only include a subset of arrays which are explicitly tracked.
  The "true" memory usage will be greater.
------------------------------------------------------------

------------------------------------------------------------
          Begin self-consistency iteration #    3

  Date     :  20171223, Time     :  140303.389
------------------------------------------------------------
  Evaluating new KS density using the density matrix
  Evaluating density matrix
  Time summed over all CPUs for getting density from density matrix: real work        0.312 s, elapsed        0.332 s
  Integration grid: deviation in total charge (<rho> - N_e) =  -3.037570E-13
  Pulay mixing of updated and previous charge densities.

  Evaluating partitioned Hartree potential by multipole expansion.
  | Analytical far-field extrapolation by fixed multipoles:
  | Hartree multipole sum: apparent total charge =  -0.124036E-02
  Summing up the Hartree potential.
  Time summed over all CPUs for potential: real work        0.266 s, elapsed        0.270 s
  | RMS charge density error from multipole expansion :   0.492806E-02
  | Average real-space part of the electrostatic potential :     -0.32627341 eV

  Integrating Hamiltonian matrix: batch-based integration.
  Time summed over all CPUs for integration: real work        0.357 s, elapsed        0.371 s

  Updating Kohn-Sham eigenvalues and eigenvectors using ELSI and the ELPA eigensolver.
  Finished Cholesky decomposition
  | Time :     0.000 s
  Finished transformation to standard eigenproblem
  | Time :     0.000 s
  Starting LAPACK eigensolver
  Finished solving standard eigenproblem
  | Time :     0.000 s
  Finished back-transformation of eigenvectors
  | Time :     0.000 s

  Obtaining occupation numbers and chemical potential using ELSI.
  | Chemical potential (Fermi level):    -6.02862184eV
  What follows are estimated values for band gap, HOMO, LUMO, etc.
  | They are estimated on a discrete k-point grid and not necessarily exact.
  | For converged numbers, create a DOS and/or band structure plot on a denser k-grid.

  Highest occupied state (VBM) at     -6.13445634 eV (relative to internal zero)
  | Occupation number:      1.86553539
  | K-point:     591 at    0.416667    0.750000    0.333333 (in units of recip. lattice)

  Lowest unoccupied state (CBM) at    -5.95954872 eV (relative to internal zero)
  | Occupation number:      0.32864769
  | K-point:     242 at    0.166667    0.500000    0.583333 (in units of recip. lattice)

  ESTIMATED overall HOMO-LUMO gap:      0.17490761 eV between HOMO at k-point 591 and LUMO at k-point 242
  | This appears to be an indirect band gap.
  | Smallest direct gap :      1.00802227 eV for k_point 779 at    0.166667    0.500000    0.583333 (in units of recip. lattice)
  However, this system has fractional occupation numbers. Since we use a finite k-point grid,
  this material is metallic within the approximate finite broadening function (occupation_type)
  applied to determine the occupation numbers.

  Total energy components:
  | Sum of eigenvalues            :        -135.52931547 Ha       -3687.94031430 eV
  | XC energy correction          :         -17.71737374 Ha        -482.11426920 eV
  | XC potential correction       :          23.40064044 Ha         636.76382455 eV
  | Free-atom electrostatic energy:        -112.62192734 Ha       -3064.59856811 eV
  | Hartree energy correction     :           0.31054002 Ha           8.45022397 eV
  | Entropy correction            :          -0.00003341 Ha          -0.00090915 eV
  | ---------------------------
  | Total energy                  :        -242.15743609 Ha       -6589.43910308 eV
  | Total energy, T -> 0          :        -242.15746950 Ha       -6589.44001223 eV  <-- do not rely on this value for anything but (periodic) metals
  | Electronic free energy        :        -242.15750292 Ha       -6589.44092138 eV

  Derived energy quantities:
  | Kinetic energy                :         242.25088571 Ha        6591.98199653 eV
  | Electrostatic energy          :        -466.69094806 Ha      -12699.30683041 eV
  | Energy correction for multipole
  | error in Hartree potential    :           0.00070090 Ha           0.01907240 eV
  | Sum of eigenvalues per atom                           :       -3687.94031430 eV
  | Total energy (T->0) per atom                          :       -6589.44001223 eV  <-- do not rely on this value for anything but (periodic) metals
  | Electronic free energy per atom                       :       -6589.44092138 eV

  Self-consistency convergence accuracy:
  | Change of charge density      :  0.9093E-02
  | Change of sum of eigenvalues  : -0.8421E+00 eV
  | Change of total energy        :  0.1049E-02 eV

  End self-consistency iteration #     3       :  max(cpu_time)    wall_clock(cpu1)
  | Time for this iteration                    :        0.323 s           0.331 s
  | Charge density update                      :        0.092 s           0.095 s
  | Density mixing & preconditioning           :        0.008 s           0.008 s
  | Hartree multipole update                   :        0.000 s           0.000 s
  | Hartree multipole summation                :        0.067 s           0.069 s
  | Integration                                :        0.092 s           0.094 s
  | Solution of K.-S. eqns.                    :        0.062 s           0.064 s
  | Total energy evaluation                    :        0.000 s           0.000 s

  Partial memory accounting:
  | Current value for overall tracked memory usage on task 0  :           1.071 MB
  | Peak value for overall tracked memory usage on task 0     :           6.184 MB after allocating wave
  | Largest tracked array allocation on task 0 so far         :           2.710 MB  when allocating hamiltonian_shell
  Note:  These values currently only include a subset of arrays which are explicitly tracked.
  The "true" memory usage will be greater.
------------------------------------------------------------

------------------------------------------------------------
          Begin self-consistency iteration #    4

  Date     :  20171223, Time     :  140303.721
------------------------------------------------------------
  Evaluating new KS density using the density matrix
  Evaluating density matrix
  Time summed over all CPUs for getting density from density matrix: real work        0.340 s, elapsed        0.354 s
  Integration grid: deviation in total charge (<rho> - N_e) =  -2.771117E-13
  Pulay mixing of updated and previous charge densities.

  Evaluating partitioned Hartree potential by multipole expansion.
  | Analytical far-field extrapolation by fixed multipoles:
  | Hartree multipole sum: apparent total charge =  -0.163216E-02
  Summing up the Hartree potential.
  Time summed over all CPUs for potential: real work        0.266 s, elapsed        0.275 s
  | RMS charge density error from multipole expansion :   0.480881E-02
  | Average real-space part of the electrostatic potential :     -0.35590403 eV

  Integrating Hamiltonian matrix: batch-based integration.
  Time summed over all CPUs for integration: real work        0.346 s, elapsed        0.363 s

  Updating Kohn-Sham eigenvalues and eigenvectors using ELSI and the ELPA eigensolver.
  Finished Cholesky decomposition
  | Time :     0.000 s
  Finished transformation to standard eigenproblem
  | Time :     0.000 s
  Starting LAPACK eigensolver
  Finished solving standard eigenproblem
  | Time :     0.000 s
  Finished back-transformation of eigenvectors
  | Time :     0.000 s

  Obtaining occupation numbers and chemical potential using ELSI.
  | Chemical potential (Fermi level):    -6.03052863eV
  What follows are estimated values for band gap, HOMO, LUMO, etc.
  | They are estimated on a discrete k-point grid and not necessarily exact.
  | For converged numbers, create a DOS and/or band structure plot on a denser k-grid.

  Highest occupied state (VBM) at     -6.13814466 eV (relative to internal zero)
  | Occupation number:      1.87197099
  | K-point:     591 at    0.416667    0.750000    0.333333 (in units of recip. lattice)

  Lowest unoccupied state (CBM) at    -5.96062132 eV (relative to internal zero)
  | Occupation number:      0.32283993
  | K-point:     135 at    0.083333    0.500000    0.666667 (in units of recip. lattice)

  ESTIMATED overall HOMO-LUMO gap:      0.17752334 eV between HOMO at k-point 591 and LUMO at k-point 135
  | This appears to be an indirect band gap.
  | Smallest direct gap :      1.01220769 eV for k_point 779 at    0.083333    0.500000    0.666667 (in units of recip. lattice)
  However, this system has fractional occupation numbers. Since we use a finite k-point grid,
  this material is metallic within the approximate finite broadening function (occupation_type)
  applied to determine the occupation numbers.

  Total energy components:
  | Sum of eigenvalues            :        -135.50564179 Ha       -3687.29612063 eV
  | XC energy correction          :         -17.72365034 Ha        -482.28506405 eV
  | XC potential correction       :          23.40898712 Ha         636.99094919 eV
  | Free-atom electrostatic energy:        -112.62192734 Ha       -3064.59856811 eV
  | Hartree energy correction     :           0.28481946 Ha           7.75033187 eV
  | Entropy correction            :          -0.00003289 Ha          -0.00089491 eV
  | ---------------------------
  | Total energy                  :        -242.15741289 Ha       -6589.43847172 eV
  | Total energy, T -> 0          :        -242.15744578 Ha       -6589.43936663 eV  <-- do not rely on this value for anything but (periodic) metals
  | Electronic free energy        :        -242.15747867 Ha       -6589.44026154 eV

  Derived energy quantities:
  | Kinetic energy                :         242.38262889 Ha        6595.56691078 eV
  | Electrostatic energy          :        -466.81639144 Ha      -12702.72031845 eV
  | Energy correction for multipole
  | error in Hartree potential    :           0.00071404 Ha           0.01942993 eV
  | Sum of eigenvalues per atom                           :       -3687.29612063 eV
  | Total energy (T->0) per atom                          :       -6589.43936663 eV  <-- do not rely on this value for anything but (periodic) metals
  | Electronic free energy per atom                       :       -6589.44026154 eV

  Self-consistency convergence accuracy:
  | Change of charge density      :  0.8038E-02
  | Change of sum of eigenvalues  :  0.6442E+00 eV
  | Change of total energy        :  0.6314E-03 eV

  End self-consistency iteration #     4       :  max(cpu_time)    wall_clock(cpu1)
  | Time for this iteration                    :        0.328 s           0.338 s
  | Charge density update                      :        0.102 s           0.105 s
  | Density mixing & preconditioning           :        0.008 s           0.009 s
  | Hartree multipole update                   :        0.000 s           0.000 s
  | Hartree multipole summation                :        0.068 s           0.070 s
  | Integration                                :        0.090 s           0.092 s
  | Solution of K.-S. eqns.                    :        0.059 s           0.061 s
  | Total energy evaluation                    :        0.000 s           0.001 s

  Partial memory accounting:
  | Current value for overall tracked memory usage on task 0  :           1.071 MB
  | Peak value for overall tracked memory usage on task 0     :           6.184 MB after allocating wave
  | Largest tracked array allocation on task 0 so far         :           2.710 MB  when allocating hamiltonian_shell
  Note:  These values currently only include a subset of arrays which are explicitly tracked.
  The "true" memory usage will be greater.
------------------------------------------------------------

------------------------------------------------------------
          Begin self-consistency iteration #    5

  Date     :  20171223, Time     :  140304.059
------------------------------------------------------------
  Evaluating new KS density using the density matrix
  Evaluating density matrix
  Time summed over all CPUs for getting density from density matrix: real work        0.319 s, elapsed        0.334 s
  Integration grid: deviation in total charge (<rho> - N_e) =  -3.126388E-13
  Pulay mixing of updated and previous charge densities.

  Evaluating partitioned Hartree potential by multipole expansion.
  | Analytical far-field extrapolation by fixed multipoles:
  | Hartree multipole sum: apparent total charge =  -0.166290E-02
  Summing up the Hartree potential.
  Time summed over all CPUs for potential: real work        0.310 s, elapsed        0.323 s
  | RMS charge density error from multipole expansion :   0.480260E-02
  | Average real-space part of the electrostatic potential :     -0.35519374 eV

  Integrating Hamiltonian matrix: batch-based integration.
  Time summed over all CPUs for integration: real work        0.383 s, elapsed        0.399 s

  Updating Kohn-Sham eigenvalues and eigenvectors using ELSI and the ELPA eigensolver.
  Finished Cholesky decomposition
  | Time :     0.000 s
  Finished transformation to standard eigenproblem
  | Time :     0.000 s
  Starting LAPACK eigensolver
  Finished solving standard eigenproblem
  | Time :     0.000 s
  Finished back-transformation of eigenvectors
  | Time :     0.000 s

  Obtaining occupation numbers and chemical potential using ELSI.
  | Chemical potential (Fermi level):    -6.03046286eV
  What follows are estimated values for band gap, HOMO, LUMO, etc.
  | They are estimated on a discrete k-point grid and not necessarily exact.
  | For converged numbers, create a DOS and/or band structure plot on a denser k-grid.

  Highest occupied state (VBM) at     -6.13803575 eV (relative to internal zero)
  | Occupation number:      1.87181804
  | K-point:     591 at    0.416667    0.750000    0.333333 (in units of recip. lattice)

  Lowest unoccupied state (CBM) at    -5.96057072 eV (relative to internal zero)
  | Occupation number:      0.32294500
  | K-point:     125 at    0.083333    0.416667    0.583333 (in units of recip. lattice)

  ESTIMATED overall HOMO-LUMO gap:      0.17746503 eV between HOMO at k-point 591 and LUMO at k-point 125
  | This appears to be an indirect band gap.
  | Smallest direct gap :      1.01212782 eV for k_point 779 at    0.083333    0.416667    0.583333 (in units of recip. lattice)
  However, this system has fractional occupation numbers. Since we use a finite k-point grid,
  this material is metallic within the approximate finite broadening function (occupation_type)
  applied to determine the occupation numbers.

  Total energy components:
  | Sum of eigenvalues            :        -135.50448169 Ha       -3687.26455275 eV
  | XC energy correction          :         -17.72379255 Ha        -482.28893377 eV
  | XC potential correction       :          23.40917542 Ha         636.99607316 eV
  | Free-atom electrostatic energy:        -112.62192734 Ha       -3064.59856811 eV
  | Hartree energy correction     :           0.28361282 Ha           7.71749740 eV
  | Entropy correction            :          -0.00003290 Ha          -0.00089517 eV
  | ---------------------------
  | Total energy                  :        -242.15741335 Ha       -6589.43848406 eV
  | Total energy, T -> 0          :        -242.15744624 Ha       -6589.43937923 eV  <-- do not rely on this value for anything but (periodic) metals
  | Electronic free energy        :        -242.15747914 Ha       -6589.44027440 eV

  Derived energy quantities:
  | Kinetic energy                :         242.38447184 Ha        6595.61706012 eV
  | Electrostatic energy          :        -466.81809264 Ha      -12702.76661041 eV
  | Energy correction for multipole
  | error in Hartree potential    :           0.00071311 Ha           0.01940467 eV
  | Sum of eigenvalues per atom                           :       -3687.26455275 eV
  | Total energy (T->0) per atom                          :       -6589.43937923 eV  <-- do not rely on this value for anything but (periodic) metals
  | Electronic free energy per atom                       :       -6589.44027440 eV

  Self-consistency convergence accuracy:
  | Change of charge density      :  0.3677E-02
  | Change of sum of eigenvalues  :  0.3157E-01 eV
  | Change of total energy        : -0.1234E-04 eV

  End self-consistency iteration #     5       :  max(cpu_time)    wall_clock(cpu1)
  | Time for this iteration                    :        0.340 s           0.351 s
  | Charge density update                      :        0.093 s           0.095 s
  | Density mixing & preconditioning           :        0.008 s           0.008 s
  | Hartree multipole update                   :        0.000 s           0.001 s
  | Hartree multipole summation                :        0.080 s           0.083 s
  | Integration                                :        0.098 s           0.101 s
  | Solution of K.-S. eqns.                    :        0.061 s           0.062 s
  | Total energy evaluation                    :        0.000 s           0.000 s

  Partial memory accounting:
  | Current value for overall tracked memory usage on task 0  :           1.071 MB
  | Peak value for overall tracked memory usage on task 0     :           6.184 MB after allocating wave
  | Largest tracked array allocation on task 0 so far         :           2.710 MB  when allocating hamiltonian_shell
  Note:  These values currently only include a subset of arrays which are explicitly tracked.
  The "true" memory usage will be greater.
------------------------------------------------------------

------------------------------------------------------------
          Begin self-consistency iteration #    6

  Date     :  20171223, Time     :  140304.410
------------------------------------------------------------
  Evaluating new KS density using the density matrix
  Evaluating density matrix
  Time summed over all CPUs for getting density from density matrix: real work        0.318 s, elapsed        0.333 s
  Integration grid: deviation in total charge (<rho> - N_e) =  -3.339551E-13
  Pulay mixing of updated and previous charge densities.

  Evaluating partitioned Hartree potential by multipole expansion.
  | Analytical far-field extrapolation by fixed multipoles:
  | Hartree multipole sum: apparent total charge =  -0.642330E-03
  Summing up the Hartree potential.
  Time summed over all CPUs for potential: real work        0.269 s, elapsed        0.274 s
  | RMS charge density error from multipole expansion :   0.486974E-02
  | Average real-space part of the electrostatic potential :     -0.37033782 eV

  Integrating Hamiltonian matrix: batch-based integration.
  Time summed over all CPUs for integration: real work        0.369 s, elapsed        0.379 s

  Updating Kohn-Sham eigenvalues and eigenvectors using ELSI and the ELPA eigensolver.
  Finished Cholesky decomposition
  | Time :     0.000 s
  Finished transformation to standard eigenproblem
  | Time :     0.000 s
  Starting LAPACK eigensolver
  Finished solving standard eigenproblem
  | Time :     0.000 s
  Finished back-transformation of eigenvectors
  | Time :     0.000 s

  Obtaining occupation numbers and chemical potential using ELSI.
  | Chemical potential (Fermi level):    -6.03176297eV
  What follows are estimated values for band gap, HOMO, LUMO, etc.
  | They are estimated on a discrete k-point grid and not necessarily exact.
  | For converged numbers, create a DOS and/or band structure plot on a denser k-grid.

  Highest occupied state (VBM) at     -6.14028670 eV (relative to internal zero)
  | Occupation number:      1.87515653
  | K-point:     591 at    0.416667    0.750000    0.333333 (in units of recip. lattice)

  Lowest unoccupied state (CBM) at    -5.96151515 eV (relative to internal zero)
  | Occupation number:      0.32048868
  | K-point:     252 at    0.166667    0.583333    0.666667 (in units of recip. lattice)

  ESTIMATED overall HOMO-LUMO gap:      0.17877154 eV between HOMO at k-point 591 and LUMO at k-point 252
  | This appears to be an indirect band gap.
  | Smallest direct gap :      1.01405934 eV for k_point 779 at    0.166667    0.583333    0.666667 (in units of recip. lattice)
  However, this system has fractional occupation numbers. Since we use a finite k-point grid,
  this material is metallic within the approximate finite broadening function (occupation_type)
  applied to determine the occupation numbers.

  Total energy components:
  | Sum of eigenvalues            :        -135.53274316 Ha       -3688.03358640 eV
  | XC energy correction          :         -17.72001431 Ha        -482.18612284 eV
  | XC potential correction       :          23.40417296 Ha         636.85994943 eV
  | Free-atom electrostatic energy:        -112.62192734 Ha       -3064.59856811 eV
  | Hartree energy correction     :           0.31310454 Ha           8.52000801 eV
  | Entropy correction            :          -0.00003267 Ha          -0.00088899 eV
  | ---------------------------
  | Total energy                  :        -242.15740731 Ha       -6589.43831991 eV
  | Total energy, T -> 0          :        -242.15743998 Ha       -6589.43920891 eV  <-- do not rely on this value for anything but (periodic) metals
  | Electronic free energy        :        -242.15747265 Ha       -6589.44009790 eV

  Derived energy quantities:
  | Kinetic energy                :         242.33821616 Ha        6594.35837889 eV
  | Electrostatic energy          :        -466.77560916 Ha      -12701.61057596 eV
  | Energy correction for multipole
  | error in Hartree potential    :           0.00072365 Ha           0.01969164 eV
  | Sum of eigenvalues per atom                           :       -3688.03358640 eV
  | Total energy (T->0) per atom                          :       -6589.43920891 eV  <-- do not rely on this value for anything but (periodic) metals
  | Electronic free energy per atom                       :       -6589.44009790 eV

  Self-consistency convergence accuracy:
  | Change of charge density      :  0.3812E-02
  | Change of sum of eigenvalues  : -0.7690E+00 eV
  | Change of total energy        :  0.1641E-03 eV

  End self-consistency iteration #     6       :  max(cpu_time)    wall_clock(cpu1)
  | Time for this iteration                    :        0.333 s           0.347 s
  | Charge density update                      :        0.093 s           0.095 s
  | Density mixing & preconditioning           :        0.008 s           0.008 s
  | Hartree multipole update                   :        0.000 s           0.001 s
  | Hartree multipole summation                :        0.067 s           0.070 s
  | Integration                                :        0.092 s           0.096 s
  | Solution of K.-S. eqns.                    :        0.072 s           0.077 s
  | Total energy evaluation                    :        0.000 s           0.000 s

  Partial memory accounting:
  | Current value for overall tracked memory usage on task 0  :           1.071 MB
  | Peak value for overall tracked memory usage on task 0     :           6.184 MB after allocating wave
  | Largest tracked array allocation on task 0 so far         :           2.710 MB  when allocating hamiltonian_shell
  Note:  These values currently only include a subset of arrays which are explicitly tracked.
  The "true" memory usage will be greater.
------------------------------------------------------------

------------------------------------------------------------
          Begin self-consistency iteration #    7

  Date     :  20171223, Time     :  140304.758
------------------------------------------------------------
  Evaluating new KS density using the density matrix
  Evaluating density matrix
  Time summed over all CPUs for getting density from density matrix: real work        0.317 s, elapsed        0.338 s
  Integration grid: deviation in total charge (<rho> - N_e) =  -3.979039E-13
  Pulay mixing of updated and previous charge densities.

  Evaluating partitioned Hartree potential by multipole expansion.
  | Analytical far-field extrapolation by fixed multipoles:
  | Hartree multipole sum: apparent total charge =   0.571093E-03
  Summing up the Hartree potential.
  Time summed over all CPUs for potential: real work        0.272 s, elapsed        0.282 s
  | RMS charge density error from multipole expansion :   0.482400E-02
  | Average real-space part of the electrostatic potential :     -0.37806332 eV

  Integrating Hamiltonian matrix: batch-based integration.
  Time summed over all CPUs for integration: real work        0.365 s, elapsed        0.389 s

  Updating Kohn-Sham eigenvalues and eigenvectors using ELSI and the ELPA eigensolver.
  Finished Cholesky decomposition
  | Time :     0.000 s
  Finished transformation to standard eigenproblem
  | Time :     0.000 s
  Starting LAPACK eigensolver
  Finished solving standard eigenproblem
  | Time :     0.000 s
  Finished back-transformation of eigenvectors
  | Time :     0.000 s

  Obtaining occupation numbers and chemical potential using ELSI.
  | Chemical potential (Fermi level):    -6.03066537eV
  What follows are estimated values for band gap, HOMO, LUMO, etc.
  | They are estimated on a discrete k-point grid and not necessarily exact.
  | For converged numbers, create a DOS and/or band structure plot on a denser k-grid.

  Highest occupied state (VBM) at     -6.13924229 eV (relative to internal zero)
  | Occupation number:      1.87534128
  | K-point:     591 at    0.416667    0.750000    0.333333 (in units of recip. lattice)

  Lowest unoccupied state (CBM) at    -5.96042266 eV (relative to internal zero)
  | Occupation number:      0.32052381
  | K-point:     125 at    0.083333    0.416667    0.583333 (in units of recip. lattice)

  ESTIMATED overall HOMO-LUMO gap:      0.17881964 eV between HOMO at k-point 591 and LUMO at k-point 125
  | This appears to be an indirect band gap.
  | Smallest direct gap :      1.01398299 eV for k_point 779 at    0.083333    0.416667    0.583333 (in units of recip. lattice)
  However, this system has fractional occupation numbers. Since we use a finite k-point grid,
  this material is metallic within the approximate finite broadening function (occupation_type)
  applied to determine the occupation numbers.

  Total energy components:
  | Sum of eigenvalues            :        -135.53149752 Ha       -3687.99969086 eV
  | XC energy correction          :         -17.71964608 Ha        -482.17610273 eV
  | XC potential correction       :          23.40369397 Ha         636.84691538 eV
  | Free-atom electrostatic energy:        -112.62192734 Ha       -3064.59856811 eV
  | Hartree energy correction     :           0.31196969 Ha           8.48912731 eV
  | Entropy correction            :          -0.00003267 Ha          -0.00088905 eV
  | ---------------------------
  | Total energy                  :        -242.15740728 Ha       -6589.43831901 eV
  | Total energy, T -> 0          :        -242.15743995 Ha       -6589.43920806 eV  <-- do not rely on this value for anything but (periodic) metals
  | Electronic free energy        :        -242.15747262 Ha       -6589.44009712 eV

  Derived energy quantities:
  | Kinetic energy                :         242.33899165 Ha        6594.37948110 eV
  | Electrostatic energy          :        -466.77675285 Ha      -12701.64169738 eV
  | Energy correction for multipole
  | error in Hartree potential    :           0.00071774 Ha           0.01953081 eV
  | Sum of eigenvalues per atom                           :       -3687.99969086 eV
  | Total energy (T->0) per atom                          :       -6589.43920806 eV  <-- do not rely on this value for anything but (periodic) metals
  | Electronic free energy per atom                       :       -6589.44009712 eV

  Self-consistency convergence accuracy:
  | Change of charge density      :  0.1986E-03
  | Change of sum of eigenvalues  :  0.3390E-01 eV
  | Change of total energy        :  0.9006E-06 eV

  End self-consistency iteration #     7       :  max(cpu_time)    wall_clock(cpu1)
  | Time for this iteration                    :        0.329 s           0.337 s
  | Charge density update                      :        0.099 s           0.100 s
  | Density mixing & preconditioning           :        0.008 s           0.008 s
  | Hartree multipole update                   :        0.000 s           0.000 s
  | Hartree multipole summation                :        0.071 s           0.072 s
  | Integration                                :        0.096 s           0.098 s
  | Solution of K.-S. eqns.                    :        0.055 s           0.058 s
  | Total energy evaluation                    :        0.000 s           0.001 s

  Partial memory accounting:
  | Current value for overall tracked memory usage on task 0  :           1.071 MB
  | Peak value for overall tracked memory usage on task 0     :           6.184 MB after allocating wave
  | Largest tracked array allocation on task 0 so far         :           2.710 MB  when allocating hamiltonian_shell
  Note:  These values currently only include a subset of arrays which are explicitly tracked.
  The "true" memory usage will be greater.
------------------------------------------------------------

------------------------------------------------------------
          Begin self-consistency iteration #    8

  Date     :  20171223, Time     :  140305.095
------------------------------------------------------------
  Evaluating new KS density using the density matrix
  Evaluating density matrix
  Time summed over all CPUs for getting density from density matrix: real work        0.326 s, elapsed        0.344 s
  Integration grid: deviation in total charge (<rho> - N_e) =  -3.623768E-13
  Pulay mixing of updated and previous charge densities.

  Evaluating partitioned Hartree potential by multipole expansion.
  | Analytical far-field extrapolation by fixed multipoles:
  | Hartree multipole sum: apparent total charge =   0.558196E-03
  Summing up the Hartree potential.
  Time summed over all CPUs for potential: real work        0.283 s, elapsed        0.327 s
  | RMS charge density error from multipole expansion :   0.483433E-02
  | Average real-space part of the electrostatic potential :     -0.37874539 eV

  Integrating Hamiltonian matrix: batch-based integration.
  Time summed over all CPUs for integration: real work        0.395 s, elapsed        0.408 s

  Updating Kohn-Sham eigenvalues and eigenvectors using ELSI and the ELPA eigensolver.
  Finished Cholesky decomposition
  | Time :     0.000 s
  Finished transformation to standard eigenproblem
  | Time :     0.000 s
  Starting LAPACK eigensolver
  Finished solving standard eigenproblem
  | Time :     0.000 s
  Finished back-transformation of eigenvectors
  | Time :     0.000 s

  Obtaining occupation numbers and chemical potential using ELSI.
  | Chemical potential (Fermi level):    -6.03082795eV
  What follows are estimated values for band gap, HOMO, LUMO, etc.
  | They are estimated on a discrete k-point grid and not necessarily exact.
  | For converged numbers, create a DOS and/or band structure plot on a denser k-grid.

  Highest occupied state (VBM) at     -6.13947087 eV (relative to internal zero)
  | Occupation number:      1.87557021
  | K-point:     591 at    0.416667    0.750000    0.333333 (in units of recip. lattice)

  Lowest unoccupied state (CBM) at    -5.96056020 eV (relative to internal zero)
  | Occupation number:      0.32035136
  | K-point:     242 at    0.166667    0.500000    0.583333 (in units of recip. lattice)

  ESTIMATED overall HOMO-LUMO gap:      0.17891067 eV between HOMO at k-point 591 and LUMO at k-point 242
  | This appears to be an indirect band gap.
  | Smallest direct gap :      1.01411981 eV for k_point 779 at    0.166667    0.500000    0.583333 (in units of recip. lattice)
  However, this system has fractional occupation numbers. Since we use a finite k-point grid,
  this material is metallic within the approximate finite broadening function (occupation_type)
  applied to determine the occupation numbers.

  Total energy components:
  | Sum of eigenvalues            :        -135.53341171 Ha       -3688.05177858 eV
  | XC energy correction          :         -17.71943668 Ha        -482.17040475 eV
  | XC potential correction       :          23.40341627 Ha         636.83935861 eV
  | Free-atom electrostatic energy:        -112.62192734 Ha       -3064.59856811 eV
  | Hartree energy correction     :           0.31395234 Ha           8.54307773 eV
[...]
  However, this system has fractional occupation numbers. Since we use a finite k-point grid,
  this material is metallic within the approximate finite broadening function (occupation_type)
  applied to determine the occupation numbers.

  Total energy components:
  | Sum of eigenvalues            :        -135.52549217 Ha       -3687.83627693 eV
  | XC energy correction          :         -17.71742654 Ha        -482.11570602 eV
  | XC potential correction       :          23.40077405 Ha         636.76746032 eV
  | Free-atom electrostatic energy:        -112.63027100 Ha       -3064.82561051 eV
  | Hartree energy correction     :           0.31500063 Ha           8.57160334 eV
  | Entropy correction            :          -0.00003196 Ha          -0.00086965 eV
  | ---------------------------
  | Total energy                  :        -242.15741503 Ha       -6589.43852980 eV
  | Total energy, T -> 0          :        -242.15744699 Ha       -6589.43939946 eV  <-- do not rely on this value for anything but (periodic) metals
  | Electronic free energy        :        -242.15747894 Ha       -6589.44026911 eV

  Derived energy quantities:
  | Kinetic energy                :         242.32906395 Ha        6594.10933474 eV
  | Electrostatic energy          :        -466.76905244 Ha      -12701.43215852 eV
  | Energy correction for multipole
  | error in Hartree potential    :           0.00071220 Ha           0.01938006 eV
  | Sum of eigenvalues per atom                           :       -3687.83627693 eV
  | Total energy (T->0) per atom                          :       -6589.43939946 eV  <-- do not rely on this value for anything but (periodic) metals
  | Electronic free energy per atom                       :       -6589.44026911 eV

  atomic forces [eV/Ang]:
  -----------------------
  atom #    1
   Hellmann-Feynman              :  0.359997E-08 -0.227915E-09  0.167650E-08
   Ionic forces                  :  0.000000E+00  0.000000E+00  0.000000E+00
   Multipole                     :  0.242927E-12  0.242360E-12  0.220024E-12
   Pulay                         :  0.757643E-08 -0.493988E-08  0.121012E-08
   ----------------------------------------------------------------
   Total forces(   1)            :  0.111766E-07 -0.516755E-08  0.288684E-08


  Analytical stress tensor components [eV]         xx                  yy                  zz                  xy                  xz                  yz
  -----------------------------------------------------------------------------------------------------------------------------------------------------------
    Nuclear Hellmann-Feynman      :    -0.5493982511E+01   -0.5494043633E+01   -0.5494043633E+01   -0.1633461437E-01   -0.1633461497E-01   -0.1633520989E-01
    Multipole Hellmann-Feynman    :    -0.2623961139E+02   -0.2623956756E+02   -0.2623956756E+02   -0.2861162863E-01   -0.2861163017E-01   -0.2861313467E-01
    On-site Multipole corrections :    -0.1145490693E+00   -0.1145490749E+00   -0.1145490749E+00    0.1050773959E-04    0.1050773633E-04    0.1050836411E-04
    Strain deriv. of the orbitals :     0.3184072508E+02    0.3184073679E+02    0.3184073679E+02    0.3561638782E-01    0.3561638954E-01    0.3561792828E-01
  -----------------------------------------------------------------------------------------------------------------------------------------------------------
  Sum of all contributions        :    -0.7417888585E-02   -0.7423474611E-02   -0.7423475669E-02   -0.9319347443E-02   -0.9319347870E-02   -0.9319907914E-02

  +-------------------------------------------------------------------+
  |              Analytical stress tensor - Symmetrized               |
  |                  Cartesian components [eV/A**3]                   |
  +-------------------------------------------------------------------+
  |                x                y                z                |
  |                                                                   |
  |  x        -0.00046772      -0.00058761      -0.00058761           |
  |  y        -0.00058761      -0.00046807      -0.00058765           |
  |  z        -0.00058761      -0.00058765      -0.00046807           |
  |                                                                   |
  |  Pressure:       0.00046795   [eV/A**3]                           |
  |                                                                   |
  +-------------------------------------------------------------------+

 * Warning: Stress tensor is anisotropic. Be aware that pressure is an isotropic quantity.


  Self-consistency convergence accuracy:
  | Change of charge density      :  0.3587E-07
  | Change of sum of eigenvalues  : -0.5462E-05 eV
  | Change of total energy        :  0.1258E-08 eV
  | Change of forces              :  0.3746E-08 eV/A

  Writing Kohn-Sham eigenvalues.
  K-point:       1 at    0.000000    0.000000    0.000000 (in units of recip. lattice)

  State    Occupation    Eigenvalue [Ha]    Eigenvalue [eV]
      1       2.00000         -55.415369        -1507.92892
      2       2.00000          -3.985614         -108.45407
      3       2.00000          -2.595643          -70.63105
      4       2.00000          -2.595643          -70.63105
      5       2.00000          -2.595629          -70.63065
      6       2.00000          -0.634587          -17.26799
      7       0.00000           0.255801            6.96071
      8       0.00000           0.255802            6.96071
      9       0.00000           0.258172            7.02522
     10       0.00000           0.335426            9.12741

  What follows are estimated values for band gap, HOMO, LUMO, etc.
  | They are estimated on a discrete k-point grid and not necessarily exact.
  | For converged numbers, create a DOS and/or band structure plot on a denser k-grid.

  Highest occupied state (VBM) at     -6.09537100 eV (relative to internal zero)
  | Occupation number:      1.78074233
  | K-point:     780 at    0.750000    0.500000    0.583333 (in units of recip. lattice)

  Lowest unoccupied state (CBM) at    -5.94334196 eV (relative to internal zero)
  | Occupation number:      0.35678375
  | K-point:     250 at    0.166667    0.583333    0.500000 (in units of recip. lattice)

  ESTIMATED overall HOMO-LUMO gap:      0.15202904 eV between HOMO at k-point 780 and LUMO at k-point 250
  | This appears to be an indirect band gap.
  | Smallest direct gap :      1.01347213 eV for k_point 779 at    0.166667    0.583333    0.500000 (in units of recip. lattice)
  However, this system has fractional occupation numbers. Since we use a finite k-point grid,
  this material is metallic within the approximate finite broadening function (occupation_type)
  applied to determine the occupation numbers.

  Self-consistency cycle converged.

  End self-consistency iteration #     7       :  max(cpu_time)    wall_clock(cpu1)
  | Time for this iteration                    :        3.648 s           3.667 s
  | Charge density & force component update    :        3.208 s           3.221 s
  | Density mixing                             :        0.000 s           0.000 s
  | Hartree multipole update                   :        0.001 s           0.001 s
  | Hartree multipole summation                :        0.278 s           0.280 s
  | Integration                                :        0.099 s           0.101 s
  | Solution of K.-S. eqns.                    :        0.062 s           0.063 s
  | Total energy evaluation                    :        0.001 s           0.000 s

  Partial memory accounting:
  | Current value for overall tracked memory usage on task 0  :           1.795 MB
  | Peak value for overall tracked memory usage on task 0     :          15.447 MB after allocating wave_pulay
  | Largest tracked array allocation on task 0 so far         :           3.135 MB  when allocating density_matrix_con
  Note:  These values currently only include a subset of arrays which are explicitly tracked.
  The "true" memory usage will be greater.
------------------------------------------------------------
  |------------------------------------------
  | Final ELSI Output
  |------------------------------------------
  | Number of basis functions :           18
  | Number of electrons       :         13.0
  | Number of states          :           10
  | Solver                    :         ELPA
  | Parallel mode             :  SINGLE_PROC
  | Matrix format             :  BLACS_DENSE
  |------------------------------------------
  | ELSI Project (c)  elsi-interchange.org
  |------------------------------------------
  Removing unitary transformations (pure translations, rotations) from forces on atoms.
  Atomic forces before filtering:
  | Net force on center of mass :   0.111766E-07 -0.516755E-08  0.288684E-08 eV/A
  Atomic forces after filtering:
  | Net force on center of mass :   0.000000E+00  0.000000E+00  0.000000E+00 eV/A

  Energy and forces in a compact form:
  | Total energy uncorrected      :         -0.658943852980281E+04 eV
  | Total energy corrected        :         -0.658943939945548E+04 eV  <-- do not rely on this value for anything but (periodic) metals
  | Electronic free energy        :         -0.658944026910815E+04 eV
  Total atomic forces (unitary forces cleaned) [eV/Ang]:
  |   1          0.000000000000000E+00          0.000000000000000E+00          0.000000000000000E+00

  ------------------------------------ 
  Start decomposition of the XC Energy 
  ------------------------------------ 
  X and C from original XC functional choice 
  Hartree-Fock Energy :          0.000000000 Ha              0.000000000 eV
  X Energy            :        -16.727656676 Ha           -455.182697598 eV
  C Energy            :         -0.989769867 Ha            -26.933008425 eV
  Total XC Energy     :        -17.717426543 Ha           -482.115706023 eV
  ------------------------------------ 
  LDA X and C from self-consistent density 
  X Energy LDA        :        -16.727656676 Ha           -455.182697598 eV
  C Energy LDA        :         -0.989769867 Ha            -26.933008425 eV
  ------------------------------------ 
  End decomposition of the XC Energy 
  ------------------------------------ 

------------------------------------------------------------
  Relaxation / MD: End force evaluation.       :  max(cpu_time)    wall_clock(cpu1)
  | Time for this force evaluation             :        6.156 s           6.247 s

------------------------------------------------------------
  Geometry optimization: Attempting to predict improved coordinates.

  +-------------------------------------------------------------------+
  | Generalized derivatives on lattice vectors [eV/A]                 |
  +-------------------------------------------------------------------+
  |lattice_vector      -0.00186299      -0.00186425      -0.00281463  |
  |lattice_vector      -0.00281589      -0.00186453      -0.00186453  |
  |lattice_vector      -0.00186299      -0.00281463      -0.00186425  |
  +-------------------------------------------------------------------+
  | Forces on lattice vectors cleaned from atomic contributions [eV/A]|
  +-------------------------------------------------------------------+
  |lattice_vector       0.00186299       0.00186425       0.00281463  |
  |lattice_vector       0.00281589       0.00186453       0.00186453  |
  |lattice_vector       0.00186299       0.00281463       0.00186425  |
  +-------------------------------------------------------------------+
  Removing unitary transformations (pure translations, rotations) from forces on atoms.
  Atomic forces before filtering:
  | Net force on center of mass :   0.000000E+00  0.000000E+00  0.000000E+00 eV/A
  Atomic forces after filtering:
  | Net force on center of mass :   0.000000E+00  0.000000E+00  0.000000E+00 eV/A
  || Forces on lattice vectors || =   0.281589E-02 eV/A.
  Net remaining forces (excluding translations, rotations) in present geometry:
  Maximum force component is  0.281589E-02 eV/A.
  Present geometry is converged.

------------------------------------------------------------
  Final atomic structure:
                         x [A]             y [A]             z [A]
  lattice_vector         1.99283074        1.99283105       -0.00261223
  lattice_vector        -0.00261192        1.99283106        1.99283106
  lattice_vector         1.99283074       -0.00261223        1.99283105

            atom         0.00000000        0.00000000        0.00000000  Al

  Fractional coordinates:
                         L1                L2                L3
       atom_frac         0.00000000        0.00000000        0.00000000  Al
------------------------------------------------------------

------------------------------------------------------------------------------
  Final output of selected total energy values:

  The following output summarizes some interesting total energy values
  at the end of a run (AFTER all relaxation, molecular dynamics, etc.).

  | Total energy of the DFT / Hartree-Fock s.c.f. calculation      :          -6589.438529803 eV
  | Final zero-broadening corrected energy (caution - metals only) :          -6589.439399455 eV
  | For reference only, the value of 1 Hartree used in FHI-aims is :             27.211384500 eV

  Before relying on these values, please be sure to understand exactly which
  total energy value is referred to by a given number. Different objects may
  all carry the same name 'total energy'. Definitions:

  Total energy of the DFT / Hartree-Fock s.c.f. calculation:
  | Note that this energy does not include ANY quantities calculated after the
  | s.c.f. cycle, in particular not ANY RPA, MP2, etc. many-body perturbation terms.

  Final zero-broadening corrected energy:
  | For metallic systems only, a broadening of the occupation numbers at the Fermi
  | level can be extrapolated back to zero broadening by an electron-gas inspired
  | formula. For all systems that are not real metals, this value can be
  | meaningless and should be avoided.

------------------------------------------------------------------------------
  Methods described in the following list of references were used in this FHI-aims run.
  If you publish the results, please make sure to cite these reference if they apply.
  FHI-aims is an academic code, and for our developers (often, Ph.D. students
  and postdocs), scientific credit in the community is essential.
  Thank you for helping us!

  For any use of FHI-aims, please cite:

    Volker Blum, Ralf Gehrke, Felix Hanke, Paula Havu, Ville Havu,
    Xinguo Ren, Karsten Reuter, and Matthias Scheffler
    'Ab initio molecular simulations with numeric atom-centered orbitals'
    Computer Physics Communications 180, 2175-2196 (2009)
    http://dx.doi.org/10.1016/j.cpc.2009.06.022


  For the analytical stress tensor used in your run, please cite:

    Franz Knuth, Christian Carbogno, Viktor Atalla, Volker Blum, Matthias Scheffler
    'All-electron formalism for total energy strain derivatives and
    stress tensor components for numeric atom-centered orbitals'
    Computer Physics Communications 190, 33-50 (2015).
    http://dx.doi.org/10.1016/j.cpc.2015.01.003


  The provided symmetry information was generated with SPGlib:

    Atsushi Togo, Yusuke Seto, Dimitar Pashov
    SPGlib 1.7.3 obtained from http://spglib.sourceforge.net
    Copyright (C) 2008 Atsushi Togo


  The scalable eigensolver library ELPA was used in your run.
  ELPA is essential especially for large systems on hundreds or thousands of CPUs.
  For ELPA, please cite:

    Andreas Marek, Volker Blum, Rainer Johanni, Ville Havu, Bruno Lang,
    Thomas Auckenthaler, Alexander Heinecke, Hans-Joachim Bungartz, and Hermann Lederer,
    'The ELPA Library - Scalable Parallel Eigenvalue Solutions
    for Electronic Structure Theory and Computational Science'
    The Journal of Physics: Condensed Matter 26, 213201 (2014).
    http://dx.doi.org/10.1088/0953-8984/26/21/213201


  The ELSI infrastructure was used in your run to solve the Kohn-Sham electronic structure.
  Please check out http://elsi-interchange.org to learn more.
  If scalability is important for your project, please acknowledge ELSI by citing:

    V. W-z. Yu, F. Corsetti, A. Garcia, W. P. Huhn, M. Jacquelin, W. Jia,
    B. Lange, L. Lin, J. Lu, W. Mi, A. Seifitokaldani, A. Vazquez-Mayagoitia,
    C. Yang, H. Yang, and V. Blum
    'ELSI: A unified software interface for Kohn-Sham electronic structure solvers'
    Computer Physics Communications 222, 267-285 (2018).
    http://dx.doi.org/10.1016/j.cpc.2017.09.007


  For the real-space grid partitioning and parallelization used in this calculation, please cite:

    Ville Havu, Volker Blum, Paula Havu, and Matthias Scheffler,
    'Efficient O(N) integration for all-electron electronic structure calculation'
    'using numerically tabulated basis functions'
    Journal of Computational Physics 228, 8367-8379 (2009).
    http://dx.doi.org/10.1016/j.jcp.2009.08.008

  Of course, there are many other important community references, e.g., those cited in the
  above references. Our list is limited to references that describe implementations in the
  FHI-aims code. The reason is purely practical (length of this list) - please credit others as well.

------------------------------------------------------------
          Leaving FHI-aims.
          Date     :  20171223, Time     :  140323.170

          Computational steps:
          | Number of self-consistency cycles          :           28
          | Number of SCF (re)initializations          :            3
          | Number of relaxation steps                 :            2

          Detailed time accounting                     :  max(cpu_time)    wall_clock(cpu1)
          | Total time                                 :       20.767 s          21.133 s
          | Preparation time                           :        0.128 s           0.137 s
          | Boundary condition initalization           :        0.229 s           0.234 s
          | Grid partitioning                          :        0.028 s           0.031 s
          | Preloading free-atom quantities on grid    :        0.089 s           0.093 s
          | Free-atom superposition energy             :        0.026 s           0.028 s
          | Total time for integrations                :        3.056 s           3.131 s
          | Total time for solution of K.-S. equations :        1.841 s           1.904 s
          | Total time for EV reorthonormalization     :        0.032 s           0.032 s
          | Total time for density & force components  :       11.676 s          11.772 s
          | Total time for mixing & preconditioning    :        0.175 s           0.179 s
          | Total time for Hartree multipole update    :        0.014 s           0.013 s
          | Total time for Hartree multipole sum       :        3.234 s           3.295 s
          | Total time for total energy evaluation     :        0.012 s           0.007 s
          | Total time for scaled ZORA corrections     :        0.000 s           0.000 s

          Partial memory accounting:
          | Residual value for overall tracked memory usage across tasks :           0.000 MB (should be 0.000 MB)
          | Peak values for overall tracked memory usage (after allocating wave_pulay):
          |   Minimum:       15.271 MB (on task 2)
          |   Maximum:       15.914 MB (on task 3)
          |   Average:       15.496 MB
          | Largest tracked array allocation (density_matrix_con):
          |   Minimum:        3.075 MB (on task 4)
          |   Maximum:        3.339 MB (on task 3)
          |   Average:        3.163 MB
          Note:  These values currently only include a subset of arrays which are explicitly tracked.
          The "true" memory usage will be greater.

          Have a nice day.
------------------------------------------------------------
