  MPI-parallelism will be employed.
------------------------------------------------------------
          Invoking FHI-aims ...

          When using FHI-aims, please cite the following reference:

          Volker Blum, Ralf Gehrke, Felix Hanke, Paula Havu,
          Ville Havu, Xinguo Ren, Karsten Reuter, and Matthias Scheffler,
          'Ab Initio Molecular Simulations with Numeric Atom-Centered Orbitals',
          Computer Physics Communications 180, 2175-2196 (2009)

          For any questions about FHI-aims, please visit the aimsclub website
          with its forums and wiki. Contributions to both the forums and the
          wiki are warmly encouraged - they are for you, and everyone is welcome there.

------------------------------------------------------------



  Date     :  20190817, Time     :  154526.047
  Time zero on CPU 1             :   0.353000000000000E-01  s.
  Internal wall clock time zero  :           335288726.047  s.

  FHI-aims created a unique identifier for this run for later identification
  aims_uuid : 1803A765-BB0A-4DF0-A144-DF11EE2C1AA9

  Build configuration of the current instance of FHI-aims
  -------------------------------------------------------
  FHI-aims version      : 190813
  Commit number         : 3da7baeb3
  CMake host system     : Linux-4.4.180-94.97-default
  CMake version         : 3.5.2
  Fortran compiler      : /mpcdf/soft/SLE_12_SP3/packages/x86_64/intel_parallel_studio/2018.4/compilers_and_libraries_2018.5.274/linux/mpi/bin64/mpiifort (Intel) version 18.0.5.20180823
  Fortran compiler flags: -O3 -ip -fp-model precise
  C compiler            : /mpcdf/soft/SLE_12_SP3/packages/skylake/intel/18.0.5/bin/icc (Intel) version 18.0.5.20180823
  C compiler flags      : -O3 -ip -fp-model precise
  Architecture          :
  Using MPI
  Using Scalapack
  Using C files
  Using SPGlib
  Using i-PI
  Linking against: /mpcdf/soft/SLE_12_SP3/packages/x86_64/anaconda/3.5.1.0/lib/libmkl_intel_lp64.so
                   /mpcdf/soft/SLE_12_SP3/packages/x86_64/anaconda/3.5.1.0/lib/libmkl_sequential.so
                   /mpcdf/soft/SLE_12_SP3/packages/x86_64/anaconda/3.5.1.0/lib/libmkl_core.so
                   /mpcdf/soft/SLE_12_SP3/packages/x86_64/anaconda/3.5.1.0/lib/libmkl_blacs_intelmpi_lp64.so
                   /mpcdf/soft/SLE_12_SP3/packages/x86_64/anaconda/3.5.1.0/lib/libmkl_scalapack_lp64.so

  Using        8 parallel tasks.
  Task        0 on host co1631 reporting.
  Task        1 on host co1631 reporting.
  Task        2 on host co1631 reporting.
  Task        3 on host co1631 reporting.
  Task        4 on host co1631 reporting.
  Task        5 on host co1631 reporting.
  Task        6 on host co1631 reporting.
  Task        7 on host co1631 reporting.

  Performing system and environment tests:
  | Environment variable OMP_NUM_THREADS correctly set to 1.
  | Maximum stacksize for task 0: unlimited
  | Maximum stacksize for task 1: unlimited
  | Maximum stacksize for task 2: unlimited
  | Maximum stacksize for task 3: unlimited
  | Maximum stacksize for task 4: unlimited
  | Maximum stacksize for task 5: unlimited
  | Maximum stacksize for task 6: unlimited
  | Maximum stacksize for task 7: unlimited
  | Current stacksize for task 0: unlimited
  | Current stacksize for task 1: unlimited
  | Current stacksize for task 2: unlimited
  | Current stacksize for task 3: unlimited
  | Current stacksize for task 4: unlimited
  | Current stacksize for task 5: unlimited
  | Current stacksize for task 6: unlimited
  | Current stacksize for task 7: unlimited
  | Checking for scalapack...
  | Testing pdtran()...
  | All pdtran() tests passed.

  Obtaining array dimensions for all initial allocations:
  
  -----------------------------------------------------------------------
  Parsing control.in (first pass over file, find array dimensions only).
  The contents of control.in will be repeated verbatim below
  unless switched off by setting 'verbatim_writeout .false.' .
  in the first line of control.in .
  -----------------------------------------------------------------------
  
  xc               pw-lda
  sc_accuracy_rho  1e-5
  k_grid           4 4 4
  relax_geometry   trm 1e-2
  relax_unit_cell  full
  
  occupation_type  gaussian 0.1
  mixer            pulay
    n_max_pulay             8
    charge_mix_param        0.4
  
  ################################################################################
  #
  #  FHI-aims code project
  #  VB, Fritz-Haber Institut, 2009
  #
  #  Suggested "light" defaults for Si atom (to be pasted into control.in file)
  #  Be sure to double-check any results obtained with these settings for post-processing,
  #  e.g., with the "tight" defaults and larger basis sets.
  #
  ################################################################################
    species        Si
  #     global species definitions
      nucleus             14
      mass                28.0855
  #
      l_hartree           4
  #
      cut_pot             3.5          1.5  1.0
      basis_dep_cutoff    1e-4
  #
      radial_base         42 5.0
      radial_multiplier   1
      angular_grids       specified
        division   0.5866   50
        division   0.9616  110
        division   1.2249  194
        division   1.3795  302
  #      division   1.4810  434
  #      division   1.5529  590
  #      division   1.6284  770
  #      division   1.7077  974
  #      division   2.4068 1202
  #      outer_grid   974
        outer_grid 302
  ################################################################################
  #
  #  Definition of "minimal" basis
  #
  ################################################################################
  #     valence basis states
      valence      3  s   2.
      valence      3  p   2.
  #     ion occupancy
      ion_occ      3  s   1.
      ion_occ      3  p   1.
  ################################################################################
  #
  #  Suggested additional basis functions. For production calculations,
  #  uncomment them one after another (the most important basis functions are
  #  listed first).
  #
  #  Constructed for dimers: 1.75 A, 2.0 A, 2.25 A, 2.75 A, 3.75 A
  #
  ################################################################################
  #  "First tier" - improvements: -571.96 meV to -37.03 meV
       hydro 3 d 4.2
       hydro 2 p 1.4
  #     hydro 4 f 6.2
       ionic 3 s auto
  #  "Second tier" - improvements: -16.76 meV to -3.03 meV
  #     hydro 3 d 9
  #     hydro 5 g 9.4
  #     hydro 4 p 4
  #     hydro 1 s 0.65
  #  "Third tier" - improvements: -3.89 meV to -0.60 meV
  #     ionic 3 d auto
  #     hydro 3 s 2.6
  #     hydro 4 f 8.4
  #     hydro 3 d 3.4
  #     hydro 3 p 7.8
  #  "Fourth tier" - improvements: -0.33 meV to -0.11 meV
  #     hydro 2 p 1.6
  #     hydro 5 g 10.8
  #     hydro 5 f 11.2
  #     hydro 3 d 1
  #     hydro 4 s 4.5
  #  Further basis functions that fell out of the optimization - noise
  #  level... < -0.08 meV
  #     hydro 4 d 6.6
  #     hydro 5 g 16.4
  #     hydro 4 d 9
  
  -----------------------------------------------------------------------
  Completed first pass over input file control.in .
  -----------------------------------------------------------------------
  
  
  -----------------------------------------------------------------------
  Parsing geometry.in (first pass over file, find array dimensions only).
  The contents of geometry.in will be repeated verbatim below
  unless switched off by setting 'verbatim_writeout .false.' .
  in the first line of geometry.in .
  -----------------------------------------------------------------------
  
  lattice_vector 0.00 2.74 2.74
  lattice_vector 2.74 0.00 2.74
  lattice_vector 2.74 2.74 0.00
  atom_frac  0.00 0.00 0.00 Si
    constrain_relaxation .true.
  atom_frac 0.251 0.25 0.25 Si
  
  -----------------------------------------------------------------------
  Completed first pass over input file geometry.in .
  -----------------------------------------------------------------------
  

  Basic array size parameters:
  | Number of species                 :        1
  | Number of atoms                   :        2
  | Number of lattice vectors         :        3
  | Max. basis fn. angular momentum   :        2
  | Max. atomic/ionic basis occupied n:        3
  | Max. number of basis fn. types    :        3
  | Max. radial fns per species/type  :        5
  | Max. logarithmic grid size        :     1346
  | Max. radial integration grid size :       42
  | Max. angular integration grid size:      302
  | Max. angular grid division number :        8
  | Radial grid for Hartree potential :     1346
  | Number of spin channels           :        1

------------------------------------------------------------
          Reading file control.in.
------------------------------------------------------------
  XC: Using Perdew-Wang parametrisation of Ceperley-Alder LDA.
  Convergence accuracy of self-consistent charge density:  0.1000E-04
  Found k-point grid:         4         4         4
  Geometry relaxation: Modified BFGS - TRM (trust radius method) for lattice optimization.
  Convergence accuracy for geometry relaxation: Maximum force <   0.100000E-01 eV/A.
  Occupation type: Gaussian broadening, width =   0.100000E+00 eV.
  Using pulay charge density mixing.
  Pulay mixing - number of memorized iterations:    8
  Charge density mixing - mixing parameter:     0.4000
 
  Reading configuration options for species Si                  .
  | Found nuclear charge :  14.0000
  | Found atomic mass :    28.0855000000000      amu
  | Found l_max for Hartree potential  :   4
  | Found cutoff potl. onset [A], width [A], scale factor :    3.50000    1.50000    1.00000
  | Threshold for basis-dependent cutoff potential is   0.100000E-03
  | Found data for basic radial integration grid :    42 points, outermost radius =    5.000 A
  | Found multiplier for basic radial grid :   1
  | Found angular grid specification: user-specified.
  | Specified grid contains     5 separate shells.
  | Check grid settings after all constraints further below.
  | Found free-atom valence shell :  3 s   2.000
  | Found free-atom valence shell :  3 p   2.000
  | Found free-ion valence shell :  3 s   1.000
  | Found free-ion valence shell :  3 p   1.000
  | Found hydrogenic basis function :  3 d   4.200
  | Found hydrogenic basis function :  2 p   1.400
  | Found ionic basis function :  3 s , default cutoff radius.
  Species Si                  : Missing cutoff potential type.
  Defaulting to exp(1/x)/(1-x)^2 type cutoff potential.
  Species Si: No 'logarithmic' tag. Using default grid for free atom:
  | Default logarithmic grid data [bohr] : 0.1000E-03 0.1000E+03 0.1012E+01
  | Will include ionic basis functions of  2.0-fold positive Si                   ion.
  Species Si: On-site basis accuracy parameter (for Gram-Schmidt orthonormalisation) not specified.
  Using default value basis_acc =  0.1000000E-03.
  Species Si                  : Using default innermost maximum threshold i_radial=  2 for radial functions.
  Species Si                  : Default cutoff onset for free atom density etc. : 0.35000000E+01 AA.
  Species Si                  : Basic radial grid will be enhanced according to radial_multiplier =   1, to contain    42 grid points.
 
  Finished reading input file 'control.in'. Consistency checks are next.
 
  MPI_IN_PLACE appears to work with this MPI implementation.
  | Keeping use_mpi_in_place .true. (see manual).
  Target number of points in a grid batch is not set. Defaulting to  100
  Method for grid partitioning is not set. Defaulting to parallel hash+maxmin partitioning.
  Batch size limit is not set. Defaulting to    200
  By default, will store active basis functions for each batch.
  If in need of memory, prune_basis_once .false. can be used to disable this option.
  communication_type for Hartree potential was not specified.
  Defaulting to calc_hartree .
  Pulay mixer: Number of initial linear mixing iterations not set.
  Defaulting to    0 iterations.
  Work space size for distributed Hartree potential not set.
  Defaulting to   0.200000E+03 MB.
  Algorithm-dependent basis array size parameters:
  | n_max_pulay                         :        8
  Maximum number of self-consistency iterations not provided.
  Presetting  1000 iterations.
  Presetting      1001 iterations before the initial mixing cycle
  is restarted anyway using the sc_init_iter criterion / keyword.
  Presetting a factor      1.000 between actual scf density residual
  and density convergence criterion sc_accuracy_rho below which sc_init_iter
  takes no effect.
  No maximum number of relaxation steps, defaulting to     1000
  Default initial Hessian is Lindh matrix (thres = 15.00) plus  0.200000E+01 eV/A^2 times unity.
  No maximum energy tolerance for TRM/BFGS moves, defaulting to   0.100000E-02
  Maximum energy tolerance by which TRM/BFGS trajectory may increase over multiple steps:   0.300000E-02
  No harmonic length scale. Defaulting to   0.250000E-01 A.
  No trust radius initializer. Defaulting to   0.200000E+00 A.
  Unit cell relaxation: Unit cell will be relaxed fully.
  Unit cell relaxation: Analytical stress will be used.
  Analytical stress will be computed.
  Analytical stress calculation: Only the upper triangle is calculated.
                                 Final output is symmetrized.
  Analytical stress calculation: scf convergence accuracy of stress not set.
                                 Analytical stress self-consistency will not be checked explicitly.
                                 Be sure to set other criteria like sc_accuracy_rho tight enough.
  Force calculation: scf convergence accuracy of forces not set.
  Defaulting to 'sc_accuracy_forces not_checked'.
  Handling of forces: Unphysical translation and rotation will be removed from forces.
  No accuracy limit for integral partition fn. given. Defaulting to  0.1000E-14.
  No threshold value for u(r) in integrations given. Defaulting to  0.1000E-05.
  No accuracy for occupation numbers given. Defaulting to  0.1000E-12.
  No threshold value for occupation numbers given. Defaulting to  0.0000E+00.
  No accuracy for fermi level given. Defaulting to  0.1000E-19.
  Maximum # of iterations to find E_F not set. Defaulting to  200.
  Preferred method for the eigenvalue solver ('KS_method') not specified in 'control.in'.
  Defaulting to serial version, LAPACK (via ELSI), since more k-points than CPUs available.
  Will not use alltoall communication since running on < 1024 CPUs.
  Threshold for basis singularities not set.
  Default threshold for basis singularities:  0.1000E-04
  partition_type (choice of integration weights) for integrals was not specified.
  | Using a version of the partition function of Stratmann and coworkers ('stratmann_sparse').
  | At each grid point, the set of atoms used to build the partition table is smoothly restricted to
  | only those atoms whose free-atom density would be non-zero at that grid point.
  Partitioning for Hartree potential was not defined. Using partition_type for integrals.
  | Adjusted default value of keyword multip_moments_threshold to:       0.10000000E-11
  | This value may affect high angular momentum components of the Hartree potential in periodic systems.
  Spin handling was not defined in control.in. Defaulting to unpolarized case.
  Angular momentum expansion for Kerker preconditioner not set explicitly.
  | Using default value of   0
  No explicit requirement for turning off preconditioner.
  | By default, it will be turned off when the charge convergence reaches
  | sc_accuracy_rho  =   0.100000E-04
  No special mixing parameter while Kerker preconditioner is on.
  Using default: charge_mix_param =     0.4000.
  No q(lm)/r^(l+1) cutoff set for long-range Hartree potential.
  | Using default value of  0.100000E-09 .
  | Verify using the multipole_threshold keyword.
  Defaulting to new monopole extrapolation.
  Density update method: automatic selection selected.
  Using density matrix based charge density update.
  Using density matrix based charge density update.
  Using packed matrix style: index .
  Geometry relaxation: A file "geometry.in.next_step" is written out by default after each step.
  | This file contains the geometry of the current relaxation step as well as
  | the current Hessian matrix needed to restart the relaxation algorithm.
  | If you do not want part or all of this information, use the keywords
  | "write_restart_geometry" or "hessian_to_restart_geometry" to switch the output off.
  Defaulting to use time-reversal symmetry for k-point grid.
  Charge integration errors on the 3D integration grid will be compensated
  by explicit normalization and distribution of residual charges.
  Use the "compensate_multipole_errors" flag to change this behaviour.
------------------------------------------------------------


------------------------------------------------------------
          Reading geometry description geometry.in.
------------------------------------------------------------
  Found relaxation constraint for atom      1: All coordinates fixed.
 * Warning! You did not set the 'relativistic' flag in input file 'control.in'.
 * Since you are not attempting to treat any elements beyond Ca(Z=20), FHI-aims
 * will default to 'relativistic none'.
 * You must ensure that this is really what you want!!
 * For example, DO NOT compute total-energy differences between results from
 * different settings of the 'relativistic' flag.
  Input structure read successfully.
  The structure contains        2 atoms,  and a total of         28.000 electrons.

  Input geometry:
  | Unit cell:
  |        0.00000000        2.74000000        2.74000000
  |        2.74000000        0.00000000        2.74000000
  |        2.74000000        2.74000000        0.00000000
  | Atomic structure:
  |       Atom                x [A]            y [A]            z [A]
  |    1: Species Si            0.00000000        0.00000000        0.00000000
  |    2: Species Si            1.37000000        1.37274000        1.37274000

  Lattice parameters for 3D lattice (in Angstroms) :     3.874945    3.874945    3.874945
  Angle(s) between unit vectors (in degrees)       :    60.000000   60.000000   60.000000

  | The smallest distance between any two atoms is         2.36974678 AA.
  | The first atom of this pair is atom number                      1 .
  | The second atom of this pair is atom number                     2 .
  | Wigner-Seitz cell of the first atom image           1     0     0 .
  | (The Wigner-Seitz cell of the second atom is 0 0 0  by definition.)

  Symmetry information by spglib:
  | Precision set to  0.1E-04
  | Number of Operations  : 4
  | Space group           : 12
  | International         : C2/m
  | Schoenflies           : C2h^3

  Quantities derived from the lattice vectors:
  | Reciprocal lattice vector 1: -1.146567  1.146567  1.146567
  | Reciprocal lattice vector 2:  1.146567 -1.146567  1.146567
  | Reciprocal lattice vector 3:  1.146567  1.146567 -1.146567
  | Unit cell volume                               :   0.411416E+02  A^3

  Range separation radius for Ewald summation (hartree_convergence_parameter):      3.92761909 bohr.

  Fractional coordinates:
                         L1                L2                L3
       atom_frac         0.00000000        0.00000000        0.00000000  Si
       atom_frac         0.25100000        0.25000000        0.25000000  Si

  Number of empty states per atom not set in control.in - providing a guess from actual geometry.
  | Total number of empty states used during s.c.f. cycle:        6
  If you use a very high smearing, use empty_states (per atom!) in control.in to increase this value.

  Structure-dependent array size parameters: 
  | Maximum number of distinct radial functions  :        8
  | Maximum number of basis functions            :       36
  | Number of Kohn-Sham states (occupied + empty):       20
------------------------------------------------------------

------------------------------------------------------------
          Preparing all fixed parts of the calculation.
------------------------------------------------------------
  Determining machine precision:
    2.225073858507201E-308
  Setting up grids for atomic and cluster calculations.

  Creating wave function, potential, and density for free atoms.

  Species: Si

  List of occupied orbitals and eigenvalues:
    n    l              occ      energy [Ha]    energy [eV]
    1    0           2.0000       -65.172154     -1773.4245
    2    0           2.0000        -5.063250      -137.7780
    3    0           2.0000        -0.389854       -10.6085
    2    1           6.0000        -3.503088       -95.3239
    3    1           2.0000        -0.144317        -3.9271

  Creating fixed part of basis set: Ionic, confined, hydrogenic.
 
  Si                   ion:

  List of free ionic orbitals and eigenvalues:
    n    l      energy [Ha]    energy [eV]
    1    0       -66.042358     -1797.1040
    2    0        -5.909940      -160.8177
    3    0        -1.075552       -29.2673
    2    1        -4.350945      -118.3952
    3    1        -0.781825       -21.2745


  List of ionic basis orbitals and eigenvalues:
    n    l      energy [Ha]    energy [eV]    outer radius [A]
    3    0        -1.075532       -29.2667       4.214062

 
  Si                   hydrogenic:
 
  List of hydrogenic basis orbitals: 
    n    l      effective z      eigenvalue [eV]  inner max. [A]     outer max. [A]     outer radius [A]   
    3    2         4.200000       -26.6624           1.139231           1.139231           4.534782
    2    1         1.400000        -6.4613           1.472672           1.472672           4.590560
 

  Adding cutoff potential to free-atom effective potential.
  Creating atomic-like basis functions for current effective potential.

  Species Si                  :

  List of atomic basis orbitals and eigenvalues:
    n    l      energy [Ha]    energy [eV]    outer radius [A]
    1    0       -65.172154     -1773.4245       0.789468
    2    0        -5.063250      -137.7780       2.815114
    3    0        -0.389854       -10.6085       4.534782
    2    1        -3.503088       -95.3239       3.259919
    3    1        -0.144317        -3.9271       4.590560

  Assembling full basis from fixed parts.
  | Species Si :   atomic orbital   1 s accepted.
  | Species Si :   atomic orbital   2 s accepted.
  | Species Si :    ionic orbital   3 s accepted.
  | Species Si :   atomic orbital   3 s accepted.
  | Species Si :   atomic orbital   2 p accepted.
  | Species Si :   atomic orbital   3 p accepted.
  | Species Si :    hydro orbital   2 p accepted.
  | Species Si :    hydro orbital   3 d accepted.
 
  Basis size parameters after reduction:
  | Total number of radial functions:        8
  | Total number of basis functions :       36
 
  Per-task memory consumption for arrays in subroutine allocate_ext:
  |           2.068716MB.
  Testing on-site integration grid accuracy.
  |  Species  Function  <phi|h_atom|phi> (log., in eV)  <phi|h_atom|phi> (rad., in eV)
           1        1              -1773.4245382485              -1773.4238465557
           1        2               -137.7780422334               -137.7780383875
           1        3                -10.2584966028                -10.2583645750
           1        4                  5.0172755718                  4.9378117642 ***
           1        5                -95.3238759277                -95.3238759093
           1        6                 -3.9367923774                 -3.9521708118
           1        7                  6.3364624620                  6.1540591176 ***
           1        8                  6.2680607190                  6.2659437726
 * Note: Onsite integrals marked "***" above are less accurate than
 * onsite_accuracy_threshold =    0.03000 eV. Usually, this is harmless.
 * When in doubt, tighten the "radial" and/or "radial_multiplier" flags to check.

  Preparing densities etc. for the partition functions (integrals / Hartree potential).

  Preparations completed.
  max(cpu_time)          :      0.152 s.
  Wall clock time (cpu1) :      0.152 s.
------------------------------------------------------------

------------------------------------------------------------
          Begin self-consistency loop: Initialization.

          Date     :  20190817, Time     :  154526.248
------------------------------------------------------------

  Initializing index lists of integration centers etc. from given atomic structure:
  Mapping all atomic coordinates to central unit cell.

  Initializing the k-points
          Using symmetry for reducing the k-points
  | k-points reduced from:       64 to       36
  | Number of k-points                             :        36
  The eigenvectors in the calculations are COMPLEX.
  | K-points in task   0:         4
  | K-points in task   1:         5
  | K-points in task   2:         5
  | K-points in task   3:         5
  | K-points in task   4:         5
  | K-points in task   5:         4
  | K-points in task   6:         4
  | K-points in task   7:         4
  | Number of basis functions in the Hamiltonian integrals :      1454
  | Number of basis functions in a single unit cell        :        36
  | Number of centers in hartree potential         :       732
  | Number of centers in hartree multipole         :       318
  | Number of centers in electron density summation:       198
  | Number of centers in basis integrals           :       198
  | Number of centers in integrals                 :       101
  | Number of centers in hamiltonian               :       198
  | Consuming         63 KiB for k_phase.
  | Number of super-cells (origin) [n_cells]                     :        2197
  | Number of super-cells (after PM_index) [n_cells]             :         112
  | Number of super-cells in hamiltonian [n_cells_in_hamiltonian]:         112
  | Size of matrix packed + index [n_hamiltonian_matrix_size] :       42487

  Initializing relaxation algorithms.
  Finished initialization of distributed Hessian storage.
  | Global dimension:        12
  | BLACS block size:         2
  | Number of workers:        6

  | Estimated reciprocal-space cutoff momentum G_max:         2.37569044 bohr^-1 .
  | Reciprocal lattice points for long-range Hartree potential:      58
  Partitioning the integration grid into batches with parallel hashing+maxmin method.
  | Number of batches:      153
  | Maximal batch size:     117
  | Minimal batch size:      50
  | Average batch size:      73.255
  | Standard deviation of batch sizes:      19.568

  Integration load balanced across     8 MPI tasks.
  Work distribution over tasks is as follows:
  Task     0 has       1437 integration points.
  Task     1 has       1400 integration points.
  Task     2 has       1390 integration points.
  Task     3 has       1413 integration points.
  Task     4 has       1399 integration points.
  Task     5 has       1411 integration points.
  Task     6 has       1388 integration points.
  Task     7 has       1370 integration points.
  Initializing partition tables, free-atom densities, potentials, etc. across the integration grid (initialize_grid_storage).
  | initialize_grid_storage: Actual outermost partition radius vs. multipole_radius_free
  | (-- VB: in principle, multipole_radius_free should be larger, hence this output)
  | Species        1: Confinement radius =              4.999999999999999 AA, multipole_radius_free =              5.000694715736543 AA.
  | Species        1: outer_partition_radius set to              5.000694715736543 AA .
  | The sparse table of interatomic distances needs        212.76 kbyte instead of       313.63 kbyte of memory.
  | Net number of integration points:    11208
  | of which are non-zero points    :     9820
  | Numerical average free-atom electrostatic potential    :    -12.81009910 eV
  Renormalizing the initial density to the exact electron count on the 3D integration grid.
  | Initial density: Formal number of electrons (from input files) :      28.0000000000
  | Integrated number of electrons on 3D grid     :      28.0047806735
  | Charge integration error                      :       0.0047806735
  | Normalization factor for density and gradient :       0.9998292908
  Renormalizing the free-atom superposition density to the exact electron count on the 3D integration grid.
  | Formal number of electrons (from input files) :      28.0000000000
  | Integrated number of electrons on 3D grid     :      28.0047806735
  | Charge integration error                      :       0.0047806735
  | Normalization factor for density and gradient :       0.9998292908
  Obtaining max. number of non-zero basis functions in each batch (get_n_compute_maxes).
  | Maximal number of non-zero basis functions:      464 in task     0
  | Maximal number of non-zero basis functions:      468 in task     1
  | Maximal number of non-zero basis functions:      426 in task     2
  | Maximal number of non-zero basis functions:      444 in task     3
  | Maximal number of non-zero basis functions:      472 in task     4
  | Maximal number of non-zero basis functions:      443 in task     5
  | Maximal number of non-zero basis functions:      464 in task     6
  | Maximal number of non-zero basis functions:      468 in task     7
  Allocating        0.044 MB for KS_eigenvector_complex
  Integrating Hamiltonian matrix: batch-based integration.
  Time summed over all CPUs for integration: real work        0.335 s, elapsed        0.345 s
  Integrating overlap matrix.
  Time summed over all CPUs for integration: real work        0.267 s, elapsed        0.276 s
  Decreasing sparse matrix size:
   Tolerance:  9.999999824516700E-014
   Hamiltonian matrix
  | Array has    38384 nonzero elements out of    42487 elements
  | Sparsity factor is 0.097
   Overlap matrix
  | Array has    36322 nonzero elements out of    42487 elements
  | Sparsity factor is 0.145
  New size of hamiltonian matrix:       38385

  Updating Kohn-Sham eigenvalues and eigenvectors using ELSI and the (modified) LAPACK eigensolver.
  Singularity check in k-point 8, task 0 (analysis for other k-points/tasks may follow below):
  Overlap matrix is not singular
  | Lowest and highest eigenvalues :  0.1302E-02,  0.5466E+01
  Finished singularity check of overlap matrix
  | Time :     0.000 s
  Starting LAPACK eigensolver
  Finished Cholesky decomposition
  | Time :     0.000 s
  Finished transformation to standard eigenproblem
  | Time :     0.001 s
  Finished solving standard eigenproblem
  | Time :     0.000 s
  Finished back-transformation of eigenvectors
  | Time :     0.000 s

  Obtaining occupation numbers and chemical potential using ELSI.
  | Chemical potential (Fermi level):    -5.78434604 eV
  Writing Kohn-Sham eigenvalues.
  K-point:       1 at    0.000000    0.000000    0.000000 (in units of recip. lattice)

  State    Occupation    Eigenvalue [Ha]    Eigenvalue [eV]
      1       2.00000         -65.192243        -1773.97119
      2       2.00000         -65.192243        -1773.97119
      3       2.00000          -5.088130         -138.45507
      4       2.00000          -5.087857         -138.44763
      5       2.00000          -3.527960          -96.00068
      6       2.00000          -3.527936          -96.00001
      7       2.00000          -3.527911          -95.99936
      8       2.00000          -3.527375          -95.98476
      9       2.00000          -3.527361          -95.98438
     10       2.00000          -3.527347          -95.98399
     11       2.00000          -0.658022          -17.90568
     12       2.00000          -0.232752           -6.33349
     13       2.00000          -0.232020           -6.31357
     14       2.00000          -0.231289           -6.29368
     15       0.00000          -0.129654           -3.52805
     16       0.00000          -0.129254           -3.51717
     17       0.00000          -0.128849           -3.50615
     18       0.00000          -0.117077           -3.18582
     19       0.00000           0.066242            1.80255
     20       0.00000           0.066245            1.80261

  What follows are estimated values for band gap, HOMO, LUMO, etc.
  | They are estimated on a discrete k-point grid and not necessarily exact.
  | For converged numbers, create a DOS and/or band structure plot on a denser k-grid.

  Highest occupied state (VBM) at     -6.29368213 eV (relative to internal zero)
  | Occupation number:      2.00000000
  | K-point:       1 at    0.000000    0.000000    0.000000 (in units of recip. lattice)

  Lowest unoccupied state (CBM) at    -5.25322385 eV (relative to internal zero)
  | Occupation number:      0.00000000
  | K-point:      25 at    0.500000    0.000000    0.500000 (in units of recip. lattice)

  ESTIMATED overall HOMO-LUMO gap:      1.04045828 eV between HOMO at k-point 1 and LUMO at k-point 25
  | This appears to be an indirect band gap.
  | Smallest direct gap :      2.70040065 eV for k_point 3 at    0.500000    0.000000    0.500000 (in units of recip. lattice)
  The gap value is above 0.2 eV. Unless you are using a very sparse k-point grid,
  this system is most likely an insulator or a semiconductor.
  Calculating total energy contributions from superposition of free atom densities.

  Total energy components:
  | Sum of eigenvalues            :        -326.73280093 Ha       -8890.85187486 eV
  | XC energy correction          :         -39.52759575 Ha       -1075.60060639 eV
  | XC potential correction       :          52.22139681 Ha        1421.01650772 eV
  | Free-atom electrostatic energy:        -262.78289413 Ha       -7150.68637209 eV
  | Hartree energy correction     :           0.00000000 Ha           0.00000000 eV
  | Entropy correction            :          -0.00000000 Ha          -0.00000000 eV
  | ---------------------------
  | Total energy                  :        -576.82189400 Ha      -15696.12234563 eV
  | Total energy, T -> 0          :        -576.82189400 Ha      -15696.12234563 eV  <-- do not rely on this value for anything but (periodic) metals
  | Electronic free energy        :        -576.82189400 Ha      -15696.12234563 eV

  Derived energy quantities:
  | Kinetic energy                :         575.48347562 Ha       15659.70212842 eV
  | Electrostatic energy          :       -1112.77777386 Ha      -30280.22386766 eV
  | Energy correction for multipole
  | error in Hartree potential    :           0.00000000 Ha           0.00000000 eV
  | Sum of eigenvalues per atom                           :       -4445.42593743 eV
  | Total energy (T->0) per atom                          :       -7848.06117281 eV  <-- do not rely on this value for anything but (periodic) metals
  | Electronic free energy per atom                       :       -7848.06117281 eV
  Initialize hartree_potential_storage
  Max. number of atoms included in rho_multipole:            2

  End scf initialization - timings             :  max(cpu_time)    wall_clock(cpu1)
  | Time for scf. initialization               :        0.203 s           0.203 s
  | Boundary condition initialization          :        0.050 s           0.049 s
  | Relaxation initialization                  :        0.001 s           0.001 s
  | Integration                                :        0.081 s           0.081 s
  | Solution of K.-S. eqns.                    :        0.006 s           0.006 s
  | Grid partitioning                          :        0.018 s           0.019 s
  | Preloading free-atom quantities on grid    :        0.002 s           0.002 s
  | Free-atom superposition energy             :        0.005 s           0.005 s
  | Total energy evaluation                    :        0.000 s           0.000 s

  Partial memory accounting:
  | Current value for overall tracked memory usage:
  |   Minimum:        0.784 MB (on task 6)
  |   Maximum:        0.795 MB (on task 1)
  |   Average:        0.790 MB
  | Peak value for overall tracked memory usage:
  |   Minimum:        3.399 MB (on task 2 after allocating wave)
  |   Maximum:        3.837 MB (on task 4 after allocating wave)
  |   Average:        3.678 MB
  | Largest tracked array allocation so far:
  |   Minimum:        1.385 MB (hamiltonian_shell on task 2)
  |   Maximum:        1.700 MB (hamiltonian_shell on task 4)
  |   Average:        1.589 MB
  Note:  These values currently only include a subset of arrays which are explicitly tracked.
  The "true" memory usage will be greater.
------------------------------------------------------------

------------------------------------------------------------
          Begin self-consistency iteration #    1

  Date     :  20190817, Time     :  154526.451
------------------------------------------------------------
  Evaluating new KS density using the density matrix
  Evaluating density matrix
  Time summed over all CPUs for getting density from density matrix: real work        0.300 s, elapsed        0.309 s
  Integration grid: deviation in total charge (<rho> - N_e) =  -1.421085E-14
  Pulay mixing of updated and previous charge densities.
  Renormalizing the density to the exact electron count on the 3D integration grid.
  | Formal number of electrons (from input files) :      28.0000000000
  | Integrated number of electrons on 3D grid     :      27.9998193196
  | Charge integration error                      :      -0.0001806804
  | Normalization factor for density and gradient :       1.0000064529

  Evaluating partitioned Hartree potential by multipole expansion.
  | Original multipole sum: apparent total charge =  -0.228644E-13
  | Sum of charges compensated after spline to logarithmic grids =  -0.346944E-04
  | Analytical far-field extrapolation by fixed multipoles:
  | Hartree multipole sum: apparent total charge =   0.000000E+00
  Summing up the Hartree potential.
  Time summed over all CPUs for potential: real work        0.624 s, elapsed        0.649 s
  | RMS charge density error from multipole expansion :   0.424570E-02
  | Average real-space part of the electrostatic potential :      0.15340578 eV

  Integrating Hamiltonian matrix: batch-based integration.
  Time summed over all CPUs for integration: real work        0.333 s, elapsed        0.345 s

  Updating Kohn-Sham eigenvalues and eigenvectors using ELSI and the (modified) LAPACK eigensolver.
  Starting LAPACK eigensolver
  Finished Cholesky decomposition
  | Time :     0.000 s
  Finished transformation to standard eigenproblem
  | Time :     0.000 s
  Finished solving standard eigenproblem
  | Time :     0.000 s
  Finished back-transformation of eigenvectors
  | Time :     0.000 s

  Obtaining occupation numbers and chemical potential using ELSI.
  | Chemical potential (Fermi level):    -5.62847226 eV
  Writing Kohn-Sham eigenvalues.
  K-point:       1 at    0.000000    0.000000    0.000000 (in units of recip. lattice)

  State    Occupation    Eigenvalue [Ha]    Eigenvalue [eV]
      1       2.00000         -65.173180        -1773.45245
      2       2.00000         -65.173180        -1773.45245
      3       2.00000          -5.074212         -138.07632
      4       2.00000          -5.073938         -138.06887
      5       2.00000          -3.513533          -95.60811
      6       2.00000          -3.513519          -95.60772
      7       2.00000          -3.513505          -95.60735
      8       2.00000          -3.512948          -95.59218
      9       2.00000          -3.512944          -95.59207
     10       2.00000          -3.512940          -95.59197
     11       2.00000          -0.651742          -17.73479
     12       2.00000          -0.223828           -6.09068
     13       2.00000          -0.223114           -6.07124
     14       2.00000          -0.222400           -6.05181
     15       0.00000          -0.125070           -3.40332
     16       0.00000          -0.124665           -3.39230
     17       0.00000          -0.124255           -3.38115
     18       0.00000          -0.107670           -2.92984
     19       0.00000           0.070865            1.92833
     20       0.00000           0.070867            1.92839

  What follows are estimated values for band gap, HOMO, LUMO, etc.
  | They are estimated on a discrete k-point grid and not necessarily exact.
  | For converged numbers, create a DOS and/or band structure plot on a denser k-grid.

  Highest occupied state (VBM) at     -6.05181092 eV (relative to internal zero)
  | Occupation number:      2.00000000
  | K-point:       1 at    0.000000    0.000000    0.000000 (in units of recip. lattice)

  Lowest unoccupied state (CBM) at    -5.19255428 eV (relative to internal zero)
  | Occupation number:      0.00000000
  | K-point:      25 at    0.500000    0.000000    0.500000 (in units of recip. lattice)

  ESTIMATED overall HOMO-LUMO gap:      0.85925664 eV between HOMO at k-point 1 and LUMO at k-point 25
  | This appears to be an indirect band gap.
  | Smallest direct gap :      2.63797478 eV for k_point 7 at    0.500000    0.000000    0.500000 (in units of recip. lattice)
  The gap value is above 0.2 eV. Unless you are using a very sparse k-point grid,
  this system is most likely an insulator or a semiconductor.

  Total energy components:
  | Sum of eigenvalues            :        -326.37236604 Ha       -8881.04394243 eV
  | XC energy correction          :         -39.55286089 Ha       -1076.28810586 eV
  | XC potential correction       :          52.25469643 Ha        1421.92263651 eV
  | Free-atom electrostatic energy:        -262.78289413 Ha       -7150.68637209 eV
  | Hartree energy correction     :          -0.36350059 Ha          -9.89135430 eV
  | Entropy correction            :          -0.00000000 Ha          -0.00000000 eV
  | ---------------------------
  | Total energy                  :        -576.81692522 Ha      -15695.98713817 eV
  | Total energy, T -> 0          :        -576.81692522 Ha      -15695.98713817 eV  <-- do not rely on this value for anything but (periodic) metals
  | Electronic free energy        :        -576.81692522 Ha      -15695.98713817 eV

  Derived energy quantities:
  | Kinetic energy                :         575.58783367 Ha       15662.54185548 eV
  | Electrostatic energy          :       -1112.85189799 Ha      -30282.24088780 eV
  | Energy correction for multipole
  | error in Hartree potential    :           0.00555826 Ha           0.15124790 eV
  | Sum of eigenvalues per atom                           :       -4440.52197122 eV
  | Total energy (T->0) per atom                          :       -7847.99356909 eV  <-- do not rely on this value for anything but (periodic) metals
  | Electronic free energy per atom                       :       -7847.99356909 eV

  Self-consistency convergence accuracy:
  | Change of charge density      :  0.1082E+00
  | Change of sum of eigenvalues  :  0.9808E+01 eV
  | Change of total energy        :  0.1352E+00 eV

  End self-consistency iteration #     1       :  max(cpu_time)    wall_clock(cpu1)
  | Time for this iteration                    :        0.185 s           0.185 s
  | Charge density update                      :        0.041 s           0.041 s
  | Density mixing & preconditioning           :        0.010 s           0.010 s
  | Hartree multipole update                   :        0.001 s           0.001 s
  | Hartree multipole summation                :        0.084 s           0.084 s
  | Integration                                :        0.044 s           0.044 s
  | Solution of K.-S. eqns.                    :        0.005 s           0.005 s
  | Total energy evaluation                    :        0.000 s           0.000 s

  Partial memory accounting:
  | Current value for overall tracked memory usage:
  |   Minimum:        0.784 MB (on task 6)
  |   Maximum:        0.795 MB (on task 1)
  |   Average:        0.790 MB
  | Peak value for overall tracked memory usage:
  |   Minimum:        3.399 MB (on task 2 after allocating wave)
  |   Maximum:        3.837 MB (on task 4 after allocating wave)
  |   Average:        3.678 MB
  | Largest tracked array allocation so far:
  |   Minimum:        1.385 MB (hamiltonian_shell on task 2)
  |   Maximum:        1.700 MB (hamiltonian_shell on task 4)
  |   Average:        1.589 MB
  Note:  These values currently only include a subset of arrays which are explicitly tracked.
  The "true" memory usage will be greater.
------------------------------------------------------------

------------------------------------------------------------
          Begin self-consistency iteration #    2

  Date     :  20190817, Time     :  154526.637
------------------------------------------------------------
  Evaluating new KS density using the density matrix
  Evaluating density matrix
  Time summed over all CPUs for getting density from density matrix: real work        0.294 s, elapsed        0.303 s
  Integration grid: deviation in total charge (<rho> - N_e) =  -3.552714E-14
  Pulay mixing of updated and previous charge densities.
  Renormalizing the density to the exact electron count on the 3D integration grid.
  | Formal number of electrons (from input files) :      28.0000000000
  | Integrated number of electrons on 3D grid     :      27.9999015196
  | Charge integration error                      :      -0.0000984804
  | Normalization factor for density and gradient :       1.0000035172

  Evaluating partitioned Hartree potential by multipole expansion.
  | Original multipole sum: apparent total charge =  -0.687063E-14
  | Sum of charges compensated after spline to logarithmic grids =  -0.832405E-04
  | Analytical far-field extrapolation by fixed multipoles:
  | Hartree multipole sum: apparent total charge =   0.000000E+00
  Summing up the Hartree potential.
  Time summed over all CPUs for potential: real work        0.656 s, elapsed        0.683 s
  | RMS charge density error from multipole expansion :   0.101940E-01
  | Average real-space part of the electrostatic potential :      0.33808834 eV

  Integrating Hamiltonian matrix: batch-based integration.
  Time summed over all CPUs for integration: real work        0.331 s, elapsed        0.344 s

  Updating Kohn-Sham eigenvalues and eigenvectors using ELSI and the (modified) LAPACK eigensolver.
  Starting LAPACK eigensolver
  Finished Cholesky decomposition
  | Time :     0.000 s
  Finished transformation to standard eigenproblem
  | Time :     0.000 s
  Finished solving standard eigenproblem
  | Time :     0.000 s
  Finished back-transformation of eigenvectors
  | Time :     0.000 s

  Obtaining occupation numbers and chemical potential using ELSI.
  | Chemical potential (Fermi level):    -5.42949524 eV
  What follows are estimated values for band gap, HOMO, LUMO, etc.
  | They are estimated on a discrete k-point grid and not necessarily exact.
  | For converged numbers, create a DOS and/or band structure plot on a denser k-grid.

  Highest occupied state (VBM) at     -5.74098979 eV (relative to internal zero)
  | Occupation number:      1.99998943
  | K-point:       1 at    0.000000    0.000000    0.000000 (in units of recip. lattice)

  Lowest unoccupied state (CBM) at    -5.10178764 eV (relative to internal zero)
  | Occupation number:      0.00000358
  | K-point:      25 at    0.500000    0.000000    0.500000 (in units of recip. lattice)

  ESTIMATED overall HOMO-LUMO gap:      0.63920215 eV between HOMO at k-point 1 and LUMO at k-point 25
  | This appears to be an indirect band gap.
  | Smallest direct gap :      2.49567715 eV for k_point 1 at    0.500000    0.000000    0.500000 (in units of recip. lattice)
  The gap value is above 0.2 eV. Unless you are using a very sparse k-point grid,
  this system is most likely an insulator or a semiconductor.

  Checking to see if s.c.f. parameters should be adjusted.

  Total energy components:
  | Sum of eigenvalues            :        -326.00370175 Ha       -8871.01207685 eV
  | XC energy correction          :         -39.58352156 Ha       -1077.12242514 eV
  | XC potential correction       :          52.29504013 Ha        1423.02044445 eV
  | Free-atom electrostatic energy:        -262.78289413 Ha       -7150.68637209 eV
  | Hartree energy correction     :          -0.73991063 Ha         -20.13399265 eV
  | Entropy correction            :          -0.00000000 Ha          -0.00000008 eV
  | ---------------------------
  | Total energy                  :        -576.81498794 Ha      -15695.93442228 eV
  | Total energy, T -> 0          :        -576.81498795 Ha      -15695.93442236 eV  <-- do not rely on this value for anything but (periodic) metals
  | Electronic free energy        :        -576.81498795 Ha      -15695.93442243 eV

  Derived energy quantities:
  | Kinetic energy                :         575.59344459 Ha       15662.69453652 eV
  | Electrostatic energy          :       -1112.82491097 Ha      -30281.50653366 eV
  | Energy correction for multipole
  | error in Hartree potential    :           0.01333418 Ha           0.36284154 eV
  | Sum of eigenvalues per atom                           :       -4435.50603842 eV
  | Total energy (T->0) per atom                          :       -7847.96721118 eV  <-- do not rely on this value for anything but (periodic) metals
  | Electronic free energy per atom                       :       -7847.96721122 eV

  Self-consistency convergence accuracy:
  | Change of charge density      :  0.6294E-01
  | Change of sum of eigenvalues  :  0.1003E+02 eV
  | Change of total energy        :  0.5272E-01 eV

  End self-consistency iteration #     2       :  max(cpu_time)    wall_clock(cpu1)
  | Time for this iteration                    :        0.188 s           0.187 s
  | Charge density update                      :        0.040 s           0.039 s
  | Density mixing & preconditioning           :        0.010 s           0.010 s
  | Hartree multipole update                   :        0.001 s           0.001 s
  | Hartree multipole summation                :        0.088 s           0.088 s
  | Integration                                :        0.044 s           0.044 s
  | Solution of K.-S. eqns.                    :        0.005 s           0.005 s
  | Total energy evaluation                    :        0.000 s           0.000 s

  Partial memory accounting:
  | Current value for overall tracked memory usage:
  |   Minimum:        0.785 MB (on task 6)
  |   Maximum:        0.796 MB (on task 1)
  |   Average:        0.790 MB
  | Peak value for overall tracked memory usage:
  |   Minimum:        3.399 MB (on task 2 after allocating wave)
  |   Maximum:        3.837 MB (on task 4 after allocating wave)
  |   Average:        3.678 MB
  | Largest tracked array allocation so far:
  |   Minimum:        1.385 MB (hamiltonian_shell on task 2)
  |   Maximum:        1.700 MB (hamiltonian_shell on task 4)
  |   Average:        1.589 MB
  Note:  These values currently only include a subset of arrays which are explicitly tracked.
  The "true" memory usage will be greater.
------------------------------------------------------------

------------------------------------------------------------
          Begin self-consistency iteration #    3

  Date     :  20190817, Time     :  154526.825
------------------------------------------------------------
  Evaluating new KS density using the density matrix
  Evaluating density matrix
  Time summed over all CPUs for getting density from density matrix: real work        0.293 s, elapsed        0.302 s
  Integration grid: deviation in total charge (<rho> - N_e) =  -9.947598E-14
  Pulay mixing of updated and previous charge densities.
  Renormalizing the density to the exact electron count on the 3D integration grid.
  | Formal number of electrons (from input files) :      28.0000000000
  | Integrated number of electrons on 3D grid     :      28.0003099647
  | Charge integration error                      :       0.0003099647
  | Normalization factor for density and gradient :       0.9999889300

  Evaluating partitioned Hartree potential by multipole expansion.
  | Original multipole sum: apparent total charge =  -0.236008E-13
  | Sum of charges compensated after spline to logarithmic grids =  -0.885523E-04
  | Analytical far-field extrapolation by fixed multipoles:
  | Hartree multipole sum: apparent total charge =   0.000000E+00
  Summing up the Hartree potential.
  Time summed over all CPUs for potential: real work        0.657 s, elapsed        0.689 s
  | RMS charge density error from multipole expansion :   0.108571E-01
  | Average real-space part of the electrostatic potential :      0.31511256 eV

  Integrating Hamiltonian matrix: batch-based integration.
  Time summed over all CPUs for integration: real work        0.328 s, elapsed        0.342 s

  Updating Kohn-Sham eigenvalues and eigenvectors using ELSI and the (modified) LAPACK eigensolver.
  Starting LAPACK eigensolver
  Finished Cholesky decomposition
  | Time :     0.000 s
  Finished transformation to standard eigenproblem
  | Time :     0.000 s
  Finished solving standard eigenproblem
  | Time :     0.000 s
  Finished back-transformation of eigenvectors
  | Time :     0.000 s

  Obtaining occupation numbers and chemical potential using ELSI.
  | Chemical potential (Fermi level):    -5.44475517 eV
  What follows are estimated values for band gap, HOMO, LUMO, etc.
  | They are estimated on a discrete k-point grid and not necessarily exact.
  | For converged numbers, create a DOS and/or band structure plot on a denser k-grid.

  Highest occupied state (VBM) at     -5.76914250 eV (relative to internal zero)
  | Occupation number:      1.99999551
  | K-point:       1 at    0.000000    0.000000    0.000000 (in units of recip. lattice)

  Lowest unoccupied state (CBM) at    -5.10467036 eV (relative to internal zero)
  | Occupation number:      0.00000151
  | K-point:      25 at    0.500000    0.000000    0.500000 (in units of recip. lattice)

  ESTIMATED overall HOMO-LUMO gap:      0.66447214 eV between HOMO at k-point 1 and LUMO at k-point 25
  | This appears to be an indirect band gap.
  | Smallest direct gap :      2.50502292 eV for k_point 1 at    0.500000    0.000000    0.500000 (in units of recip. lattice)
  The gap value is above 0.2 eV. Unless you are using a very sparse k-point grid,
  this system is most likely an insulator or a semiconductor.

  Total energy components:
  | Sum of eigenvalues            :        -326.15445944 Ha       -8875.11440223 eV
  | XC energy correction          :         -39.57222614 Ha       -1076.81506111 eV
  | XC potential correction       :          52.28008392 Ha        1422.61346512 eV
  | Free-atom electrostatic energy:        -262.78289413 Ha       -7150.68637209 eV
  | Hartree energy correction     :          -0.58529762 Ha         -15.92675845 eV
  | Entropy correction            :          -0.00000000 Ha          -0.00000003 eV
  | ---------------------------
  | Total energy                  :        -576.81479341 Ha      -15695.92912877 eV
  | Total energy, T -> 0          :        -576.81479341 Ha      -15695.92912880 eV  <-- do not rely on this value for anything but (periodic) metals
  | Electronic free energy        :        -576.81479341 Ha      -15695.92912883 eV

  Derived energy quantities:
  | Kinetic energy                :         575.43702556 Ha       15658.43815804 eV
  | Electrostatic energy          :       -1112.67959283 Ha      -30277.55222570 eV
  | Energy correction for multipole
  | error in Hartree potential    :           0.01419061 Ha           0.38614617 eV
  | Sum of eigenvalues per atom                           :       -4437.55720112 eV
  | Total energy (T->0) per atom                          :       -7847.96456440 eV  <-- do not rely on this value for anything but (periodic) metals
  | Electronic free energy per atom                       :       -7847.96456442 eV

  Self-consistency convergence accuracy:
  | Change of charge density      :  0.1011E-01
  | Change of sum of eigenvalues  : -0.4102E+01 eV
  | Change of total energy        :  0.5294E-02 eV

  End self-consistency iteration #     3       :  max(cpu_time)    wall_clock(cpu1)
  | Time for this iteration                    :        0.188 s           0.187 s
  | Charge density update                      :        0.039 s           0.039 s
  | Density mixing & preconditioning           :        0.010 s           0.010 s
  | Hartree multipole update                   :        0.001 s           0.001 s
  | Hartree multipole summation                :        0.088 s           0.088 s
  | Integration                                :        0.044 s           0.044 s
  | Solution of K.-S. eqns.                    :        0.005 s           0.004 s
  | Total energy evaluation                    :        0.000 s           0.000 s

  Partial memory accounting:
  | Current value for overall tracked memory usage:
  |   Minimum:        0.785 MB (on task 6)
  |   Maximum:        0.796 MB (on task 1)
  |   Average:        0.790 MB
  | Peak value for overall tracked memory usage:
  |   Minimum:        3.399 MB (on task 2 after allocating wave)
  |   Maximum:        3.837 MB (on task 4 after allocating wave)
  |   Average:        3.678 MB
  | Largest tracked array allocation so far:
  |   Minimum:        1.385 MB (hamiltonian_shell on task 2)
  |   Maximum:        1.700 MB (hamiltonian_shell on task 4)
  |   Average:        1.589 MB
  Note:  These values currently only include a subset of arrays which are explicitly tracked.
  The "true" memory usage will be greater.
------------------------------------------------------------

------------------------------------------------------------
          Begin self-consistency iteration #    4

  Date     :  20190817, Time     :  154527.012
------------------------------------------------------------
  Evaluating new KS density using the density matrix
  Evaluating density matrix
  Time summed over all CPUs for getting density from density matrix: real work        0.293 s, elapsed        0.303 s
  Integration grid: deviation in total charge (<rho> - N_e) =   1.776357E-14
  Pulay mixing of updated and previous charge densities.
  Renormalizing the density to the exact electron count on the 3D integration grid.
  | Formal number of electrons (from input files) :      28.0000000000
  | Integrated number of electrons on 3D grid     :      28.0000903811
  | Charge integration error                      :       0.0000903811
  | Normalization factor for density and gradient :       0.9999967721

  Evaluating partitioned Hartree potential by multipole expansion.
  | Original multipole sum: apparent total charge =  -0.266930E-13
  | Sum of charges compensated after spline to logarithmic grids =  -0.901823E-04
  | Analytical far-field extrapolation by fixed multipoles:
  | Hartree multipole sum: apparent total charge =   0.000000E+00
  Summing up the Hartree potential.
  Time summed over all CPUs for potential: real work        0.655 s, elapsed        0.690 s
  | RMS charge density error from multipole expansion :   0.110389E-01
  | Average real-space part of the electrostatic potential :      0.31328851 eV

  Integrating Hamiltonian matrix: batch-based integration.
  Time summed over all CPUs for integration: real work        0.329 s, elapsed        0.343 s

  Updating Kohn-Sham eigenvalues and eigenvectors using ELSI and the (modified) LAPACK eigensolver.
  Starting LAPACK eigensolver
  Finished Cholesky decomposition
  | Time :     0.000 s
  Finished transformation to standard eigenproblem
  | Time :     0.000 s
  Finished solving standard eigenproblem
  | Time :     0.000 s
  Finished back-transformation of eigenvectors
  | Time :     0.000 s

  Obtaining occupation numbers and chemical potential using ELSI.
  | Chemical potential (Fermi level):    -5.44493946 eV
  What follows are estimated values for band gap, HOMO, LUMO, etc.
  | They are estimated on a discrete k-point grid and not necessarily exact.
  | For converged numbers, create a DOS and/or band structure plot on a denser k-grid.

  Highest occupied state (VBM) at     -5.77034443 eV (relative to internal zero)
  | Occupation number:      1.99999581
  | K-point:       1 at    0.000000    0.000000    0.000000 (in units of recip. lattice)

  Lowest unoccupied state (CBM) at    -5.10388577 eV (relative to internal zero)
  | Occupation number:      0.00000141
  | K-point:      25 at    0.500000    0.000000    0.500000 (in units of recip. lattice)

  ESTIMATED overall HOMO-LUMO gap:      0.66645866 eV between HOMO at k-point 1 and LUMO at k-point 25
  | This appears to be an indirect band gap.
  | Smallest direct gap :      2.50468105 eV for k_point 1 at    0.500000    0.000000    0.500000 (in units of recip. lattice)
  The gap value is above 0.2 eV. Unless you are using a very sparse k-point grid,
  this system is most likely an insulator or a semiconductor.

  Total energy components:
  | Sum of eigenvalues            :        -326.16224826 Ha       -8875.32634678 eV
  | XC energy correction          :         -39.57316039 Ha       -1076.84048326 eV
  | XC potential correction       :          52.28133070 Ha        1422.64739176 eV
  | Free-atom electrostatic energy:        -262.78289413 Ha       -7150.68637209 eV
  | Hartree energy correction     :          -0.57779387 Ha         -15.72257128 eV
  | Entropy correction            :          -0.00000000 Ha          -0.00000003 eV
  | ---------------------------
  | Total energy                  :        -576.81476595 Ha      -15695.92838166 eV
  | Total energy, T -> 0          :        -576.81476596 Ha      -15695.92838169 eV  <-- do not rely on this value for anything but (periodic) metals
  | Electronic free energy        :        -576.81476596 Ha      -15695.92838172 eV

  Derived energy quantities:
  | Kinetic energy                :         575.46746943 Ha       15659.26657795 eV
  | Electrostatic energy          :       -1112.70907500 Ha      -30278.35447635 eV
  | Energy correction for multipole
  | error in Hartree potential    :           0.01447080 Ha           0.39377051 eV
  | Sum of eigenvalues per atom                           :       -4437.66317339 eV
  | Total energy (T->0) per atom                          :       -7847.96419085 eV  <-- do not rely on this value for anything but (periodic) metals
  | Electronic free energy per atom                       :       -7847.96419086 eV

  Self-consistency convergence accuracy:
  | Change of charge density      :  0.2549E-02
  | Change of sum of eigenvalues  : -0.2119E+00 eV
  | Change of total energy        :  0.7471E-03 eV

  End self-consistency iteration #     4       :  max(cpu_time)    wall_clock(cpu1)
  | Time for this iteration                    :        0.188 s           0.188 s
  | Charge density update                      :        0.040 s           0.040 s
  | Density mixing & preconditioning           :        0.010 s           0.010 s
  | Hartree multipole update                   :        0.001 s           0.001 s
  | Hartree multipole summation                :        0.088 s           0.088 s
  | Integration                                :        0.044 s           0.044 s
  | Solution of K.-S. eqns.                    :        0.004 s           0.005 s
  | Total energy evaluation                    :        0.000 s           0.000 s

  Partial memory accounting:
  | Current value for overall tracked memory usage:
  |   Minimum:        0.785 MB (on task 6)
  |   Maximum:        0.796 MB (on task 1)
  |   Average:        0.790 MB
  | Peak value for overall tracked memory usage:
  |   Minimum:        3.399 MB (on task 2 after allocating wave)
  |   Maximum:        3.837 MB (on task 4 after allocating wave)
  |   Average:        3.678 MB
  | Largest tracked array allocation so far:
  |   Minimum:        1.385 MB (hamiltonian_shell on task 2)
  |   Maximum:        1.700 MB (hamiltonian_shell on task 4)
  |   Average:        1.589 MB
  Note:  These values currently only include a subset of arrays which are explicitly tracked.
  The "true" memory usage will be greater.
------------------------------------------------------------

------------------------------------------------------------
          Begin self-consistency iteration #    5

  Date     :  20190817, Time     :  154527.201
------------------------------------------------------------
  Evaluating new KS density using the density matrix
  Evaluating density matrix
  Time summed over all CPUs for getting density from density matrix: real work        0.292 s, elapsed        0.301 s
  Integration grid: deviation in total charge (<rho> - N_e) =   3.552714E-14
  Pulay mixing of updated and previous charge densities.
  Renormalizing the density to the exact electron count on the 3D integration grid.
  | Formal number of electrons (from input files) :      28.0000000000
  | Integrated number of electrons on 3D grid     :      27.9999965303
  | Charge integration error                      :      -0.0000034697
  | Normalization factor for density and gradient :       1.0000001239

  Evaluating partitioned Hartree potential by multipole expansion.
  | Original multipole sum: apparent total charge =  -0.157412E-13
  | Sum of charges compensated after spline to logarithmic grids =  -0.898607E-04
  | Analytical far-field extrapolation by fixed multipoles:
  | Hartree multipole sum: apparent total charge =   0.000000E+00
  Summing up the Hartree potential.
  Time summed over all CPUs for potential: real work        0.653 s, elapsed        0.682 s
  | RMS charge density error from multipole expansion :   0.109858E-01
  | Average real-space part of the electrostatic potential :      0.31088028 eV

  Integrating Hamiltonian matrix: batch-based integration.
  Time summed over all CPUs for integration: real work        0.329 s, elapsed        0.342 s

  Updating Kohn-Sham eigenvalues and eigenvectors using ELSI and the (modified) LAPACK eigensolver.
  Starting LAPACK eigensolver
  Finished Cholesky decomposition
  | Time :     0.000 s
  Finished transformation to standard eigenproblem
  | Time :     0.001 s
  Finished solving standard eigenproblem
  | Time :     0.000 s
  Finished back-transformation of eigenvectors
  | Time :     0.000 s

  Obtaining occupation numbers and chemical potential using ELSI.
  | Chemical potential (Fermi level):    -5.44752209 eV
  What follows are estimated values for band gap, HOMO, LUMO, etc.
  | They are estimated on a discrete k-point grid and not necessarily exact.
  | For converged numbers, create a DOS and/or band structure plot on a denser k-grid.

  Highest occupied state (VBM) at     -5.77440244 eV (relative to internal zero)
  | Occupation number:      1.99999621
  | K-point:       1 at    0.000000    0.000000    0.000000 (in units of recip. lattice)

  Lowest unoccupied state (CBM) at    -5.10504727 eV (relative to internal zero)
  | Occupation number:      0.00000128
  | K-point:      25 at    0.500000    0.000000    0.500000 (in units of recip. lattice)

  ESTIMATED overall HOMO-LUMO gap:      0.66935517 eV between HOMO at k-point 1 and LUMO at k-point 25
  | This appears to be an indirect band gap.
  | Smallest direct gap :      2.50659734 eV for k_point 1 at    0.500000    0.000000    0.500000 (in units of recip. lattice)
  The gap value is above 0.2 eV. Unless you are using a very sparse k-point grid,
  this system is most likely an insulator or a semiconductor.

  Total energy components:
  | Sum of eigenvalues            :        -326.16879048 Ha       -8875.50436956 eV
  | XC energy correction          :         -39.57265021 Ha       -1076.82660068 eV
  | XC potential correction       :          52.28065882 Ha        1422.62910911 eV
  | Free-atom electrostatic energy:        -262.78289413 Ha       -7150.68637209 eV
  | Hartree energy correction     :          -0.57108682 Ha         -15.54006292 eV
  | Entropy correction            :          -0.00000000 Ha          -0.00000003 eV
  | ---------------------------
  | Total energy                  :        -576.81476281 Ha      -15695.92829614 eV
  | Total energy, T -> 0          :        -576.81476281 Ha      -15695.92829617 eV  <-- do not rely on this value for anything but (periodic) metals
  | Electronic free energy        :        -576.81476281 Ha      -15695.92829620 eV

  Derived energy quantities:
  | Kinetic energy                :         575.46690940 Ha       15659.25133879 eV
  | Electrostatic energy          :       -1112.70902200 Ha      -30278.35303425 eV
  | Energy correction for multipole
  | error in Hartree potential    :           0.01440424 Ha           0.39195924 eV
  | Sum of eigenvalues per atom                           :       -4437.75218478 eV
  | Total energy (T->0) per atom                          :       -7847.96414808 eV  <-- do not rely on this value for anything but (periodic) metals
  | Electronic free energy per atom                       :       -7847.96414810 eV

  Self-consistency convergence accuracy:
  | Change of charge density      :  0.5923E-03
  | Change of sum of eigenvalues  : -0.1780E+00 eV
  | Change of total energy        :  0.8552E-04 eV

  End self-consistency iteration #     5       :  max(cpu_time)    wall_clock(cpu1)
  | Time for this iteration                    :        0.186 s           0.186 s
  | Charge density update                      :        0.039 s           0.039 s
  | Density mixing & preconditioning           :        0.009 s           0.009 s
  | Hartree multipole update                   :        0.001 s           0.001 s
  | Hartree multipole summation                :        0.087 s           0.088 s
  | Integration                                :        0.044 s           0.044 s
  | Solution of K.-S. eqns.                    :        0.005 s           0.004 s
  | Total energy evaluation                    :        0.000 s           0.000 s

  Partial memory accounting:
  | Current value for overall tracked memory usage:
  |   Minimum:        0.785 MB (on task 6)
  |   Maximum:        0.796 MB (on task 1)
  |   Average:        0.790 MB
  | Peak value for overall tracked memory usage:
  |   Minimum:        3.399 MB (on task 2 after allocating wave)
  |   Maximum:        3.837 MB (on task 4 after allocating wave)
  |   Average:        3.678 MB
  | Largest tracked array allocation so far:
  |   Minimum:        1.385 MB (hamiltonian_shell on task 2)
  |   Maximum:        1.700 MB (hamiltonian_shell on task 4)
  |   Average:        1.589 MB
  Note:  These values currently only include a subset of arrays which are explicitly tracked.
  The "true" memory usage will be greater.
------------------------------------------------------------

------------------------------------------------------------
          Begin self-consistency iteration #    6

  Date     :  20190817, Time     :  154527.387
------------------------------------------------------------
  Evaluating new KS density using the density matrix
  Evaluating density matrix
  Time summed over all CPUs for getting density from density matrix: real work        0.293 s, elapsed        0.304 s
  Integration grid: deviation in total charge (<rho> - N_e) =   4.973799E-14
  Pulay mixing of updated and previous charge densities.
  Renormalizing the density to the exact electron count on the 3D integration grid.
  | Formal number of electrons (from input files) :      28.0000000000
  | Integrated number of electrons on 3D grid     :      27.9999887192
  | Charge integration error                      :      -0.0000112808
  | Normalization factor for density and gradient :       1.0000004029

  Evaluating partitioned Hartree potential by multipole expansion.
  | Original multipole sum: apparent total charge =  -0.131701E-13
  | Sum of charges compensated after spline to logarithmic grids =  -0.900596E-04
  | Analytical far-field extrapolation by fixed multipoles:
  | Hartree multipole sum: apparent total charge =   0.000000E+00
  Summing up the Hartree potential.
  Time summed over all CPUs for potential: real work        0.662 s, elapsed        0.755 s
  | RMS charge density error from multipole expansion :   0.109945E-01
  | Average real-space part of the electrostatic potential :      0.31127663 eV

  Integrating Hamiltonian matrix: batch-based integration.
  Time summed over all CPUs for integration: real work        0.331 s, elapsed        0.346 s

  Updating Kohn-Sham eigenvalues and eigenvectors using ELSI and the (modified) LAPACK eigensolver.
  Starting LAPACK eigensolver
  Finished Cholesky decomposition
  | Time :     0.000 s
  Finished transformation to standard eigenproblem
  | Time :     0.000 s
  Finished solving standard eigenproblem
  | Time :     0.001 s
  Finished back-transformation of eigenvectors
  | Time :     0.000 s

  Obtaining occupation numbers and chemical potential using ELSI.
  | Chemical potential (Fermi level):    -5.44714535 eV
  What follows are estimated values for band gap, HOMO, LUMO, etc.
  | They are estimated on a discrete k-point grid and not necessarily exact.
  | For converged numbers, create a DOS and/or band structure plot on a denser k-grid.

  Highest occupied state (VBM) at     -5.77383574 eV (relative to internal zero)
  | Occupation number:      1.99999616
  | K-point:       1 at    0.000000    0.000000    0.000000 (in units of recip. lattice)

  Lowest unoccupied state (CBM) at    -5.10485240 eV (relative to internal zero)
  | Occupation number:      0.00000129
  | K-point:      25 at    0.500000    0.000000    0.500000 (in units of recip. lattice)

  ESTIMATED overall HOMO-LUMO gap:      0.66898334 eV between HOMO at k-point 1 and LUMO at k-point 25
  | This appears to be an indirect band gap.
  | Smallest direct gap :      2.50634097 eV for k_point 1 at    0.500000    0.000000    0.500000 (in units of recip. lattice)
  The gap value is above 0.2 eV. Unless you are using a very sparse k-point grid,
  this system is most likely an insulator or a semiconductor.

  Total energy components:
  | Sum of eigenvalues            :        -326.16835954 Ha       -8875.49264330 eV
  | XC energy correction          :         -39.57267977 Ha       -1076.82740501 eV
  | XC potential correction       :          52.28069737 Ha        1422.63015793 eV
  | Free-atom electrostatic energy:        -262.78289413 Ha       -7150.68637209 eV
  | Hartree energy correction     :          -0.57152692 Ha         -15.55203884 eV
  | Entropy correction            :          -0.00000000 Ha          -0.00000003 eV
  | ---------------------------
  | Total energy                  :        -576.81476300 Ha      -15695.92830131 eV
  | Total energy, T -> 0          :        -576.81476300 Ha      -15695.92830134 eV  <-- do not rely on this value for anything but (periodic) metals
  | Electronic free energy        :        -576.81476300 Ha      -15695.92830137 eV

  Derived energy quantities:
  | Kinetic energy                :         575.46674341 Ha       15659.24682195 eV
  | Electrostatic energy          :       -1112.70882664 Ha      -30278.34771825 eV
  | Energy correction for multipole
  | error in Hartree potential    :           0.01441803 Ha           0.39233446 eV
  | Sum of eigenvalues per atom                           :       -4437.74632165 eV
  | Total energy (T->0) per atom                          :       -7847.96415067 eV  <-- do not rely on this value for anything but (periodic) metals
  | Electronic free energy per atom                       :       -7847.96415069 eV

  Self-consistency convergence accuracy:
  | Change of charge density      :  0.8900E-04
  | Change of sum of eigenvalues  :  0.1173E-01 eV
  | Change of total energy        : -0.5174E-05 eV

  End self-consistency iteration #     6       :  max(cpu_time)    wall_clock(cpu1)
  | Time for this iteration                    :        0.197 s           0.197 s
  | Charge density update                      :        0.040 s           0.040 s
  | Density mixing & preconditioning           :        0.010 s           0.009 s
  | Hartree multipole update                   :        0.001 s           0.001 s
  | Hartree multipole summation                :        0.096 s           0.097 s
  | Integration                                :        0.044 s           0.044 s
  | Solution of K.-S. eqns.                    :        0.005 s           0.005 s
  | Total energy evaluation                    :        0.000 s           0.000 s

  Partial memory accounting:
  | Current value for overall tracked memory usage:
  |   Minimum:        0.785 MB (on task 6)
  |   Maximum:        0.796 MB (on task 1)
  |   Average:        0.790 MB
  | Peak value for overall tracked memory usage:
  |   Minimum:        3.399 MB (on task 2 after allocating wave)
  |   Maximum:        3.837 MB (on task 4 after allocating wave)
  |   Average:        3.678 MB
  | Largest tracked array allocation so far:
  |   Minimum:        1.385 MB (hamiltonian_shell on task 2)
  |   Maximum:        1.700 MB (hamiltonian_shell on task 4)
  |   Average:        1.589 MB
  Note:  These values currently only include a subset of arrays which are explicitly tracked.
  The "true" memory usage will be greater.
------------------------------------------------------------

------------------------------------------------------------
          Begin self-consistency iteration #    7

  Date     :  20190817, Time     :  154527.584
------------------------------------------------------------
  Evaluating new KS density using the density matrix
  Evaluating density matrix
  Time summed over all CPUs for getting density from density matrix: real work        0.293 s, elapsed        0.306 s
  Integration grid: deviation in total charge (<rho> - N_e) =  -2.131628E-14
  Pulay mixing of updated and previous charge densities.
  Renormalizing the density to the exact electron count on the 3D integration grid.
  | Formal number of electrons (from input files) :      28.0000000000
  | Integrated number of electrons on 3D grid     :      28.0000031946
  | Charge integration error                      :       0.0000031946
  | Normalization factor for density and gradient :       0.9999998859

  Evaluating partitioned Hartree potential by multipole expansion.
  | Original multipole sum: apparent total charge =  -0.837303E-14
  | Sum of charges compensated after spline to logarithmic grids =  -0.900492E-04
  | Analytical far-field extrapolation by fixed multipoles:
  | Hartree multipole sum: apparent total charge =   0.000000E+00
  Summing up the Hartree potential.
  Time summed over all CPUs for potential: real work        0.656 s, elapsed        0.685 s
  | RMS charge density error from multipole expansion :   0.109925E-01
  | Average real-space part of the electrostatic potential :      0.31124316 eV

  Integrating Hamiltonian matrix: batch-based integration.
  Time summed over all CPUs for integration: real work        0.328 s, elapsed        0.344 s

  Updating Kohn-Sham eigenvalues and eigenvectors using ELSI and the (modified) LAPACK eigensolver.
  Starting LAPACK eigensolver
  Finished Cholesky decomposition
  | Time :     0.000 s
  Finished transformation to standard eigenproblem
  | Time :     0.000 s
  Finished solving standard eigenproblem
  | Time :     0.000 s
  Finished back-transformation of eigenvectors
  | Time :     0.000 s

  Obtaining occupation numbers and chemical potential using ELSI.
  | Chemical potential (Fermi level):    -5.44719021 eV
  What follows are estimated values for band gap, HOMO, LUMO, etc.
  | They are estimated on a discrete k-point grid and not necessarily exact.
  | For converged numbers, create a DOS and/or band structure plot on a denser k-grid.

  Highest occupied state (VBM) at     -5.77389537 eV (relative to internal zero)
[...]
  | Electronic free energy per atom                       :       -7847.96910836 eV

  atomic forces [eV/Ang]:
  -----------------------
  atom #    1
   Hellmann-Feynman              :  0.578863E-02 -0.166431E-01 -0.166431E-01
   Ionic forces                  :  0.000000E+00  0.000000E+00  0.000000E+00
   Multipole                     : -0.130121E-03  0.653721E-03  0.653721E-03
   Pulay                         : -0.567759E-02  0.185485E-01  0.185485E-01
   ----------------------------------------------------------------
   Total forces(   1)            : -0.190762E-04  0.255914E-02  0.255914E-02
  atom #    2
   Hellmann-Feynman              : -0.578863E-02  0.166431E-01  0.166431E-01
   Ionic forces                  :  0.000000E+00  0.000000E+00  0.000000E+00
   Multipole                     :  0.130121E-03 -0.653721E-03 -0.653721E-03
   Pulay                         :  0.567759E-02 -0.185485E-01 -0.185485E-01
   ----------------------------------------------------------------
   Total forces(   2)            :  0.190785E-04 -0.255914E-02 -0.255914E-02


  Analytical stress tensor components [eV]         xx                  yy                  zz                  xy                  xz                  yz
  -----------------------------------------------------------------------------------------------------------------------------------------------------------
    Nuclear Hellmann-Feynman      :    -0.1837538571E+02   -0.1837398174E+02   -0.1837398174E+02    0.2381391518E-02    0.2381396789E-02    0.7430633955E-03
    Multipole Hellmann-Feynman    :    -0.3961492617E+02   -0.3960449640E+02   -0.3960449640E+02    0.1150389112E-01    0.1150390403E-01    0.9639142376E-04
    On-site Multipole corrections :    -0.2653876846E+00   -0.2653895350E+00   -0.2653895350E+00   -0.2098162506E-05   -0.2098155836E-05    0.2950974956E-06
    Strain deriv. of the orbitals :     0.5795834279E+02    0.5794222186E+02    0.5794222186E+02   -0.4768322230E-02   -0.4768338606E-02   -0.3145316851E-02
    On-site kinetic E corrections :     0.2935477684E+00    0.2935556830E+00    0.2935556830E+00   -0.7023986153E-05   -0.7023962129E-05    0.3480180672E-05
  -----------------------------------------------------------------------------------------------------------------------------------------------------------
  Sum of all contributions        :    -0.3809001503E-02   -0.8090126426E-02   -0.8090126653E-02    0.9107838261E-02    0.9107840090E-02   -0.2302086754E-02

  +-------------------------------------------------------------------+
  |              Analytical stress tensor - Symmetrized               |
  |                  Cartesian components [eV/A**3]                   |
  +-------------------------------------------------------------------+
  |                x                y                z                |
  |                                                                   |
  |  x        -0.00009524       0.00022774       0.00022774           |
  |  y         0.00022774      -0.00020229      -0.00005756           |
  |  z         0.00022774      -0.00005756      -0.00020229           |
  |                                                                   |
  |  Pressure:       0.00016661   [eV/A**3]                           |
  |                                                                   |
  +-------------------------------------------------------------------+

 * Warning: Stress tensor is anisotropic. Be aware that pressure is an isotropic quantity.


  Self-consistency convergence accuracy:
  | Change of charge density      :  0.4863E-07
  | Change of sum of eigenvalues  : -0.5218E-05 eV
  | Change of total energy        :  0.3378E-08 eV
  | Change of forces              :  0.2083E-04 eV/A

  Writing Kohn-Sham eigenvalues.
  K-point:       1 at    0.000000    0.000000    0.000000 (in units of recip. lattice)

  State    Occupation    Eigenvalue [Ha]    Eigenvalue [eV]
      1       2.00000         -65.162078        -1773.15037
      2       2.00000         -65.162078        -1773.15037
      3       2.00000          -5.067594         -137.89625
      4       2.00000          -5.067282         -137.88775
      5       2.00000          -3.506383          -95.41354
      6       2.00000          -3.506382          -95.41352
      7       2.00000          -3.506381          -95.41347
      8       2.00000          -3.505745          -95.39618
      9       2.00000          -3.505744          -95.39614
     10       2.00000          -3.505740          -95.39604
     11       2.00000          -0.653094          -17.77160
     12       1.99999          -0.214384           -5.83367
     13       1.99999          -0.214335           -5.83236
     14       1.99999          -0.214274           -5.83070
     15       0.00000          -0.120635           -3.28263
     16       0.00000          -0.120538           -3.28001
     17       0.00000          -0.120340           -3.27462
     18       0.00000          -0.087269           -2.37471
     19       0.00000           0.074678            2.03209
     20       0.00000           0.074797            2.03533

  What follows are estimated values for band gap, HOMO, LUMO, etc.
  | They are estimated on a discrete k-point grid and not necessarily exact.
  | For converged numbers, create a DOS and/or band structure plot on a denser k-grid.

  Highest occupied state (VBM) at     -5.83070103 eV (relative to internal zero)
  | Occupation number:      1.99999141
  | K-point:       1 at    0.000000    0.000000    0.000000 (in units of recip. lattice)

  Lowest unoccupied state (CBM) at    -5.19238452 eV (relative to internal zero)
  | Occupation number:      0.00000471
  | K-point:      29 at    0.500000    0.500000    0.000000 (in units of recip. lattice)

  ESTIMATED overall HOMO-LUMO gap:      0.63831651 eV between HOMO at k-point 1 and LUMO at k-point 29
  | This appears to be an indirect band gap.
  | Smallest direct gap :      2.54806657 eV for k_point 1 at    0.500000    0.500000    0.000000 (in units of recip. lattice)
  The gap value is above 0.2 eV. Unless you are using a very sparse k-point grid,
  this system is most likely an insulator or a semiconductor.

  Self-consistency cycle converged.

  End self-consistency iteration #     9       :  max(cpu_time)    wall_clock(cpu1)
  | Time for this iteration                    :        1.646 s           1.647 s
  | Charge density & force component update    :        1.244 s           1.245 s
  | Density mixing                             :        0.000 s           0.000 s
  | Hartree multipole update                   :        0.001 s           0.001 s
  | Hartree multipole summation                :        0.348 s           0.348 s
  | Integration                                :        0.047 s           0.047 s
  | Solution of K.-S. eqns.                    :        0.004 s           0.005 s
  | Total energy evaluation                    :        0.001 s           0.000 s

  Partial memory accounting:
  | Current value for overall tracked memory usage:
  |   Minimum:        0.835 MB (on task 6)
  |   Maximum:        0.857 MB (on task 1)
  |   Average:        0.846 MB
  | Peak value for overall tracked memory usage:
  |   Minimum:       10.479 MB (on task 3 after allocating d_wave)
  |   Maximum:       11.252 MB (on task 1 after allocating d_wave)
  |   Average:       10.881 MB
  | Largest tracked array allocation so far:
  |   Minimum:        2.398 MB (hessian_basis_wave on task 3)
  |   Maximum:        2.593 MB (hessian_basis_wave on task 1)
  |   Average:        2.513 MB
  Note:  These values currently only include a subset of arrays which are explicitly tracked.
  The "true" memory usage will be greater.
------------------------------------------------------------
  Removing unitary transformations (pure translations, rotations) from forces on atoms.
  Atomic forces before filtering:
  | Net force on center of mass :   0.234366E-08 -0.236719E-08  0.317460E-09 eV/A
  Atomic forces after filtering:
  | Net force on center of mass :   0.190773E-04 -0.255914E-02 -0.255914E-02 eV/A

  Energy and forces in a compact form:
  | Total energy uncorrected      :         -0.156959382164796E+05 eV
  | Total energy corrected        :         -0.156959382166020E+05 eV  <-- do not rely on this value for anything but (periodic) metals
  | Electronic free energy        :         -0.156959382167244E+05 eV
  Total atomic forces (unitary forces were cleaned, then relaxation constraints were applied) [eV/Ang]:
  |    1          0.000000000000000E+00          0.000000000000000E+00          0.000000000000000E+00
  |    2          0.190773467200967E-04         -0.255913984566020E-02         -0.255913635540080E-02

  ------------------------------------ 
  Start decomposition of the XC Energy 
  ------------------------------------ 
  X and C from original XC functional choice 
  Hartree-Fock Energy :          0.000000000 Ha              0.000000000 eV
  X Energy            :        -37.447449641 Ha          -1018.996950715 eV
  C Energy            :         -2.144458443 Ha            -58.353683244 eV
  Total XC Energy     :        -39.591908084 Ha          -1077.350633959 eV
  ------------------------------------ 
  LDA X and C from self-consistent density 
  X Energy LDA        :        -37.447449641 Ha          -1018.996950715 eV
  C Energy LDA        :         -2.144458443 Ha            -58.353683244 eV
  ------------------------------------ 
  End decomposition of the XC Energy 
  ------------------------------------ 

------------------------------------------------------------
  Relaxation / MD: End force evaluation.       :  max(cpu_time)    wall_clock(cpu1)
  | Time for this force evaluation             :        3.663 s           3.664 s

------------------------------------------------------------
  Geometry optimization: Attempting to predict improved coordinates.

  +-------------------------------------------------------------------+
  | Generalized derivatives on lattice vectors [eV/A]                 |
  +-------------------------------------------------------------------+
  |lattice_vector       0.00405824      -0.00359342      -0.00359342  |
  |lattice_vector      -0.00070181       0.00274395       0.00061148  |
  |lattice_vector      -0.00070181       0.00061148       0.00274395  |
  +-------------------------------------------------------------------+
  | Forces on lattice vectors cleaned from atomic contributions [eV/A]|
  +-------------------------------------------------------------------+
  |lattice_vector      -0.00405824       0.00359342       0.00359342  |
  |lattice_vector       0.00070181      -0.00274395      -0.00061148  |
  |lattice_vector       0.00070181      -0.00061148      -0.00274395  |
  +-------------------------------------------------------------------+
  Removing unitary transformations (pure translations, rotations) from forces on atoms.
  Atomic forces before filtering:
  | Net force on center of mass :   0.190773E-04 -0.255914E-02 -0.255914E-02 eV/A
  Atomic forces after filtering:
  | Net force on center of mass :   0.953867E-05 -0.127957E-02 -0.127957E-02 eV/A
  Net remaining forces (excluding translations, rotations) in present geometry:
  || Forces on atoms   || =   0.127957E-02 eV/A.
  || Forces on lattice || =   0.405824E-02 eV/A^3.
  Maximum force component is  0.405824E-02 eV/A.
  Present geometry is converged.

------------------------------------------------------------
  Final atomic structure:
                         x [A]             y [A]             z [A]
  lattice_vector         0.00036650        2.71391687        2.71391687
  lattice_vector         2.71474639        0.00071185        2.71495671
  lattice_vector         2.71474639        2.71495671        0.00071185

            atom         0.00000000        0.00000000        0.00000000  Si
            atom         1.35754451        1.35731796        1.35731796  Si

  Fractional coordinates:
                         L1                L2                L3
       atom_frac         0.00000000        0.00000000        0.00000000  Si
       atom_frac         0.24995642        0.25001468        0.25001468  Si
------------------------------------------------------------
  |------------------------------------------------------
  | Final ELSI Output
  |------------------------------------------------------
  |
  | Physical Properties
  |   Number of electrons       :        0.28000000E+02
  |   Number of states          :                    20
  |
  | Matrix Properties
  |   Matrix format             :           BLACS_DENSE
  |   Number of basis functions :                    36
  |
  | Computational Details
  |   Parallel mode             :           SINGLE_PROC
  |   Solver requested          :                LAPACK
  |   Number of ELSI calls      :                   112
  |
  |------------------------------------------------------
  | ELSI Project (c)  elsi-interchange.org
  |------------------------------------------------------

------------------------------------------------------------------------------
  Final output of selected total energy values:

  The following output summarizes some interesting total energy values
  at the end of a run (AFTER all relaxation, molecular dynamics, etc.).

  | Total energy of the DFT / Hartree-Fock s.c.f. calculation      :         -15695.938216480 eV
  | Final zero-broadening corrected energy (caution - metals only) :         -15695.938216602 eV
  | For reference only, the value of 1 Hartree used in FHI-aims is :             27.211384500 eV
  | For reference only, the overall average (free atom contribution
  | + realspace contribution) of the electrostatic potential after
  | s.c.f. convergence is                                          :            -12.844588018 eV

  Before relying on these values, please be sure to understand exactly which
  total energy value is referred to by a given number. Different objects may
  all carry the same name 'total energy'. Definitions:

  Total energy of the DFT / Hartree-Fock s.c.f. calculation:
  | Note that this energy does not include ANY quantities calculated after the
  | s.c.f. cycle, in particular not ANY RPA, MP2, etc. many-body perturbation terms.

  Final zero-broadening corrected energy:
  | For metallic systems only, a broadening of the occupation numbers at the Fermi
  | level can be extrapolated back to zero broadening by an electron-gas inspired
  | formula. For all systems that are not real metals, this value can be
  | meaningless and should be avoided.

------------------------------------------------------------------------------
  Methods described in the following list of references were used in this FHI-aims run.
  If you publish the results, please make sure to cite these reference if they apply.
  FHI-aims is an academic code, and for our developers (often, Ph.D. students
  and postdocs), scientific credit in the community is essential.
  Thank you for helping us!

  For any use of FHI-aims, please cite:

    Volker Blum, Ralf Gehrke, Felix Hanke, Paula Havu, Ville Havu,
    Xinguo Ren, Karsten Reuter, and Matthias Scheffler
    'Ab initio molecular simulations with numeric atom-centered orbitals'
    Computer Physics Communications 180, 2175-2196 (2009)
    http://dx.doi.org/10.1016/j.cpc.2009.06.022


  For the analytical stress tensor used in your run, please cite:

    Franz Knuth, Christian Carbogno, Viktor Atalla, Volker Blum, Matthias Scheffler
    'All-electron formalism for total energy strain derivatives and
    stress tensor components for numeric atom-centered orbitals'
    Computer Physics Communications 190, 33-50 (2015).
    http://dx.doi.org/10.1016/j.cpc.2015.01.003


  The provided symmetry information was generated with SPGlib:

    Atsushi Togo, Yusuke Seto, Dimitar Pashov
    SPGlib 1.7.3 obtained from http://spglib.sourceforge.net
    Copyright (C) 2008 Atsushi Togo


  The ELSI infrastructure was used in your run to solve the Kohn-Sham electronic structure.
  Please check out http://elsi-interchange.org to learn more.
  If scalability is important for your project, please acknowledge ELSI by citing:

    V. W-z. Yu, F. Corsetti, A. Garcia, W. P. Huhn, M. Jacquelin, W. Jia,
    B. Lange, L. Lin, J. Lu, W. Mi, A. Seifitokaldani, A. Vazquez-Mayagoitia,
    C. Yang, H. Yang, and V. Blum
    'ELSI: A unified software interface for Kohn-Sham electronic structure solvers'
    Computer Physics Communications 222, 267-285 (2018).
    http://dx.doi.org/10.1016/j.cpc.2017.09.007


  For the real-space grid partitioning and parallelization used in this calculation, please cite:

    Ville Havu, Volker Blum, Paula Havu, and Matthias Scheffler,
    'Efficient O(N) integration for all-electron electronic structure calculation'
    'using numerically tabulated basis functions'
    Journal of Computational Physics 228, 8367-8379 (2009).
    http://dx.doi.org/10.1016/j.jcp.2009.08.008

  Of course, there are many other important community references, e.g., those cited in the
  above references. Our list is limited to references that describe implementations in the
  FHI-aims code. The reason is purely practical (length of this list) - please credit others as well.

------------------------------------------------------------
          Leaving FHI-aims.
          Date     :  20190817, Time     :  154537.595

          Computational steps:
          | Number of self-consistency cycles          :           27
          | Number of SCF (re)initializations          :            3
          | Number of relaxation steps                 :            2

          Detailed time accounting                     :  max(cpu_time)    wall_clock(cpu1)
          | Total time                                 :       11.541 s          11.548 s
          | Preparation time                           :        0.152 s           0.152 s
          | Boundary condition initalization           :        0.155 s           0.152 s
          | Grid partitioning                          :        0.053 s           0.053 s
          | Preloading free-atom quantities on grid    :        0.077 s           0.078 s
          | Free-atom superposition energy             :        0.017 s           0.017 s
          | Total time for integrations                :        1.417 s           1.418 s
          | Total time for solution of K.-S. equations :        0.126 s           0.127 s
          | Total time for EV reorthonormalization     :        0.001 s           0.001 s
          | Total time for density & force components  :        5.185 s           5.185 s
          | Total time for mixing & preconditioning    :        0.189 s           0.189 s
          | Total time for Hartree multipole update    :        0.026 s           0.027 s
          | Total time for Hartree multipole sum       :        3.939 s           3.942 s
          | Total time for total energy evaluation     :        0.007 s           0.007 s

          Partial memory accounting:
          | Residual value for overall tracked memory usage across tasks:     0.000000 MB (should be 0.000000 MB)
          | Peak values for overall tracked memory usage:
          |   Minimum:       10.479 MB (on task 3 after allocating d_wave)
          |   Maximum:       11.252 MB (on task 1 after allocating d_wave)
          |   Average:       10.881 MB
          | Largest tracked array allocation:
          |   Minimum:        2.398 MB (hessian_basis_wave on task 3)
          |   Maximum:        2.593 MB (hessian_basis_wave on task 1)
          |   Average:        2.513 MB
          Note:  These values currently only include a subset of arrays which are explicitly tracked.
          The "true" memory usage will be greater.

          Have a nice day.
------------------------------------------------------------
