  MPI-parallelism will be employed.
------------------------------------------------------------
          Invoking FHI-aims ...

          When using FHI-aims, please cite the following reference:

          Volker Blum, Ralf Gehrke, Felix Hanke, Paula Havu,
          Ville Havu, Xinguo Ren, Karsten Reuter, and Matthias Scheffler,
          'Ab Initio Molecular Simulations with Numeric Atom-Centered Orbitals',
          Computer Physics Communications 180, 2175-2196 (2009)

          For any questions about FHI-aims, please visit the aimsclub website
          with its forums and wiki. Contributions to both the forums and the
          wiki are warmly encouraged - they are for you, and everyone is welcome there.

------------------------------------------------------------



  Date     :  20190817, Time     :  153939.395
  Time zero on CPU 1             :   0.275160000000000E-01  s.
  Internal wall clock time zero  :           335288379.395  s.

  FHI-aims created a unique identifier for this run for later identification
  aims_uuid : 9B6ECDFE-A380-4C74-A7C6-722AEEA2E62E

  Build configuration of the current instance of FHI-aims
  -------------------------------------------------------
  FHI-aims version      : 190813
  Commit number         : 3da7baeb3
  CMake host system     : Linux-4.4.180-94.97-default
  CMake version         : 3.5.2
  Fortran compiler      : /mpcdf/soft/SLE_12_SP3/packages/x86_64/intel_parallel_studio/2018.4/compilers_and_libraries_2018.5.274/linux/mpi/bin64/mpiifort (Intel) version 18.0.5.20180823
  Fortran compiler flags: -O3 -ip -fp-model precise
  C compiler            : /mpcdf/soft/SLE_12_SP3/packages/skylake/intel/18.0.5/bin/icc (Intel) version 18.0.5.20180823
  C compiler flags      : -O3 -ip -fp-model precise
  Architecture          :
  Using MPI
  Using Scalapack
  Using C files
  Using SPGlib
  Using i-PI
  Linking against: /mpcdf/soft/SLE_12_SP3/packages/x86_64/anaconda/3.5.1.0/lib/libmkl_intel_lp64.so
                   /mpcdf/soft/SLE_12_SP3/packages/x86_64/anaconda/3.5.1.0/lib/libmkl_sequential.so
                   /mpcdf/soft/SLE_12_SP3/packages/x86_64/anaconda/3.5.1.0/lib/libmkl_core.so
                   /mpcdf/soft/SLE_12_SP3/packages/x86_64/anaconda/3.5.1.0/lib/libmkl_blacs_intelmpi_lp64.so
                   /mpcdf/soft/SLE_12_SP3/packages/x86_64/anaconda/3.5.1.0/lib/libmkl_scalapack_lp64.so

  Using        8 parallel tasks.
  Task        0 on host co1631 reporting.
  Task        1 on host co1631 reporting.
  Task        2 on host co1631 reporting.
  Task        3 on host co1631 reporting.
  Task        4 on host co1631 reporting.
  Task        5 on host co1631 reporting.
  Task        6 on host co1631 reporting.
  Task        7 on host co1631 reporting.

  Performing system and environment tests:
  | Environment variable OMP_NUM_THREADS correctly set to 1.
  | Maximum stacksize for task 0: unlimited
  | Maximum stacksize for task 1: unlimited
  | Maximum stacksize for task 2: unlimited
  | Maximum stacksize for task 3: unlimited
  | Maximum stacksize for task 4: unlimited
  | Maximum stacksize for task 5: unlimited
  | Maximum stacksize for task 6: unlimited
  | Maximum stacksize for task 7: unlimited
  | Current stacksize for task 0: unlimited
  | Current stacksize for task 1: unlimited
  | Current stacksize for task 2: unlimited
  | Current stacksize for task 3: unlimited
  | Current stacksize for task 4: unlimited
  | Current stacksize for task 5: unlimited
  | Current stacksize for task 6: unlimited
  | Current stacksize for task 7: unlimited
  | Checking for scalapack...
  | Testing pdtran()...
  | All pdtran() tests passed.

  Obtaining array dimensions for all initial allocations:
  
  -----------------------------------------------------------------------
  Parsing control.in (first pass over file, find array dimensions only).
  The contents of control.in will be repeated verbatim below
  unless switched off by setting 'verbatim_writeout .false.' .
  in the first line of control.in .
  -----------------------------------------------------------------------
  
  xc                                 pbe
  
  charge                             0
  relativistic                       atomic_zora scalar
  spin                               none
  
  mixer                              pulay
  n_max_pulay                        8
  charge_mix_param                   0.6
  occupation_type                    gaussian 0.01
  
  sc_accuracy_etot                   1e-06
  sc_accuracy_eev                    1e-04
  sc_accuracy_rho                    1e-05
  sc_iter_limit                      50
  
  solvent                            mpe
  mpe_solvent_permittivity           78.3553
  isc_cavity_type                    rho_multipole_static 0.036
  isc_cavity_restart_write           cavity_static.dat
  mpe_nonelectrostatic_model         linear_OV 0.005 -0.006
  mpe_skip_first_n_scf_steps         5
  
  ################################################################################
  #
  #  FHI-aims code project
  # Volker Blum, Fritz Haber Institute Berlin, 2009
  #
  #  Suggested "tight" defaults for C atom (to be pasted into control.in file)
  #
  ################################################################################
    species        C
  #     global species definitions
      nucleus             6
      mass                12.0107
  #
      l_hartree           6
  #
      cut_pot             4.0  2.0  1.0
      basis_dep_cutoff    1e-4
  #
      radial_base         34 7.0
      radial_multiplier   2
      angular_grids specified
        division   0.2187   50
        division   0.4416  110
        division   0.6335  194
        division   0.7727  302
        division   0.8772  434
  #      division   0.9334  590
  #      division   0.9924  770
  #      division   1.0230  974
  #      division   1.5020 1202
  #     outer_grid  974
        outer_grid  434
  ################################################################################
  #
  #  Definition of "minimal" basis
  #
  ################################################################################
  #     valence basis states
      valence      2  s   2.
      valence      2  p   2.
  #     ion occupancy
      ion_occ      2  s   1.
      ion_occ      2  p   1.
  ################################################################################
  #
  #  Suggested additional basis functions. For production calculations,
  #  uncomment them one after another (the most important basis functions are
  #  listed first).
  #
  #  Constructed for dimers: 1.0 A, 1.25 A, 1.5 A, 2.0 A, 3.0 A
  #
  ################################################################################
  #  "First tier" - improvements: -1214.57 meV to -155.61 meV
       hydro 2 p 1.7
       hydro 3 d 6
       hydro 2 s 4.9
  #  "Second tier" - improvements: -67.75 meV to -5.23 meV
       hydro 4 f 9.8
       hydro 3 p 5.2
       hydro 3 s 4.3
       hydro 5 g 14.4
       hydro 3 d 6.2
  #  "Third tier" - improvements: -2.43 meV to -0.60 meV
  #     hydro 2 p 5.6
  #     hydro 2 s 1.4
  #     hydro 3 d 4.9
  #     hydro 4 f 11.2
  #  "Fourth tier" - improvements: -0.39 meV to -0.18 meV
  #     hydro 2 p 2.1
  #     hydro 5 g 16.4
  #     hydro 4 d 13.2
  #     hydro 3 s 13.6
  #     hydro 4 f 17.6
  #  Further basis functions - improvements: -0.08 meV and below
  #     hydro 3 s 2
  #     hydro 3 p 6
  #     hydro 4 d 20
  ################################################################################
  #
  # For methods that use the localized form of the "resolution of identity" for
  # the two-electron Coulomb operator (RI_method LVL), particularly Hartree-Fock and
  # hybrid density functional calculations, the highest accuracy can be obtained by
  # uncommenting the line beginning with "for_aux"  below, thus adding an extra g radial
  # function to the construction of the product basis set for the expansion.
  # See Ref. New J. Phys. 17, 093020 (2015) for more information, particularly Figs. 1 and 6.
  #
  ################################################################################
  #
  # for_aux hydro 5 g 6.0
  ################################################################################
  #
  #  FHI-aims code project
  # Volker Blum, Fritz Haber Institute Berlin, 2009
  #
  #  Suggested "tight" defaults for H atom (to be pasted into control.in file)
  #
  ################################################################################
    species        H
  #     global species definitions
      nucleus             1
      mass                1.00794
  #
      l_hartree           6
  #
      cut_pot             4.0  2.0  1.0
      basis_dep_cutoff    1e-4
  #
      radial_base         24 7.0
      radial_multiplier   2
      angular_grids       specified
        division   0.1930   50
        division   0.3175  110
        division   0.4293  194
        division   0.5066  302
        division   0.5626  434
  #      division   0.5922  590
  #      division   0.6227  974
  #      division   0.6868 1202
  #      outer_grid  770
        outer_grid  434
  ################################################################################
  #
  #  Definition of "minimal" basis
  #
  ################################################################################
  #     valence basis states
      valence      1  s   1.
  #     ion occupancy
      ion_occ      1  s   0.5
  ################################################################################
  #
  #  Suggested additional basis functions. For production calculations,
  #  uncomment them one after another (the most important basis functions are
  #  listed first).
  #
  #  Basis constructed for dimers: 0.5 A, 0.7 A, 1.0 A, 1.5 A, 2.5 A
  #
  ################################################################################
  #  "First tier" - improvements: -1014.90 meV to -62.69 meV
       hydro 2 s 2.1
       hydro 2 p 3.5
  #  "Second tier" - improvements: -12.89 meV to -1.83 meV
       hydro 1 s 0.85
       hydro 2 p 3.7
       hydro 2 s 1.2
       hydro 3 d 7
  #  "Third tier" - improvements: -0.25 meV to -0.12 meV
  #     hydro 4 f 11.2
  #     hydro 3 p 4.8
  #     hydro 4 d 9
  #     hydro 3 s 3.2
  ################################################################################
  #
  # For methods that use the localized form of the "resolution of identity" for
  # the two-electron Coulomb operator (RI_method LVL), particularly Hartree-Fock and
  # hybrid density functional calculations, the highest accuracy can be obtained by
  # uncommenting the line beginning with "for_aux"  below, thus adding an extra g radial
  # function to the construction of the product basis set for the expansion.
  # See Ref. New J. Phys. 17, 093020 (2015) for more information, particularly Figs. 1 and 6.
  #
  ################################################################################
  #
  # for_aux hydro 5 g 6.0
  ################################################################################
  #
  #  FHI-aims code project
  # Volker Blum, Fritz Haber Institute Berlin, 2009
  #
  #  Suggested "tight" defaults for F atom (to be pasted into control.in file)
  #
  ################################################################################
    species        F
  #     global species definitions
      nucleus             9
      mass                18.9984032
  #
      l_hartree           6
  #
      cut_pot             4.0  2.0  1.0
      basis_dep_cutoff    1e-4
  #
      radial_base         37 7.0
      radial_multiplier   2
      angular_grids specified
        division   0.4014  110
        division   0.5291  194
        division   0.6019  302
        division   0.6814  434
  #      division   0.7989  590
  #      division   0.8965  770
  #      division   1.3427  974
  #      outer_grid   974
        outer_grid  434
  ################################################################################
  #
  #  Definition of "minimal" basis
  #
  ################################################################################
  #     valence basis states
      valence      2  s   2.
      valence      2  p   5.
  #     ion occupancy
      ion_occ      2  s   1.
      ion_occ      2  p   4.
  ################################################################################
  #
  #  Suggested additional basis functions. For production calculations,
  #  uncomment them one after another (the most important basis functions are
  #  listed first).
  #
  #  Constructed for dimers: 1.2 A, 1.418 A, 1.75 A, 2.25 A, 3.25 A
  #
  ################################################################################
  #  "First tier" - improvements: -149.44 meV to -45.88 meV
       hydro 2 p 1.7
       hydro 3 d 7.4
       hydro 3 s 6.8
  #  "Second tier" - improvements: -12.96 meV to -1.56 meV
       hydro 4 f 11.2
       ionic 2 p auto
       hydro 1 s 0.75
       hydro 4 d 8.8
       hydro 5 g 16.8
  #  "Third tier" - improvements: -0.58 meV to -0.05 meV
  #     hydro 3 p 6.2
  #     hydro 3 s 3.2
  #     hydro 4 f 9.6
  #     hydro 3 s 19.6
  #     hydro 4 d 8.6
  #     hydro 5 g 14.4
  # Further basis functions: -0.05 meV and below
  #     hydro 3 p 4.2
  ################################################################################
  #
  # For methods that use the localized form of the "resolution of identity" for
  # the two-electron Coulomb operator (RI_method LVL), particularly Hartree-Fock and
  # hybrid density functional calculations, the highest accuracy can be obtained by
  # uncommenting the line beginning with "for_aux"  below, thus adding an extra g radial
  # function to the construction of the product basis set for the expansion.
  # See Ref. New J. Phys. 17, 093020 (2015) for more information, particularly Figs. 1 and 6.
  #
  ################################################################################
  #
  # for_aux hydro 5 g 6.0
  
  -----------------------------------------------------------------------
  Completed first pass over input file control.in .
  -----------------------------------------------------------------------
  
  
  -----------------------------------------------------------------------
  Parsing geometry.in (first pass over file, find array dimensions only).
  The contents of geometry.in will be repeated verbatim below
  unless switched off by setting 'verbatim_writeout .false.' .
  in the first line of geometry.in .
  -----------------------------------------------------------------------
  
  atom -0.0000390000000000 -0.7473560000000000 0.0000000000000000 F
  atom -0.0000390000000000 0.6300310000000000 0.0000000000000000 C
  atom -1.0303030000000000 0.9823830000000000 0.0000000000000000 H
  atom 0.5154400000000000 0.9818180000000000 0.8923270000000000 H
  atom 0.5154400000000000 0.9818180000000000 -0.8923270000000000 H
  
  -----------------------------------------------------------------------
  Completed first pass over input file geometry.in .
  -----------------------------------------------------------------------
  

  Basic array size parameters:
  | Number of species                 :        3
  | Number of atoms                   :        5
  | Max. basis fn. angular momentum   :        4
  | Max. atomic/ionic basis occupied n:        2
  | Max. number of basis fn. types    :        3
  | Max. radial fns per species/type  :        8
  | Max. logarithmic grid size        :     1310
  | Max. radial integration grid size :       75
  | Max. angular integration grid size:      434
  | Max. angular grid division number :        8
  | Radial grid for Hartree potential :     1310
  | Number of spin channels           :        1

------------------------------------------------------------
          Reading file control.in.
------------------------------------------------------------
  XC: Using PBE gradient-corrected functionals.
  Charge =   0.000000E+00: Neutral system requested explicitly.
  Scalar relativistic treatment of kinetic energy: on-site free-atom approximation to ZORA.
  Spin treatment: No spin polarisation.
  Using pulay charge density mixing.
  Pulay mixing - number of memorized iterations:    8
  Charge density mixing - mixing parameter:     0.6000
  Occupation type: Gaussian broadening, width =   0.100000E-01 eV.
  Convergence accuracy of total energy:  0.1000E-05
  Convergence accuracy of sum of eigenvalues:  0.1000E-03
  Convergence accuracy of self-consistent charge density:  0.1000E-04
  Maximum number of s.-c. iterations  :    50
  Solvent effects will be calculated using the MPE method.
  The permittivity of the solvent is set to        78.3553
  The implicit solvent cavity is defined as an iso-density surface of the
    multipole-expanded electron density at initialization with a value of  0.36000E-01 e/AA^3.
  Writing cavity to restart file cavity_restart.dat
  MPE: Non-electrostatic contribution will be calculated as:
     0.50000E-02 eV/AA^2 x (cavity surface) + -0.60000E-02 eV/AA^3 x (cavity volume).
 
  Reading configuration options for species C                   .
  | Found nuclear charge :   6.0000
  | Found atomic mass :    12.0107000000000      amu
  | Found l_max for Hartree potential  :   6
  | Found cutoff potl. onset [A], width [A], scale factor :    4.00000    2.00000    1.00000
  | Threshold for basis-dependent cutoff potential is   0.100000E-03
  | Found data for basic radial integration grid :    34 points, outermost radius =    7.000 A
  | Found multiplier for basic radial grid :   2
  | Found angular grid specification: user-specified.
  | Specified grid contains     6 separate shells.
  | Check grid settings after all constraints further below.
  | Found free-atom valence shell :  2 s   2.000
  | Found free-atom valence shell :  2 p   2.000
  | Found free-ion valence shell :  2 s   1.000
  | Found free-ion valence shell :  2 p   1.000
  | Found hydrogenic basis function :  2 p   1.700
  | Found hydrogenic basis function :  3 d   6.000
  | Found hydrogenic basis function :  2 s   4.900
  | Found hydrogenic basis function :  4 f   9.800
  | Found hydrogenic basis function :  3 p   5.200
  | Found hydrogenic basis function :  3 s   4.300
  | Found hydrogenic basis function :  5 g  14.400
  | Found hydrogenic basis function :  3 d   6.200
  Species C                   : Missing cutoff potential type.
  Defaulting to exp(1/x)/(1-x)^2 type cutoff potential.
  Species C : No 'logarithmic' tag. Using default grid for free atom:
  | Default logarithmic grid data [bohr] : 0.1000E-03 0.1000E+03 0.1012E+01
  Species C : On-site basis accuracy parameter (for Gram-Schmidt orthonormalisation) not specified.
  Using default value basis_acc =  0.1000000E-03.
  Species C                   : Using default innermost maximum threshold i_radial=  2 for radial functions.
  Species C                   : Default cutoff onset for free atom density etc. : 0.40000000E+01 AA.
  Species C                   : Basic radial grid will be enhanced according to radial_multiplier =   2, to contain    69 grid points.
 
  Reading configuration options for species H                   .
  | Found nuclear charge :   1.0000
  | Found atomic mass :    1.00794000000000      amu
  | Found l_max for Hartree potential  :   6
  | Found cutoff potl. onset [A], width [A], scale factor :    4.00000    2.00000    1.00000
  | Threshold for basis-dependent cutoff potential is   0.100000E-03
  | Found data for basic radial integration grid :    24 points, outermost radius =    7.000 A
  | Found multiplier for basic radial grid :   2
  | Found angular grid specification: user-specified.
  | Specified grid contains     6 separate shells.
  | Check grid settings after all constraints further below.
  | Found free-atom valence shell :  1 s   1.000
  | Found free-ion valence shell :  1 s   0.500
  | Found hydrogenic basis function :  2 s   2.100
  | Found hydrogenic basis function :  2 p   3.500
  | Found hydrogenic basis function :  1 s   0.850
  | Found hydrogenic basis function :  2 p   3.700
  | Found hydrogenic basis function :  2 s   1.200
  | Found hydrogenic basis function :  3 d   7.000
  Species H                   : Missing cutoff potential type.
  Defaulting to exp(1/x)/(1-x)^2 type cutoff potential.
  Species H : No 'logarithmic' tag. Using default grid for free atom:
  | Default logarithmic grid data [bohr] : 0.1000E-03 0.1000E+03 0.1012E+01
  Species H : On-site basis accuracy parameter (for Gram-Schmidt orthonormalisation) not specified.
  Using default value basis_acc =  0.1000000E-03.
  Species H                   : Using default innermost maximum threshold i_radial=  2 for radial functions.
  Species H                   : Default cutoff onset for free atom density etc. : 0.40000000E+01 AA.
  Species H                   : Basic radial grid will be enhanced according to radial_multiplier =   2, to contain    49 grid points.
 
  Reading configuration options for species F                   .
  | Found nuclear charge :   9.0000
  | Found atomic mass :    18.9984032000000      amu
  | Found l_max for Hartree potential  :   6
  | Found cutoff potl. onset [A], width [A], scale factor :    4.00000    2.00000    1.00000
  | Threshold for basis-dependent cutoff potential is   0.100000E-03
  | Found data for basic radial integration grid :    37 points, outermost radius =    7.000 A
  | Found multiplier for basic radial grid :   2
  | Found angular grid specification: user-specified.
  | Specified grid contains     5 separate shells.
  | Check grid settings after all constraints further below.
  | Found free-atom valence shell :  2 s   2.000
  | Found free-atom valence shell :  2 p   5.000
  | Found free-ion valence shell :  2 s   1.000
  | Found free-ion valence shell :  2 p   4.000
  | Found hydrogenic basis function :  2 p   1.700
  | Found hydrogenic basis function :  3 d   7.400
  | Found hydrogenic basis function :  3 s   6.800
  | Found hydrogenic basis function :  4 f  11.200
  | Found ionic basis function :  2 p , default cutoff radius.
  | Found hydrogenic basis function :  1 s   0.750
  | Found hydrogenic basis function :  4 d   8.800
  | Found hydrogenic basis function :  5 g  16.800
  Species F                   : Missing cutoff potential type.
  Defaulting to exp(1/x)/(1-x)^2 type cutoff potential.
  Species F : No 'logarithmic' tag. Using default grid for free atom:
  | Default logarithmic grid data [bohr] : 0.1000E-03 0.1000E+03 0.1012E+01
  | Will include ionic basis functions of  2.0-fold positive F                    ion.
  Species F : On-site basis accuracy parameter (for Gram-Schmidt orthonormalisation) not specified.
  Using default value basis_acc =  0.1000000E-03.
  Species F                   : Using default innermost maximum threshold i_radial=  2 for radial functions.
  Species F                   : Default cutoff onset for free atom density etc. : 0.40000000E+01 AA.
  Species F                   : Basic radial grid will be enhanced according to radial_multiplier =   2, to contain    75 grid points.
 
  Finished reading input file 'control.in'. Consistency checks are next.
 
  MPI_IN_PLACE appears to work with this MPI implementation.
  | Keeping use_mpi_in_place .true. (see manual).
  Target number of points in a grid batch is not set. Defaulting to  100
  Method for grid partitioning is not set. Defaulting to parallel hash+maxmin partitioning.
  Batch size limit is not set. Defaulting to    200
  By default, will store active basis functions for each batch.
  If in need of memory, prune_basis_once .false. can be used to disable this option.
  communication_type for Hartree potential was not specified.
  Defaulting to calc_hartree .
  Pulay mixer: Number of initial linear mixing iterations not set.
  Defaulting to    0 iterations.
  Work space size for distributed Hartree potential not set.
  Defaulting to   0.200000E+03 MB.
  Algorithm-dependent basis array size parameters:
  | n_max_pulay                         :        8
  Presetting      1001 iterations before the initial mixing cycle
  is restarted anyway using the sc_init_iter criterion / keyword.
  Presetting a factor      1.000 between actual scf density residual
  and density convergence criterion sc_accuracy_rho below which sc_init_iter
  takes no effect.
  Calculation of forces was not defined in control.in. No forces will be calculated.
  Geometry relaxation not requested: no relaxation will be performed.
  No accuracy limit for integral partition fn. given. Defaulting to  0.1000E-14.
  No threshold value for u(r) in integrations given. Defaulting to  0.1000E-05.
  No accuracy for occupation numbers given. Defaulting to  0.1000E-12.
  No threshold value for occupation numbers given. Defaulting to  0.0000E+00.
  No accuracy for fermi level given. Defaulting to  0.1000E-19.
  Maximum # of iterations to find E_F not set. Defaulting to  200.
  Preferred method for the eigenvalue solver ('KS_method') not specified in 'control.in'.
  Calling BLACS routine to test compilation state
  Since ScaLAPACK support is enabled, defaulting to ELPA (via ELSI).
  Will not use alltoall communication since running on < 1024 CPUs.
  Threshold for basis singularities not set.
  Default threshold for basis singularities:  0.1000E-04
  partition_type (choice of integration weights) for integrals was not specified.
  | Using a version of the partition function of Stratmann and coworkers ('stratmann_sparse').
  | At each grid point, the set of atoms used to build the partition table is smoothly restricted to
  | only those atoms whose free-atom density would be non-zero at that grid point.
  Partitioning for Hartree potential was not defined. Using partition_type for integrals.
  | Adjusted default value of keyword multip_moments_threshold to:       0.10000000E-11
  | This value may affect high angular momentum components of the Hartree potential in periodic systems.
  No q(lm)/r^(l+1) cutoff set for long-range Hartree potential.
  | Using default value of  0.100000E-09 .
  | Verify using the multipole_threshold keyword.
  Defaulting to new monopole extrapolation.
  Density update method: automatic selection selected.
  Charge integration errors on the 3D integration grid will be compensated
  by explicit normalization and distribution of residual charges.
  Use the "compensate_multipole_errors" flag to change this behaviour.
------------------------------------------------------------


------------------------------------------------------------
          Reading geometry description geometry.in.
------------------------------------------------------------
  Input structure read successfully.
  The structure contains        5 atoms,  and a total of         18.000 electrons.

  Input geometry:
  | No unit cell requested.
  | Atomic structure:
  |       Atom                x [A]            y [A]            z [A]
  |    1: Species F            -0.00003900       -0.74735600        0.00000000
  |    2: Species C            -0.00003900        0.63003100        0.00000000
  |    3: Species H            -1.03030300        0.98238300        0.00000000
  |    4: Species H             0.51544000        0.98181800        0.89232700
  |    5: Species H             0.51544000        0.98181800       -0.89232700
  | The smallest distance between any two atoms is         1.08885070 AA.
  | The first atom of this pair is atom number                      2 .
  | The second atom of this pair is atom number                     3 .

  Number of empty states per atom not set in control.in - providing a guess from actual geometry.
  | Total number of empty states used during s.c.f. cycle:       11
  If you use a very high smearing, use empty_states (per atom!) in control.in to increase this value.

  Structure-dependent array size parameters: 
  | Maximum number of distinct radial functions  :       29
  | Maximum number of basis functions            :      123
  | Number of Kohn-Sham states (occupied + empty):       20
------------------------------------------------------------

------------------------------------------------------------
          Preparing all fixed parts of the calculation.
------------------------------------------------------------
  Determining machine precision:
    2.225073858507201E-308
  Setting up grids for atomic and cluster calculations.

  Creating wave function, potential, and density for free atoms.

  Species: C

  List of occupied orbitals and eigenvalues:
    n    l              occ      energy [Ha]    energy [eV]
    1    0           2.0000       -10.049212      -273.4530
    2    0           2.0000        -0.504761       -13.7352
    2    1           2.0000        -0.193631        -5.2690


  Species: H

  List of occupied orbitals and eigenvalues:
    n    l              occ      energy [Ha]    energy [eV]
    1    0           1.0000        -0.238386        -6.4868


  Species: F

  List of occupied orbitals and eigenvalues:
    n    l              occ      energy [Ha]    energy [eV]
    1    0           2.0000       -24.399755      -663.9511
    2    0           2.0000        -1.098813       -29.9002
    2    1           5.0000        -0.408322       -11.1110

  Creating fixed part of basis set: Ionic, confined, hydrogenic.
 
  C                    hydrogenic:
 
  List of hydrogenic basis orbitals: 
    n    l      effective z      eigenvalue [eV]  inner max. [A]     outer max. [A]     outer radius [A]   
    2    1         1.700000        -9.8152           1.245706           1.245706           5.401630
    3    2         6.000000       -54.4226           0.792453           0.792453           4.178599
    2    0         4.900000       -81.6681           0.082559           0.562749           3.353238
    4    3         9.800000       -81.6681           0.863254           0.863254           4.028125
    3    1         5.200000       -40.8774           0.305389           1.215618           4.898362
    3    0         4.300000       -27.9508           0.091041           1.610311           5.401630
    5    4        14.400000      -112.8510           0.917666           0.917666           3.883070
    3    2         6.200000       -58.1113           0.763917           0.763917           4.077671
 
 
  H                    hydrogenic:
 
  List of hydrogenic basis orbitals: 
    n    l      effective z      eigenvalue [eV]  inner max. [A]     outer max. [A]     outer radius [A]   
    2    0         2.100000       -14.9965           0.193243           1.317208           5.373006
    2    1         3.500000       -41.6672           0.602369           0.602369           4.056063
    1    0         0.850000        -9.8292           0.624871           0.624871           5.373006
    2    1         3.700000       -46.5653           0.573622           0.573622           3.910002
    2    0         1.200000        -4.5995           0.334980           2.228188           5.505995
    3    2         7.000000       -74.0753           0.680699           0.680699           3.769201
 
 
  F                    ion:

  List of free ionic orbitals and eigenvalues:
    n    l      energy [Ha]    energy [eV]
    1    0       -26.097677      -710.1539
    2    0        -2.490996       -67.7834
    2    1        -1.790314       -48.7169


  List of ionic basis orbitals and eigenvalues:
    n    l      energy [Ha]    energy [eV]    outer radius [A]
    2    1        -1.790310       -48.7168       3.346402

 
  F                    hydrogenic:
 
  List of hydrogenic basis orbitals: 
    n    l      effective z      eigenvalue [eV]  inner max. [A]     outer max. [A]     outer radius [A]   
    2    1         1.700000        -9.8152           1.243167           1.243167           5.456923
    3    2         7.400000       -82.7830           0.642437           0.642437           3.645380
    3    0         6.800000       -69.9029           0.057798           1.022307           4.119412
    4    3        11.200000      -106.6685           0.753096           0.753096           3.645380
    1    0         0.750000        -7.6499           0.708442           0.708442           5.390618
    4    2         8.800000       -65.8514           0.408685           1.273937           4.598524
    5    4        16.800000      -153.6028           0.790838           0.790838           3.471409
 

  Adding cutoff potential to free-atom effective potential.
  Creating atomic-like basis functions for current effective potential.

  Species C                   :

  List of atomic basis orbitals and eigenvalues:
    n    l      energy [Ha]    energy [eV]    outer radius [A]
    1    0       -10.049212      -273.4530       1.934409
    2    0        -0.504761       -13.7352       5.271162
    2    1        -0.193631        -5.2690       5.401630


  Species H                   :

  List of atomic basis orbitals and eigenvalues:
    n    l      energy [Ha]    energy [eV]    outer radius [A]
    1    0        -0.238386        -6.4868       5.373006


  Species F                   :

  List of atomic basis orbitals and eigenvalues:
    n    l      energy [Ha]    energy [eV]    outer radius [A]
    1    0       -24.399755      -663.9511       1.258458
    2    0        -1.098813       -29.9002       4.948503
    2    1        -0.408322       -11.1110       5.260416

  Assembling full basis from fixed parts.
  | Species C :   atomic orbital   1 s accepted.
  | Species C :    hydro orbital   2 s accepted.
  | Species C :   atomic orbital   2 s accepted.
  | Species C :    hydro orbital   3 s accepted.
  | Species C :    hydro orbital   3 p accepted.
  | Species C :   atomic orbital   2 p accepted.
  | Species C :    hydro orbital   2 p accepted.
  | Species C :    hydro orbital   3 d accepted.
  | Species C :    hydro orbital   3 d accepted.
  | Species C :    hydro orbital   4 f accepted.
  | Species C :    hydro orbital   5 g accepted.
  | Species H :   atomic orbital   1 s accepted.
  | Species H :    hydro orbital   2 s accepted.
  | Species H :    hydro orbital   1 s accepted.
  | Species H :    hydro orbital   2 s accepted.
  | Species H :    hydro orbital   2 p accepted.
  | Species H :    hydro orbital   2 p accepted.
  | Species H :    hydro orbital   3 d accepted.
  | Species F :   atomic orbital   1 s accepted.
  | Species F :    hydro orbital   3 s accepted.
  | Species F :   atomic orbital   2 s accepted.
  | Species F :    hydro orbital   1 s accepted.
  | Species F :    ionic orbital   2 p accepted.
  | Species F :   atomic orbital   2 p accepted.
  | Species F :    hydro orbital   2 p accepted.
  | Species F :    hydro orbital   3 d accepted.
  | Species F :    hydro orbital   4 d accepted.
  | Species F :    hydro orbital   4 f accepted.
  | Species F :    hydro orbital   5 g accepted.
 
  Basis size parameters after reduction:
  | Total number of radial functions:       29
  | Total number of basis functions :      123
 
  Per-task memory consumption for arrays in subroutine allocate_ext:
  |           9.730316MB.
  Testing on-site integration grid accuracy.
  |  Species  Function  <phi|h_atom|phi> (log., in eV)  <phi|h_atom|phi> (rad., in eV)
           1        1               -273.4529725981               -273.4529710451
           1        2                -10.7721037329                -10.7721022102
           1        3                 17.6044132585                 17.6044162052
           1        4                 53.7706460564                 53.7706913681
           1        5                 15.0973290351                 15.0973256011
           1        6                  3.8545134677                  3.8545724657
           1        7                 12.1156992586                 12.1182024423
           1        8                 29.4352039288                 29.4352041805
           1        9                 54.8741144697                 54.8740268719
           1       10                 59.3556032036                 59.3556031370
           1       11                 93.4551837140                 93.4551837996
           2       12                 -6.4870767962                 -6.4871688290
           2       13                 13.5032046589                 13.5028982997
           2       14                 32.8195184817                 32.8119941656
           2       15                 33.8513856511                 33.7670005767 ***
           2       16                 28.8544614965                 28.8544615203
           2       17                 59.6326952547                 59.6327656460
           2       18                 60.2719308513                 60.2719305949
           3       19               -663.9511035846               -663.9510965316
           3       20                 16.8473103021                 16.8472935260
           3       21                -28.4523406728                -28.4523493206
           3       22                 12.4014432575                 12.4011752071
           3       23                -10.1252218056                -10.1252217178
           3       24                 14.2804925363                 14.2804879439
           3       25                 15.1514072140                 15.1506889872
           3       26                 44.8493934189                 44.8493934499
           3       27                 56.5646912165                 56.5646920962
           3       28                 81.3482028079                 81.3482028367
           3       29                131.3295409824                131.3295409053
 * Note: Onsite integrals marked "***" above are less accurate than
 * onsite_accuracy_threshold =    0.03000 eV. Usually, this is harmless.
 * When in doubt, tighten the "radial" and/or "radial_multiplier" flags to check.

  Preparing densities etc. for the partition functions (integrals / Hartree potential).

  Preparations completed.
  max(cpu_time)          :      0.228 s.
  Wall clock time (cpu1) :      0.227 s.
------------------------------------------------------------

------------------------------------------------------------
          Begin self-consistency loop: Initialization.

          Date     :  20190817, Time     :  153939.707
------------------------------------------------------------

  Initializing index lists of integration centers etc. from given atomic structure:
  | Number of centers in hartree potential         :         5
  | Number of centers in hartree multipole         :         5
  | Number of centers in electron density summation:         5
  | Number of centers in basis integrals           :         5
  | Number of centers in integrals                 :         5
  | Number of centers in hamiltonian               :         5
  * Using 8 tasks for Scalapack Eigenvalue solver.
  Detailed listing of tasks and assigned k-points:
  (for non-periodic systems, the "k-point" denotes an internal label only)
   Task     0 k-point     1 on co1631
   Task     1 k-point     1 on co1631
   Task     2 k-point     1 on co1631
   Task     3 k-point     1 on co1631
   Task     4 k-point     1 on co1631
   Task     5 k-point     1 on co1631
   Task     6 k-point     1 on co1631
   Task     7 k-point     1 on co1631
  Tasks:     8 split into      4 X      2 BLACS grid
  Calculating block size based on n_basis =          123  max_nprow =            4  max_npcol =            2
  ScaLAPACK block size set to:           16
  Allocating        0.016 MB for ovlp
  Allocating        0.016 MB for ham
  Allocating        0.016 MB for eigenvec
  Required Scalapack workspace - INTEGER:            1  REAL:             1
  Partitioning the integration grid into batches with parallel hashing+maxmin method.
  | Number of batches:     1116
  | Maximal batch size:     186
  | Minimal batch size:      49
  | Average batch size:      74.403
  | Standard deviation of batch sizes:      21.822

  Integration load balanced across     8 MPI tasks.
  Work distribution over tasks is as follows:
  Task     0 has      10407 integration points.
  Task     1 has      10344 integration points.
  Task     2 has      10437 integration points.
  Task     3 has      10416 integration points.
  Task     4 has      10342 integration points.
  Task     5 has      10417 integration points.
  Task     6 has      10322 integration points.
  Task     7 has      10349 integration points.
  Initializing partition tables, free-atom densities, potentials, etc. across the integration grid (initialize_grid_storage).
  | initialize_grid_storage: Actual outermost partition radius vs. multipole_radius_free
  | (-- VB: in principle, multipole_radius_free should be larger, hence this output)
  | Species        1: Confinement radius =              6.000000000000000 AA, multipole_radius_free =              6.029870734432609 AA.
  | Species        1: outer_partition_radius set to              6.029870734432609 AA .
  | Species        2: Confinement radius =              6.000000000000000 AA, multipole_radius_free =              6.071692442739658 AA.
  | Species        2: outer_partition_radius set to              6.071692442739658 AA .
  | Species        3: Confinement radius =              6.000000000000000 AA, multipole_radius_free =              6.017578497268912 AA.
  | Species        3: outer_partition_radius set to              6.017578497268912 AA .
  | The sparse table of interatomic distances needs          0.26 kbyte instead of         0.20 kbyte of memory.
  | Using the partition_type stratmann_smoother will reduce your memory usage.
  | Net number of integration points:    83034
  | of which are non-zero points    :    71914
  Renormalizing the initial density to the exact electron count on the 3D integration grid.
  | Initial density: Formal number of electrons (from input files) :      18.0000000000
  | Integrated number of electrons on 3D grid     :      17.9999973665
  | Charge integration error                      :      -0.0000026335
  | Normalization factor for density and gradient :       1.0000001463
  Renormalizing the free-atom superposition density to the exact electron count on the 3D integration grid.
  | Formal number of electrons (from input files) :      18.0000000000
  | Integrated number of electrons on 3D grid     :      17.9999973665
  | Charge integration error                      :      -0.0000026335
  | Normalization factor for density and gradient :       1.0000001463
  Obtaining max. number of non-zero basis functions in each batch (get_n_compute_maxes).
  | Maximal number of non-zero basis functions:      123 in task     0
  | Maximal number of non-zero basis functions:      123 in task     1
  | Maximal number of non-zero basis functions:      123 in task     2
  | Maximal number of non-zero basis functions:      123 in task     3
  | Maximal number of non-zero basis functions:      123 in task     4
  | Maximal number of non-zero basis functions:      123 in task     5
  | Maximal number of non-zero basis functions:      123 in task     6
  | Maximal number of non-zero basis functions:      123 in task     7
  Selecting the method for density update.
  Loop over occupied states selected for charge density update.
  Allocating        0.019 MB for KS_eigenvector
  Integrating Hamiltonian matrix: batch-based integration.
  Time summed over all CPUs for integration: real work        0.434 s, elapsed        0.443 s
  Integrating overlap matrix.
  Time summed over all CPUs for integration: real work        0.171 s, elapsed        0.174 s
  Deallocating overlap matrix.

  Updating Kohn-Sham eigenvalues and eigenvectors using ELSI and the ELPA eigensolver.
  Overlap matrix is not singular
  | Lowest and highest eigenvalues :  0.1980E-03,  0.4599E+01
  Finished singularity check of overlap matrix
  | Time :     0.002 s
  Starting ELPA eigensolver
  Finished Cholesky decomposition
  | Time :     0.001 s
  Finished transformation to standard eigenproblem
  | Time :     0.000 s
  Finished solving standard eigenproblem
  | Time :     0.002 s
  Finished back-transformation of eigenvectors
  | Time :     0.001 s

  Obtaining occupation numbers and chemical potential using ELSI.
  | Chemical potential (Fermi level):    -5.61302333 eV
  Writing Kohn-Sham eigenvalues.

  State    Occupation    Eigenvalue [Ha]    Eigenvalue [eV]
      1       2.00000         -24.445180         -665.18718
      2       2.00000         -10.166928         -276.65618
      3       2.00000          -1.216517          -33.10311
      4       2.00000          -0.787003          -21.41544
      5       2.00000          -0.570540          -15.52517
      6       2.00000          -0.564121          -15.35052
      7       2.00000          -0.564093          -15.34975
      8       2.00000          -0.424936          -11.56311
      9       2.00000          -0.424908          -11.56234
     10       0.00000          -0.064267           -1.74880
     11       0.00000          -0.037361           -1.01665
     12       0.00000           0.005112            0.13910
     13       0.00000           0.005121            0.13934
     14       0.00000           0.069250            1.88439
     15       0.00000           0.069307            1.88593
     16       0.00000           0.094414            2.56914
     17       0.00000           0.137545            3.74278
     18       0.00000           0.153933            4.18872
     19       0.00000           0.153949            4.18916
     20       0.00000           0.178470            4.85641

  Highest occupied state (VBM) at    -11.56234277 eV
  | Occupation number:      2.00000000

  Lowest unoccupied state (CBM) at    -1.74880262 eV
  | Occupation number:      0.00000000

  Overall HOMO-LUMO gap:      9.81354015 eV.
  Calculating total energy contributions from superposition of free atom densities.

  Total energy components:
  | Sum of eigenvalues            :         -78.32845169 Ha       -2131.42561632 eV
  | XC energy correction          :         -16.51794267 Ha        -449.47608927 eV
  | XC potential correction       :          21.24411651 Ha         578.08182276 eV
  | Free-atom electrostatic energy:         -66.30216943 Ha       -1804.17382564 eV
  | Hartree energy correction     :           0.00000000 Ha           0.00000000 eV
  | MPE non-electrostatic energy  :           0.00000000 Ha           0.00000000 eV
  | Entropy correction            :           0.00000000 Ha           0.00000000 eV
  | ---------------------------
  | Total energy                  :        -139.90444729 Ha       -3806.99370847 eV
  | Total energy, T -> 0          :        -139.90444729 Ha       -3806.99370847 eV  <-- do not rely on this value for anything but (periodic) metals
  | Electronic free energy        :        -139.90444729 Ha       -3806.99370847 eV

  Derived energy quantities:
  | Kinetic energy                :         138.73621307 Ha        3775.20443789 eV
  | Electrostatic energy          :        -262.12271768 Ha       -7132.72205709 eV
  | Energy correction for multipole
  | error in Hartree potential    :           0.00000000 Ha           0.00000000 eV
  | Sum of eigenvalues per atom                           :        -426.28512326 eV
  | Total energy (T->0) per atom                          :        -761.39874169 eV  <-- do not rely on this value for anything but (periodic) metals
  | Electronic free energy per atom                       :        -761.39874169 eV

  MPE Solvation Free Energy contributions:
  | MPE electrostatic energy      :           0.00000000 Ha           0.00000000 eV
  | MPE non-electrostatic energy  :           0.00000000 Ha           0.00000000 eV
  | MPE total energy              :           0.00000000 Ha           0.00000000 eV
  Initialize hartree_potential_storage
  Max. number of atoms included in rho_multipole:            5

  End scf initialization - timings             :  max(cpu_time)    wall_clock(cpu1)
  | Time for scf. initialization               :        0.150 s           0.149 s
  | Boundary condition initialization          :        0.000 s           0.000 s
  | Integration                                :        0.078 s           0.078 s
  | Solution of K.-S. eqns.                    :        0.006 s           0.006 s
  | Grid partitioning                          :        0.028 s           0.028 s
  | Preloading free-atom quantities on grid    :        0.012 s           0.012 s
  | Free-atom superposition energy             :        0.008 s           0.008 s
  | Total energy evaluation                    :        0.000 s           0.000 s

  Partial memory accounting:
  | Current value for overall tracked memory usage:
  |   Minimum:        0.114 MB (on task 7)
  |   Maximum:        0.125 MB (on task 0)
  |   Average:        0.121 MB
  | Peak value for overall tracked memory usage:
  |   Minimum:        0.814 MB (on task 7 after allocating wave)
  |   Maximum:        0.825 MB (on task 0 after allocating wave)
  |   Average:        0.821 MB
  | Largest tracked array allocation so far:
  |   Minimum:        0.175 MB (H_times_psi on task 0)
  |   Maximum:        0.357 MB (all_coords on task 3)
  |   Average:        0.246 MB
  Note:  These values currently only include a subset of arrays which are explicitly tracked.
  The "true" memory usage will be greater.
------------------------------------------------------------

------------------------------------------------------------
          Begin self-consistency iteration #    1

  Date     :  20190817, Time     :  153939.857
------------------------------------------------------------
  Evaluating new KS density.
  Integration grid: deviation in total charge (<rho> - N_e) =   0.000000E+00
  Pulay mixing of updated and previous charge densities.
  Renormalizing the density to the exact electron count on the 3D integration grid.
  | Formal number of electrons (from input files) :      18.0000000000
  | Integrated number of electrons on 3D grid     :      18.0000000000
  | Charge integration error                      :       0.0000000000
  | Normalization factor for density and gradient :       1.0000000000

  Evaluating partitioned Hartree potential by multipole expansion.
  | Original multipole sum: apparent total charge =   0.223224E-13
  | Sum of charges compensated after spline to logarithmic grids =   0.350669E-06
  | Analytical far-field extrapolation by fixed multipoles:
  | Hartree multipole sum: apparent total charge =   0.223716E-13
  Allocating        0.040 MB for Dielectric Indices on integration grid
  Summing up the Hartree potential.
  Time summed over all CPUs for potential: real work        0.205 s, elapsed        0.208 s
  | RMS charge density error from multipole expansion :   0.366517E-02

  Integrating Hamiltonian matrix: batch-based integration.
  Time summed over all CPUs for integration: real work        0.432 s, elapsed        0.444 s

  Updating Kohn-Sham eigenvalues and eigenvectors using ELSI and the ELPA eigensolver.
  Starting ELPA eigensolver
  Finished transformation to standard eigenproblem
  | Time :     0.001 s
  Finished solving standard eigenproblem
  | Time :     0.001 s
  Finished back-transformation of eigenvectors
  | Time :     0.001 s

  Obtaining occupation numbers and chemical potential using ELSI.
  | Chemical potential (Fermi level):    -3.76112496 eV
  Writing Kohn-Sham eigenvalues.

  State    Occupation    Eigenvalue [Ha]    Eigenvalue [eV]
      1       2.00000         -24.226237         -659.22945
      2       2.00000          -9.879458         -268.83373
      3       2.00000          -1.077488          -29.31995
      4       2.00000          -0.632308          -17.20599
      5       2.00000          -0.427418          -11.63064
      6       2.00000          -0.425795          -11.58647
      7       2.00000          -0.425769          -11.58575
      8       2.00000          -0.289098           -7.86675
      9       2.00000          -0.289066           -7.86590
     10       0.00000          -0.005423           -0.14756
     11       0.00000           0.027836            0.75744
     12       0.00000           0.037951            1.03269
     13       0.00000           0.037957            1.03286
     14       0.00000           0.122393            3.33048
     15       0.00000           0.122460            3.33232
     16       0.00000           0.139128            3.78586
     17       0.00000           0.185091            5.03659
     18       0.00000           0.185114            5.03721
     19       0.00000           0.209055            5.68866
     20       0.00000           0.244131            6.64313

  Highest occupied state (VBM) at     -7.86589930 eV
  | Occupation number:      2.00000000

  Lowest unoccupied state (CBM) at    -0.14755750 eV
  | Occupation number:      0.00000000

  Overall HOMO-LUMO gap:      7.71834180 eV.

  Total energy components:
  | Sum of eigenvalues            :         -75.34527502 Ha       -2050.24924877 eV
  | XC energy correction          :         -16.86925311 Ha        -459.03573247 eV
  | XC potential correction       :          21.70012741 Ha         590.49051077 eV
  | Free-atom electrostatic energy:         -66.30216943 Ha       -1804.17382564 eV
  | Hartree energy correction     :          -3.01825886 Ha         -82.13100248 eV
  | MPE non-electrostatic energy  :           0.00000000 Ha           0.00000000 eV
  | Entropy correction            :           0.00000000 Ha           0.00000000 eV
  | ---------------------------
  | Total energy                  :        -139.83482901 Ha       -3805.09929860 eV
  | Total energy, T -> 0          :        -139.83482901 Ha       -3805.09929860 eV  <-- do not rely on this value for anything but (periodic) metals
  | Electronic free energy        :        -139.83482901 Ha       -3805.09929860 eV

  Derived energy quantities:
  | Kinetic energy                :         140.33816607 Ha        3818.79579701 eV
  | Electrostatic energy          :        -263.30374197 Ha       -7164.85936314 eV
  | Energy correction for multipole
  | error in Hartree potential    :          -0.00392800 Ha          -0.10688623 eV
  | Sum of eigenvalues per atom                           :        -410.04984975 eV
  | Total energy (T->0) per atom                          :        -761.01985972 eV  <-- do not rely on this value for anything but (periodic) metals
  | Electronic free energy per atom                       :        -761.01985972 eV

  MPE Solvation Free Energy contributions:
  | MPE electrostatic energy      :           0.00000000 Ha           0.00000000 eV
  | MPE non-electrostatic energy  :           0.00000000 Ha           0.00000000 eV
  | MPE total energy              :           0.00000000 Ha           0.00000000 eV

  Self-consistency convergence accuracy:
  | Change of charge density      :  0.3457E+00
  | Change of sum of eigenvalues  :  0.8118E+02 eV
  | Change of total energy        :  0.1894E+01 eV

  End self-consistency iteration #     1       :  max(cpu_time)    wall_clock(cpu1)
  | Time for this iteration                    :        0.131 s           0.130 s
  | Charge density update                      :        0.041 s           0.041 s
  | Density mixing                             :        0.001 s           0.001 s
  | Hartree multipole update                   :        0.002 s           0.003 s
  | Hartree multipole summation                :        0.027 s           0.026 s
  | Integration                                :        0.056 s           0.056 s
  | Solution of K.-S. eqns.                    :        0.003 s           0.003 s
  | Total energy evaluation                    :        0.000 s           0.000 s

  Partial memory accounting:
  | Current value for overall tracked memory usage:
  |   Minimum:        0.154 MB (on task 7)
  |   Maximum:        0.165 MB (on task 2)
  |   Average:        0.161 MB
  | Peak value for overall tracked memory usage:
  |   Minimum:        0.814 MB (on task 7 after allocating wave)
  |   Maximum:        0.825 MB (on task 0 after allocating wave)
  |   Average:        0.821 MB
  | Largest tracked array allocation so far:
  |   Minimum:        0.524 MB (gradient_basis_wave on task 0)
  |   Maximum:        0.524 MB (gradient_basis_wave on task 0)
  |   Average:        0.524 MB
  Note:  These values currently only include a subset of arrays which are explicitly tracked.
  The "true" memory usage will be greater.
------------------------------------------------------------

------------------------------------------------------------
          Begin self-consistency iteration #    2

  Date     :  20190817, Time     :  153939.988
------------------------------------------------------------
  Evaluating new KS density.
  Integration grid: deviation in total charge (<rho> - N_e) =  -3.552714E-15
  Pulay mixing of updated and previous charge densities.
  Renormalizing the density to the exact electron count on the 3D integration grid.
  | Formal number of electrons (from input files) :      18.0000000000
  | Integrated number of electrons on 3D grid     :      18.0000000000
  | Charge integration error                      :      -0.0000000000
  | Normalization factor for density and gradient :       1.0000000000

  Evaluating partitioned Hartree potential by multipole expansion.
  | Original multipole sum: apparent total charge =  -0.565748E-14
  | Sum of charges compensated after spline to logarithmic grids =  -0.416831E-06
  | Analytical far-field extrapolation by fixed multipoles:
  | Hartree multipole sum: apparent total charge =  -0.615558E-14
  Summing up the Hartree potential.
  Time summed over all CPUs for potential: real work        0.206 s, elapsed        0.209 s
  | RMS charge density error from multipole expansion :   0.490438E-02

  Integrating Hamiltonian matrix: batch-based integration.
  Time summed over all CPUs for integration: real work        0.424 s, elapsed        0.437 s

  Updating Kohn-Sham eigenvalues and eigenvectors using ELSI and the ELPA eigensolver.
  Starting ELPA eigensolver
  Finished transformation to standard eigenproblem
  | Time :     0.000 s
  Finished solving standard eigenproblem
  | Time :     0.002 s
  Finished back-transformation of eigenvectors
  | Time :     0.000 s

  Obtaining occupation numbers and chemical potential using ELSI.
  | Chemical potential (Fermi level):    -4.17223870 eV
  Highest occupied state (VBM) at     -8.52838334 eV
  | Occupation number:      2.00000000

  Lowest unoccupied state (CBM) at    -0.16052730 eV
  | Occupation number:      0.00000000

  Overall HOMO-LUMO gap:      8.36785604 eV.

  Checking to see if s.c.f. parameters should be adjusted.

  Total energy components:
  | Sum of eigenvalues            :         -76.08221537 Ha       -2070.30241612 eV
  | XC energy correction          :         -16.81261965 Ha        -457.49465782 eV
  | XC potential correction       :          21.62427454 Ha         588.42644908 eV
  | Free-atom electrostatic energy:         -66.30216943 Ha       -1804.17382564 eV
  | Hartree energy correction     :          -2.25375705 Ha         -61.32784976 eV
  | MPE non-electrostatic energy  :           0.00000000 Ha           0.00000000 eV
  | Entropy correction            :           0.00000000 Ha           0.00000000 eV
  | ---------------------------
  | Total energy                  :        -139.82648697 Ha       -3804.87230027 eV
  | Total energy, T -> 0          :        -139.82648697 Ha       -3804.87230027 eV  <-- do not rely on this value for anything but (periodic) metals
  | Electronic free energy        :        -139.82648697 Ha       -3804.87230027 eV

  Derived energy quantities:
  | Kinetic energy                :         139.57681380 Ha        3798.07834751 eV
  | Electrostatic energy          :        -262.59068112 Ha       -7145.45598995 eV
  | Energy correction for multipole
  | error in Hartree potential    :          -0.00464508 Ha          -0.12639911 eV
  | Sum of eigenvalues per atom                           :        -414.06048322 eV
  | Total energy (T->0) per atom                          :        -760.97446005 eV  <-- do not rely on this value for anything but (periodic) metals
  | Electronic free energy per atom                       :        -760.97446005 eV

  MPE Solvation Free Energy contributions:
  | MPE electrostatic energy      :           0.00000000 Ha           0.00000000 eV
  | MPE non-electrostatic energy  :           0.00000000 Ha           0.00000000 eV
  | MPE total energy              :           0.00000000 Ha           0.00000000 eV

  Self-consistency convergence accuracy:
  | Change of charge density      :  0.1473E+00
  | Change of sum of eigenvalues  : -0.2005E+02 eV
  | Change of total energy        :  0.2270E+00 eV

  End self-consistency iteration #     2       :  max(cpu_time)    wall_clock(cpu1)
  | Time for this iteration                    :        0.129 s           0.129 s
  | Charge density update                      :        0.040 s           0.040 s
  | Density mixing                             :        0.002 s           0.002 s
  | Hartree multipole update                   :        0.002 s           0.002 s
  | Hartree multipole summation                :        0.026 s           0.027 s
  | Integration                                :        0.055 s           0.055 s
  | Solution of K.-S. eqns.                    :        0.003 s           0.002 s
  | Total energy evaluation                    :        0.000 s           0.000 s

  Partial memory accounting:
  | Current value for overall tracked memory usage:
  |   Minimum:        0.154 MB (on task 7)
  |   Maximum:        0.165 MB (on task 2)
  |   Average:        0.161 MB
  | Peak value for overall tracked memory usage:
  |   Minimum:        0.852 MB (on task 7 after allocating gradient_basis_wave)
  |   Maximum:        0.863 MB (on task 2 after allocating gradient_basis_wave)
  |   Average:        0.859 MB
  | Largest tracked array allocation so far:
  |   Minimum:        0.524 MB (gradient_basis_wave on task 0)
  |   Maximum:        0.524 MB (gradient_basis_wave on task 0)
  |   Average:        0.524 MB
  Note:  These values currently only include a subset of arrays which are explicitly tracked.
  The "true" memory usage will be greater.
------------------------------------------------------------

------------------------------------------------------------
          Begin self-consistency iteration #    3

  Date     :  20190817, Time     :  153940.117
------------------------------------------------------------
  Evaluating new KS density.
  Integration grid: deviation in total charge (<rho> - N_e) =   7.105427E-15
  Pulay mixing of updated and previous charge densities.
  Renormalizing the density to the exact electron count on the 3D integration grid.
  | Formal number of electrons (from input files) :      18.0000000000
  | Integrated number of electrons on 3D grid     :      18.0000000000
  | Charge integration error                      :       0.0000000000
  | Normalization factor for density and gradient :       1.0000000000

  Evaluating partitioned Hartree potential by multipole expansion.
  | Original multipole sum: apparent total charge =  -0.491955E-16
  | Sum of charges compensated after spline to logarithmic grids =  -0.416452E-06
  | Analytical far-field extrapolation by fixed multipoles:
  | Hartree multipole sum: apparent total charge =   0.233679E-15
  Summing up the Hartree potential.
  Time summed over all CPUs for potential: real work        0.204 s, elapsed        0.208 s
  | RMS charge density error from multipole expansion :   0.575604E-02

  Integrating Hamiltonian matrix: batch-based integration.
  Time summed over all CPUs for integration: real work        0.428 s, elapsed        0.440 s

  Updating Kohn-Sham eigenvalues and eigenvectors using ELSI and the ELPA eigensolver.
  Starting ELPA eigensolver
  Finished transformation to standard eigenproblem
  | Time :     0.000 s
  Finished solving standard eigenproblem
  | Time :     0.002 s
  Finished back-transformation of eigenvectors
  | Time :     0.000 s

  Obtaining occupation numbers and chemical potential using ELSI.
  | Chemical potential (Fermi level):    -3.93759890 eV
  Highest occupied state (VBM) at     -7.96558229 eV
  | Occupation number:      2.00000000

  Lowest unoccupied state (CBM) at    -0.02735477 eV
  | Occupation number:      0.00000000

  Overall HOMO-LUMO gap:      7.93822752 eV.

  Total energy components:
  | Sum of eigenvalues            :         -75.70287064 Ha       -2059.97992084 eV
  | XC energy correction          :         -16.86280339 Ha        -458.86022683 eV
  | XC potential correction       :          21.68937122 Ha         590.19781971 eV
  | Free-atom electrostatic energy:         -66.30216943 Ha       -1804.17382564 eV
  | Hartree energy correction     :          -2.64704799 Ha         -72.02984060 eV
  | MPE non-electrostatic energy  :           0.00000000 Ha           0.00000000 eV
  | Entropy correction            :           0.00000000 Ha           0.00000000 eV
  | ---------------------------
  | Total energy                  :        -139.82552024 Ha       -3804.84599421 eV
  | Total energy, T -> 0          :        -139.82552024 Ha       -3804.84599421 eV  <-- do not rely on this value for anything but (periodic) metals
  | Electronic free energy        :        -139.82552024 Ha       -3804.84599421 eV

  Derived energy quantities:
  | Kinetic energy                :         139.68398562 Ha        3800.99464129 eV
  | Electrostatic energy          :        -262.64670247 Ha       -7146.98040867 eV
  | Energy correction for multipole
  | error in Hartree potential    :          -0.00529815 Ha          -0.14416989 eV
  | Sum of eigenvalues per atom                           :        -411.99598417 eV
  | Total energy (T->0) per atom                          :        -760.96919884 eV  <-- do not rely on this value for anything but (periodic) metals
  | Electronic free energy per atom                       :        -760.96919884 eV

  MPE Solvation Free Energy contributions:
  | MPE electrostatic energy      :           0.00000000 Ha           0.00000000 eV
  | MPE non-electrostatic energy  :           0.00000000 Ha           0.00000000 eV
  | MPE total energy              :           0.00000000 Ha           0.00000000 eV

  Self-consistency convergence accuracy:
  | Change of charge density      :  0.4405E-01
  | Change of sum of eigenvalues  :  0.1032E+02 eV
  | Change of total energy        :  0.2631E-01 eV

  End self-consistency iteration #     3       :  max(cpu_time)    wall_clock(cpu1)
  | Time for this iteration                    :        0.133 s           0.147 s
  | Charge density update                      :        0.040 s           0.040 s
  | Density mixing                             :        0.004 s           0.018 s
  | Hartree multipole update                   :        0.004 s           0.005 s
  | Hartree multipole summation                :        0.026 s           0.026 s
  | Integration                                :        0.055 s           0.055 s
  | Solution of K.-S. eqns.                    :        0.003 s           0.003 s
  | Total energy evaluation                    :        0.000 s           0.000 s

  Partial memory accounting:
  | Current value for overall tracked memory usage:
  |   Minimum:        0.155 MB (on task 7)
  |   Maximum:        0.165 MB (on task 2)
  |   Average:        0.161 MB
  | Peak value for overall tracked memory usage:
  |   Minimum:        0.853 MB (on task 7 after allocating gradient_basis_wave)
  |   Maximum:        0.863 MB (on task 2 after allocating gradient_basis_wave)
  |   Average:        0.860 MB
  | Largest tracked array allocation so far:
  |   Minimum:        0.524 MB (gradient_basis_wave on task 0)
  |   Maximum:        0.524 MB (gradient_basis_wave on task 0)
  |   Average:        0.524 MB
  Note:  These values currently only include a subset of arrays which are explicitly tracked.
  The "true" memory usage will be greater.
------------------------------------------------------------

------------------------------------------------------------
          Begin self-consistency iteration #    4

  Date     :  20190817, Time     :  153940.265
------------------------------------------------------------
  Evaluating new KS density.
  Integration grid: deviation in total charge (<rho> - N_e) =   1.065814E-14
  Pulay mixing of updated and previous charge densities.
  Renormalizing the density to the exact electron count on the 3D integration grid.
  | Formal number of electrons (from input files) :      18.0000000000
  | Integrated number of electrons on 3D grid     :      18.0000000000
  | Charge integration error                      :       0.0000000000
  | Normalization factor for density and gradient :       1.0000000000

  Evaluating partitioned Hartree potential by multipole expansion.
  | Original multipole sum: apparent total charge =   0.117454E-13
  | Sum of charges compensated after spline to logarithmic grids =  -0.404355E-06
  | Analytical far-field extrapolation by fixed multipoles:
  | Hartree multipole sum: apparent total charge =   0.119422E-13
  Summing up the Hartree potential.
  Time summed over all CPUs for potential: real work        0.205 s, elapsed        0.209 s
  | RMS charge density error from multipole expansion :   0.580677E-02

  Integrating Hamiltonian matrix: batch-based integration.
  Time summed over all CPUs for integration: real work        0.426 s, elapsed        0.438 s

  Updating Kohn-Sham eigenvalues and eigenvectors using ELSI and the ELPA eigensolver.
  Starting ELPA eigensolver
  Finished transformation to standard eigenproblem
  | Time :     0.001 s
  Finished solving standard eigenproblem
  | Time :     0.001 s
  Finished back-transformation of eigenvectors
  | Time :     0.000 s

  Obtaining occupation numbers and chemical potential using ELSI.
  | Chemical potential (Fermi level):    -3.93258143 eV
  Highest occupied state (VBM) at     -8.03037111 eV
  | Occupation number:      2.00000000

  Lowest unoccupied state (CBM) at    -0.01715229 eV
  | Occupation number:      0.00000000

  Overall HOMO-LUMO gap:      8.01321882 eV.

  Total energy components:
  | Sum of eigenvalues            :         -75.74219608 Ha       -2061.05002032 eV
  | XC energy correction          :         -16.85747652 Ha        -458.71527529 eV
  | XC potential correction       :          21.68240464 Ha         590.00824943 eV
  | Free-atom electrostatic energy:         -66.30216943 Ha       -1804.17382564 eV
  | Hartree energy correction     :          -2.60599921 Ha         -70.91284649 eV
  | MPE non-electrostatic energy  :           0.00000000 Ha           0.00000000 eV
  | Entropy correction            :           0.00000000 Ha           0.00000000 eV
  | ---------------------------
  | Total energy                  :        -139.82543660 Ha       -3804.84371831 eV
  | Total energy, T -> 0          :        -139.82543660 Ha       -3804.84371831 eV  <-- do not rely on this value for anything but (periodic) metals
  | Electronic free energy        :        -139.82543660 Ha       -3804.84371831 eV

  Derived energy quantities:
  | Kinetic energy                :         139.63278959 Ha        3799.60152641 eV
  | Electrostatic energy          :        -262.60074968 Ha       -7145.72996942 eV
  | Energy correction for multipole
  | error in Hartree potential    :          -0.00535906 Ha          -0.14582756 eV
  | Sum of eigenvalues per atom                           :        -412.21000406 eV
  | Total energy (T->0) per atom                          :        -760.96874366 eV  <-- do not rely on this value for anything but (periodic) metals
  | Electronic free energy per atom                       :        -760.96874366 eV

  MPE Solvation Free Energy contributions:
  | MPE electrostatic energy      :           0.00000000 Ha           0.00000000 eV
  | MPE non-electrostatic energy  :           0.00000000 Ha           0.00000000 eV
  | MPE total energy              :           0.00000000 Ha           0.00000000 eV

  Self-consistency convergence accuracy:
  | Change of charge density      :  0.1624E-01
  | Change of sum of eigenvalues  : -0.1070E+01 eV
  | Change of total energy        :  0.2276E-02 eV

  End self-consistency iteration #     4       :  max(cpu_time)    wall_clock(cpu1)
  | Time for this iteration                    :        0.128 s           0.128 s
  | Charge density update                      :        0.040 s           0.040 s
  | Density mixing                             :        0.002 s           0.001 s
  | Hartree multipole update                   :        0.002 s           0.003 s
  | Hartree multipole summation                :        0.026 s           0.026 s
  | Integration                                :        0.055 s           0.055 s
  | Solution of K.-S. eqns.                    :        0.002 s           0.002 s
  | Total energy evaluation                    :        0.000 s           0.001 s

  Partial memory accounting:
  | Current value for overall tracked memory usage:
  |   Minimum:        0.155 MB (on task 7)
  |   Maximum:        0.165 MB (on task 2)
  |   Average:        0.161 MB
  | Peak value for overall tracked memory usage:
  |   Minimum:        0.853 MB (on task 7 after allocating gradient_basis_wave)
  |   Maximum:        0.863 MB (on task 2 after allocating gradient_basis_wave)
  |   Average:        0.860 MB
  | Largest tracked array allocation so far:
  |   Minimum:        0.524 MB (gradient_basis_wave on task 0)
  |   Maximum:        0.524 MB (gradient_basis_wave on task 0)
  |   Average:        0.524 MB
  Note:  These values currently only include a subset of arrays which are explicitly tracked.
  The "true" memory usage will be greater.
------------------------------------------------------------

------------------------------------------------------------
          Begin self-consistency iteration #    5

  Date     :  20190817, Time     :  153940.393
------------------------------------------------------------
  Evaluating new KS density.
  Integration grid: deviation in total charge (<rho> - N_e) =  -3.552714E-15
  Pulay mixing of updated and previous charge densities.
  Renormalizing the density to the exact electron count on the 3D integration grid.
  | Formal number of electrons (from input files) :      18.0000000000
  | Integrated number of electrons on 3D grid     :      18.0000000000
  | Charge integration error                      :      -0.0000000000
  | Normalization factor for density and gradient :       1.0000000000

  Evaluating partitioned Hartree potential by multipole expansion.
  | Original multipole sum: apparent total charge =  -0.213078E-13
  | Sum of charges compensated after spline to logarithmic grids =  -0.398943E-06
  | Analytical far-field extrapolation by fixed multipoles:
  | Hartree multipole sum: apparent total charge =  -0.210372E-13
  Summing up the Hartree potential.
  Time summed over all CPUs for potential: real work        0.206 s, elapsed        0.209 s
  | RMS charge density error from multipole expansion :   0.586459E-02

  Integrating Hamiltonian matrix: batch-based integration.
  Time summed over all CPUs for integration: real work        0.430 s, elapsed        0.442 s

  Updating Kohn-Sham eigenvalues and eigenvectors using ELSI and the ELPA eigensolver.
  Starting ELPA eigensolver
  Finished transformation to standard eigenproblem
  | Time :     0.000 s
  Finished solving standard eigenproblem
  | Time :     0.002 s
  Finished back-transformation of eigenvectors
  | Time :     0.000 s

  Obtaining occupation numbers and chemical potential using ELSI.
  | Chemical potential (Fermi level):    -3.94371922 eV
  Highest occupied state (VBM) at     -8.04379361 eV
  | Occupation number:      2.00000000

  Lowest unoccupied state (CBM) at    -0.02057898 eV
  | Occupation number:      0.00000000

  Overall HOMO-LUMO gap:      8.02321463 eV.

  Total energy components:
  | Sum of eigenvalues            :         -75.75773217 Ha       -2061.47277896 eV
  | XC energy correction          :         -16.85562072 Ha        -458.66477642 eV
  | XC potential correction       :          21.67998130 Ha         589.94230703 eV
  | Free-atom electrostatic energy:         -66.30216943 Ha       -1804.17382564 eV
  | Hartree energy correction     :          -2.58989385 Ha         -70.47459737 eV
  | MPE non-electrostatic energy  :           0.00000000 Ha           0.00000000 eV
  | Entropy correction            :           0.00000000 Ha           0.00000000 eV
  | ---------------------------
  | Total energy                  :        -139.82543488 Ha       -3804.84367136 eV
  | Total energy, T -> 0          :        -139.82543488 Ha       -3804.84367136 eV  <-- do not rely on this value for anything but (periodic) metals
  | Electronic free energy        :        -139.82543488 Ha       -3804.84367136 eV

  Derived energy quantities:
  | Kinetic energy                :         139.61533096 Ha        3799.12645289 eV
  | Electrostatic energy          :        -262.58514512 Ha       -7145.30534783 eV
  | Energy correction for multipole
  | error in Hartree potential    :          -0.00537605 Ha          -0.14628970 eV
  | Sum of eigenvalues per atom                           :        -412.29455579 eV
  | Total energy (T->0) per atom                          :        -760.96873427 eV  <-- do not rely on this value for anything but (periodic) metals
  | Electronic free energy per atom                       :        -760.96873427 eV

  MPE Solvation Free Energy contributions:
  | MPE electrostatic energy      :           0.00000000 Ha           0.00000000 eV
  | MPE non-electrostatic energy  :           0.00000000 Ha           0.00000000 eV
  | MPE total energy              :           0.00000000 Ha           0.00000000 eV

  Self-consistency convergence accuracy:
  | Change of charge density      :  0.2683E-02
  | Change of sum of eigenvalues  : -0.4228E+00 eV
  | Change of total energy        :  0.4694E-04 eV

  End self-consistency iteration #     5       :  max(cpu_time)    wall_clock(cpu1)
  | Time for this iteration                    :        0.131 s           0.131 s
  | Charge density update                      :        0.041 s           0.041 s
  | Density mixing                             :        0.002 s           0.003 s
  | Hartree multipole update                   :        0.002 s           0.002 s
  | Hartree multipole summation                :        0.026 s           0.026 s
  | Integration                                :        0.056 s           0.056 s
  | Solution of K.-S. eqns.                    :        0.003 s           0.002 s
  | Total energy evaluation                    :        0.000 s           0.000 s

  Partial memory accounting:
  | Current value for overall tracked memory usage:
  |   Minimum:        0.155 MB (on task 7)
  |   Maximum:        0.165 MB (on task 2)
  |   Average:        0.162 MB
  | Peak value for overall tracked memory usage:
  |   Minimum:        0.853 MB (on task 7 after allocating gradient_basis_wave)
  |   Maximum:        0.863 MB (on task 2 after allocating gradient_basis_wave)
  |   Average:        0.860 MB
  | Largest tracked array allocation so far:
  |   Minimum:        0.524 MB (gradient_basis_wave on task 0)
  |   Maximum:        0.524 MB (gradient_basis_wave on task 0)
  |   Average:        0.524 MB
  Note:  These values currently only include a subset of arrays which are explicitly tracked.
  The "true" memory usage will be greater.
------------------------------------------------------------

------------------------------------------------------------
          Begin self-consistency iteration #    6

  Date     :  20190817, Time     :  153940.524
------------------------------------------------------------
  Evaluating new KS density.
  Integration grid: deviation in total charge (<rho> - N_e) =   3.552714E-15
[...]
  | Integration                                :        0.056 s           0.055 s
  | Solution of K.-S. eqns.                    :        0.003 s           0.003 s
  | Total energy evaluation                    :        0.000 s           0.000 s

  Partial memory accounting:
  | Current value for overall tracked memory usage:
  |   Minimum:        0.157 MB (on task 7)
  |   Maximum:        3.065 MB (on task 0)
  |   Average:        0.865 MB
  | Peak value for overall tracked memory usage:
  |   Minimum:        3.369 MB (on task 7 after allocating work)
  |   Maximum:        9.108 MB (on task 0 after allocating work)
  |   Average:        5.611 MB
  | Largest tracked array allocation so far:
  |   Minimum:        3.212 MB (work on task 7)
  |   Maximum:        5.273 MB (work on task 0)
  |   Average:        4.316 MB
  Note:  These values currently only include a subset of arrays which are explicitly tracked.
  The "true" memory usage will be greater.
------------------------------------------------------------

------------------------------------------------------------
          Begin self-consistency iteration #   15

  Date     :  20190817, Time     :  153943.420
------------------------------------------------------------
  Evaluating new KS density.
  Integration grid: deviation in total charge (<rho> - N_e) =  -7.105427E-15
  Pulay mixing of updated and previous charge densities.
  Renormalizing the density to the exact electron count on the 3D integration grid.
  | Formal number of electrons (from input files) :      18.0000000000
  | Integrated number of electrons on 3D grid     :      18.0000000000
  | Charge integration error                      :      -0.0000000000
  | Normalization factor for density and gradient :       1.0000000000

  Evaluating partitioned Hartree potential by multipole expansion.
  | Original multipole sum: apparent total charge =  -0.311653E-13
  | Sum of charges compensated after spline to logarithmic grids =  -0.202385E-06
  | Analytical far-field extrapolation by fixed multipoles:
  | Hartree multipole sum: apparent total charge =  -0.308825E-13
  Updating MPE interface
    | Cavity update                              :        0.000 s           0.000 s
  | MPE Update                                 :        0.000 s           0.000 s
  Calculating reaction field coefficients
    determine problem dimensions
      in   #conditions    #variables     ratio
       1          1592           326     4.883
      total number of conditions:       1592
      total number of variables:         326
      ratio conds/vars:     4.883
      matrix block size:   512 x  512
    setting up right-hand side
  Allocating        0.004 MB for Right-Hand Side
  Allocating        0.002 MB for Setup of Right-Hand Side
  Allocating        0.002 MB for Temporary array of points for Hartree potential evaluation
  Allocating        0.001 MB for Evaluation of Hartree potential
  Deallocating        0.002 MB for Temporary array of points for Hartree potential evaluation
  Deallocating        0.001 MB for Evaluation of Hartree potential
  Deallocating        0.002 MB for Setup of Right-Hand Side
    | Setting up matrices                        :        0.005 s           0.005 s
    direct solution
    Discarding singular values below  0.119E-12
      The coefficient matrix of the MPE equations has full rank.
    | Direct solution                            :        0.003 s           0.003 s
  Total:  0.00000000E+00
    Coefficient 0 at irregular center   1 of basis 2: -0.45337817E-01
    Coefficient 0 at irregular center   2 of basis 2: -0.18076303E+01
    Coefficient 0 at irregular center   3 of basis 2:  0.74069791E+00
    Coefficient 0 at irregular center   4 of basis 2:  0.55613488E+00
    Coefficient 0 at irregular center   5 of basis 2:  0.55613488E+00
  Total: -0.41687917E-06
  Deallocating        0.004 MB for Right-Hand Side
    Statistical analysis:
                                  RMSD  0.15033E-02
                                    R2       0.9975
                                 adjR2       0.9969
    Sparsity analysis
              total number of elements           81
           number of non-zero elements           81
              over all sparsity factor  0.10000E+01
      by expansion centers
        center elements non-zero     factor
             1       81       81  0.100E+01
    | Time for fit analysis                      :        0.000 s           0.000 s
  | MPE Solver                                 :        0.009 s           0.009 s
  Summing up the Hartree potential.
  Time summed over all CPUs for potential: real work        1.478 s, elapsed        1.513 s
  | MPE Reaction field evaluation              :        0.088 s           0.090 s
    integrated electron density in dielectric regions
       i            name of region        electrons       %
      -----------------------------------------------------
       1      Inside Solute Cavity           17.510   97.28
       2            Dielectric 'Q'            0.490    2.72
      -----------------------------------------------------
          total integrated charge:           18.000  100.00
      expected number of electrons           18.000
                     discrepancy:   -0.24868996E-13
  | RMS charge density error from multipole expansion :   0.589028E-02

  Integrating Hamiltonian matrix: batch-based integration.
  Time summed over all CPUs for integration: real work        0.432 s, elapsed        0.443 s

  Updating Kohn-Sham eigenvalues and eigenvectors using ELSI and the ELPA eigensolver.
  Starting ELPA eigensolver
  Finished transformation to standard eigenproblem
  | Time :     0.001 s
  Finished solving standard eigenproblem
  | Time :     0.001 s
  Finished back-transformation of eigenvectors
  | Time :     0.001 s

  Obtaining occupation numbers and chemical potential using ELSI.
  | Chemical potential (Fermi level):    -3.63965621 eV
  Highest occupied state (VBM) at     -7.77365922 eV
  | Occupation number:      2.00000000

  Lowest unoccupied state (CBM) at     0.25714657 eV
  | Occupation number:      0.00000000

  Overall HOMO-LUMO gap:      8.03080578 eV.

  Total energy components:
  | Sum of eigenvalues            :         -75.56600835 Ha       -2056.25570824 eV
  | XC energy correction          :         -16.85681739 Ha        -458.69733955 eV
  | XC potential correction       :          21.68170309 Ha         589.98915932 eV
  | Free-atom electrostatic energy:         -66.30216943 Ha       -1804.17382564 eV
  | Hartree energy correction     :          -2.79232839 Ha         -75.98312156 eV
  | MPE non-electrostatic energy  :           0.00262757 Ha           0.07149989 eV
  | Entropy correction            :           0.00000000 Ha           0.00000000 eV
  | ---------------------------
  | Total energy                  :        -139.83299291 Ha       -3805.04933579 eV
  | Total energy, T -> 0          :        -139.83299291 Ha       -3805.04933579 eV  <-- do not rely on this value for anything but (periodic) metals
  | Electronic free energy        :        -139.83299291 Ha       -3805.04933579 eV

  Derived energy quantities:
  | Kinetic energy                :         139.71238834 Ha        3801.76751849 eV
  | Electrostatic energy          :        -262.69119142 Ha       -7148.19101463 eV
  | Energy correction for multipole
  | error in Hartree potential    :          -0.00538195 Ha          -0.14645036 eV
  | Sum of eigenvalues per atom                           :        -411.25114165 eV
  | Total energy (T->0) per atom                          :        -761.00986716 eV  <-- do not rely on this value for anything but (periodic) metals
  | Electronic free energy per atom                       :        -761.00986716 eV

  MPE Solvation Free Energy contributions:
  | MPE electrostatic energy      :          -0.01209140 Ha          -0.32902362 eV
  | MPE non-electrostatic energy  :           0.00262757 Ha           0.07149989 eV
  | MPE total energy              :          -0.00946382 Ha          -0.25752373 eV

  Self-consistency convergence accuracy:
  | Change of charge density      :  0.1171E-05
  | Change of sum of eigenvalues  : -0.6432E-04 eV
  | Change of total energy        :  0.4436E-08 eV

  Writing Kohn-Sham eigenvalues.

  State    Occupation    Eigenvalue [Ha]    Eigenvalue [eV]
      1       2.00000         -24.291760         -661.01242
      2       2.00000          -9.935809         -270.36711
      3       2.00000          -1.098533          -29.89261
      4       2.00000          -0.616314          -16.77076
      5       2.00000          -0.435803          -11.85879
      6       2.00000          -0.416704          -11.33910
      7       2.00000          -0.416687          -11.33864
      8       2.00000          -0.285717           -7.77476
      9       2.00000          -0.285677           -7.77366
     10       0.00000           0.009450            0.25715
     11       0.00000           0.034577            0.94090
     12       0.00000           0.050774            1.38162
     13       0.00000           0.050776            1.38167
     14       0.00000           0.132913            3.61674
     15       0.00000           0.142347            3.87346
     16       0.00000           0.142389            3.87461
     17       0.00000           0.182816            4.97467
     18       0.00000           0.182856            4.97577
     19       0.00000           0.221077            6.01581
     20       0.00000           0.249705            6.79483

  Highest occupied state (VBM) at     -7.77365922 eV
  | Occupation number:      2.00000000

  Lowest unoccupied state (CBM) at     0.25714657 eV
  | Occupation number:      0.00000000

  Overall HOMO-LUMO gap:      8.03080578 eV.

  Self-consistency cycle converged.

  End self-consistency iteration #    15       :  max(cpu_time)    wall_clock(cpu1)
  | Time for this iteration                    :        0.304 s           0.303 s
  | Charge density update                      :        0.041 s           0.041 s
  | Density mixing                             :        0.003 s           0.003 s
  | Hartree multipole update                   :        0.002 s           0.002 s
  | Hartree multipole summation                :        0.189 s           0.189 s
  | Integration                                :        0.056 s           0.056 s
  | Solution of K.-S. eqns.                    :        0.003 s           0.003 s
  | Total energy evaluation                    :        0.000 s           0.000 s

  Partial memory accounting:
  | Current value for overall tracked memory usage:
  |   Minimum:        0.157 MB (on task 7)
  |   Maximum:        3.065 MB (on task 0)
  |   Average:        0.865 MB
  | Peak value for overall tracked memory usage:
  |   Minimum:        3.369 MB (on task 7 after allocating work)
  |   Maximum:        9.108 MB (on task 0 after allocating work)
  |   Average:        5.611 MB
  | Largest tracked array allocation so far:
  |   Minimum:        3.212 MB (work on task 7)
  |   Maximum:        5.273 MB (work on task 0)
  |   Average:        4.316 MB
  Note:  These values currently only include a subset of arrays which are explicitly tracked.
  The "true" memory usage will be greater.
------------------------------------------------------------

  Energy and forces in a compact form:
  | Total energy uncorrected      :         -0.380504933579110E+04 eV
  | Total energy corrected        :         -0.380504933579110E+04 eV  <-- do not rely on this value for anything but (periodic) metals
  | Electronic free energy        :         -0.380504933579110E+04 eV

  ------------------------------------ 
  Start decomposition of the XC Energy 
  ------------------------------------ 
  X and C from original XC functional choice 
  Hartree-Fock Energy :          0.000000000 Ha              0.000000000 eV
  X Energy            :        -16.268630371 Ha           -442.691956309 eV
  C Energy            :         -0.588187023 Ha            -16.005383237 eV
  Total XC Energy     :        -16.856817394 Ha           -458.697339545 eV
  ------------------------------------ 
  LDA X and C from self-consistent density 
  X Energy LDA        :        -14.782212676 Ha           -402.244472891 eV
  C Energy LDA        :         -1.194135933 Ha            -32.494092012 eV
  ------------------------------------ 
  End decomposition of the XC Energy 
  ------------------------------------ 

------------------------------------------------------------
  Deallocating        1.273 MB for QR factorized Left-Hand Side
  Deallocating        0.811 MB for SVD: Left Singular Vectors
  Deallocating        0.811 MB for SVD: Right Singular Vectors
  |------------------------------------------------------
  | Final ELSI Output
  |------------------------------------------------------
  |
  | Physical Properties
  |   Number of electrons       :        0.18000000E+02
  |   Number of spins           :                     1
  |   Number of k-points        :                     1
  |   Number of states          :                    20
  |
  | Matrix Properties
  |   Matrix format             :           BLACS_DENSE
  |   Number of basis functions :                   123
  |   Matrix sparsity           :        0.25804746E+00
  |
  | Computational Details
  |   Parallel mode             :            MULTI_PROC
  |   Number of MPI tasks       :                     8
  |   Solver requested          :                  ELPA
  |   Number of ELSI calls      :                    16
  |
  |------------------------------------------------------
  | ELSI Project (c)  elsi-interchange.org
  |------------------------------------------------------

------------------------------------------------------------------------------
  Final output of selected total energy values:

  The following output summarizes some interesting total energy values
  at the end of a run (AFTER all relaxation, molecular dynamics, etc.).

  | Total energy of the DFT / Hartree-Fock s.c.f. calculation      :          -3805.049335791 eV
  | Final zero-broadening corrected energy (caution - metals only) :          -3805.049335791 eV
  | For reference only, the value of 1 Hartree used in FHI-aims is :             27.211384500 eV

  Before relying on these values, please be sure to understand exactly which
  total energy value is referred to by a given number. Different objects may
  all carry the same name 'total energy'. Definitions:

  Total energy of the DFT / Hartree-Fock s.c.f. calculation:
  | Note that this energy does not include ANY quantities calculated after the
  | s.c.f. cycle, in particular not ANY RPA, MP2, etc. many-body perturbation terms.

  Final zero-broadening corrected energy:
  | For metallic systems only, a broadening of the occupation numbers at the Fermi
  | level can be extrapolated back to zero broadening by an electron-gas inspired
  | formula. For all systems that are not real metals, this value can be
  | meaningless and should be avoided.

------------------------------------------------------------------------------
  Methods described in the following list of references were used in this FHI-aims run.
  If you publish the results, please make sure to cite these reference if they apply.
  FHI-aims is an academic code, and for our developers (often, Ph.D. students
  and postdocs), scientific credit in the community is essential.
  Thank you for helping us!

  For any use of FHI-aims, please cite:

    Volker Blum, Ralf Gehrke, Felix Hanke, Paula Havu, Ville Havu,
    Xinguo Ren, Karsten Reuter, and Matthias Scheffler
    'Ab initio molecular simulations with numeric atom-centered orbitals'
    Computer Physics Communications 180, 2175-2196 (2009)
    http://dx.doi.org/10.1016/j.cpc.2009.06.022


  For the MPE implicit solvation feature used in your run, please cite:

    M. Sinstein, C. Scheurer, S. Matera, V. Blum, K. Reuter, and H. Oberhofer
    'An efficient implicit solvation method for full potential DFT'
    Journal of Chemical Theory and Computation (2017).
    http://dx.doi.org/10.1021/acs.jctc.7b00297


  The ELSI infrastructure was used in your run to solve the Kohn-Sham electronic structure.
  Please check out http://elsi-interchange.org to learn more.
  If scalability is important for your project, please acknowledge ELSI by citing:

    V. W-z. Yu, F. Corsetti, A. Garcia, W. P. Huhn, M. Jacquelin, W. Jia,
    B. Lange, L. Lin, J. Lu, W. Mi, A. Seifitokaldani, A. Vazquez-Mayagoitia,
    C. Yang, H. Yang, and V. Blum
    'ELSI: A unified software interface for Kohn-Sham electronic structure solvers'
    Computer Physics Communications 222, 267-285 (2018).
    http://dx.doi.org/10.1016/j.cpc.2017.09.007


  For the real-space grid partitioning and parallelization used in this calculation, please cite:

    Ville Havu, Volker Blum, Paula Havu, and Matthias Scheffler,
    'Efficient O(N) integration for all-electron electronic structure calculation'
    'using numerically tabulated basis functions'
    Journal of Computational Physics 228, 8367-8379 (2009).
    http://dx.doi.org/10.1016/j.jcp.2009.08.008

  Of course, there are many other important community references, e.g., those cited in the
  above references. Our list is limited to references that describe implementations in the
  FHI-aims code. The reason is purely practical (length of this list) - please credit others as well.

------------------------------------------------------------
          Leaving FHI-aims.
          Date     :  20190817, Time     :  153943.734

          Computational steps:
          | Number of self-consistency cycles          :           15
          | Number of SCF (re)initializations          :            1

          Detailed time accounting                     :  max(cpu_time)    wall_clock(cpu1)
          | Total time                                 :        4.287 s           4.339 s
          | Preparation time                           :        0.228 s           0.227 s
          | Boundary condition initalization           :        0.000 s           0.000 s
          | Grid partitioning                          :        0.028 s           0.028 s
          | Preloading free-atom quantities on grid    :        0.012 s           0.012 s
          | Free-atom superposition energy             :        0.008 s           0.008 s
          | Total time for integrations                :        0.906 s           0.906 s
          | Total time for solution of K.-S. equations :        0.045 s           0.046 s
          | Total time for density update              :        0.608 s           0.607 s
          | Total time for mixing                      :        0.038 s           0.051 s
          | Total time for Hartree multipole update    :        0.036 s           0.040 s
          | Total time for Hartree multipole sum       :        2.037 s           2.036 s
          | Total time for total energy evaluation     :        0.002 s           0.002 s
          | Total time for scaled ZORA corrections     :        0.000 s           0.000 s

          Partial memory accounting:
          | Residual value for overall tracked memory usage across tasks:     0.000000 MB (should be 0.000000 MB)
          | Peak values for overall tracked memory usage:
          |   Minimum:        3.369 MB (on task 7 after allocating work)
          |   Maximum:        9.108 MB (on task 0 after allocating work)
          |   Average:        5.611 MB
          | Largest tracked array allocation:
          |   Minimum:        3.212 MB (work on task 7)
          |   Maximum:        5.273 MB (work on task 0)
          |   Average:        4.316 MB
          Note:  These values currently only include a subset of arrays which are explicitly tracked.
          The "true" memory usage will be greater.

          Have a nice day.
------------------------------------------------------------
