  MPI-parallelism will be employed.
------------------------------------------------------------
          Invoking FHI-aims ...
          Version 180101-
          Git rev. (modified): fa29f3a Merge branch master of fhiaims.rzberlin.mp[...]
          Compiled on 2018/01/19 at 14:47:46 on host theobook132.

          When using FHI-aims, please cite the following reference:

          Volker Blum, Ralf Gehrke, Felix Hanke, Paula Havu,
          Ville Havu, Xinguo Ren, Karsten Reuter, and Matthias Scheffler,
          'Ab Initio Molecular Simulations with Numeric Atom-Centered Orbitals',
          Computer Physics Communications 180, 2175-2196 (2009)

          For any questions about FHI-aims, please visit the aimsclub website
          with its forums and wiki. Contributions to both the forums and the
          wiki are warmly encouraged - they are for you, and everyone is welcome there.

------------------------------------------------------------



  Date     :  20180215, Time     :  214535.643
  Time zero on CPU 1             :   0.400000000000000E-01  s.
  Internal wall clock time zero  :           287963135.643  s.

  FHI-aims created a unique identifier for this run for later identification
  aims_uuid : 2DEE32E6-769D-43FE-ACA7-3595E0EE8DBA

  Using        8 parallel tasks.
  Task        0 on host theobook132 reporting.
  Task        1 on host theobook132 reporting.
  Task        2 on host theobook132 reporting.
  Task        3 on host theobook132 reporting.
  Task        4 on host theobook132 reporting.
  Task        5 on host theobook132 reporting.
  Task        6 on host theobook132 reporting.
  Task        7 on host theobook132 reporting.

  Performing system and environment tests:
  *** Environment variable OMP_NUM_THREADS is not set
  *** For performance reasons you might want to set it to 1
  | Stacksize not measured: no C compiler
  | Checking for scalapack...
  | No scalapack compiled in.

  Obtaining array dimensions for all initial allocations:
  
  -----------------------------------------------------------------------
  Parsing control.in (first pass over file, find array dimensions only).
  The contents of control.in will be repeated verbatim below
  unless switched off by setting 'verbatim_writeout .false.' .
  in the first line of control.in .
  -----------------------------------------------------------------------
  
  ################################################################################
  #
  #		Control.in generated by mkcontrol
  #
  ################################################################################
  xc			pbe
  vdw_correction_hirshfeld
  relativistic		none
  sc_accuracy_rho		1E-5
  sc_accuracy_eev		1E-3
  sc_accuracy_etot	1E-6
  sc_iter_limit		1000	
  
  compute_forces .true.
  final_forces_cleaned .true.
  
  ################################################################################
  #
  #  FHI-aims code project
  #  VB, Fritz-Haber Institut, 2009
  #
  #  Suggested "light" defaults for H atom (to be pasted into control.in file)
  #  Be sure to double-check any results obtained with these settings for post-processing,
  #  e.g., with the "tight" defaults and larger basis sets.
  #
  ################################################################################
    species        H
  #     global species definitions
      nucleus             1
      mass                1.00794
  #
      l_hartree           4
  #
      cut_pot             3.5  1.5  1.0
      basis_dep_cutoff    1e-4
  #
      radial_base         24 5.0
      radial_multiplier   1
      angular_grids       specified
        division   0.2421   50
        division   0.3822  110
        division   0.4799  194
        division   0.5341  302
  #      division   0.5626  434
  #      division   0.5922  590
  #      division   0.6542  770
  #      division   0.6868 1202
  #      outer_grid  770
        outer_grid  302
  ################################################################################
  #
  #  Definition of "minimal" basis
  #
  ################################################################################
  #     valence basis states
      valence      1  s   1.
  #     ion occupancy
      ion_occ      1  s   0.5
  ################################################################################
  #
  #  Suggested additional basis functions. For production calculations,
  #  uncomment them one after another (the most important basis functions are
  #  listed first).
  #
  #  Basis constructed for dimers: 0.5 A, 0.7 A, 1.0 A, 1.5 A, 2.5 A
  #
  ################################################################################
  #  "First tier" - improvements: -1014.90 meV to -62.69 meV
       hydro 2 s 2.1
       hydro 2 p 3.5
  #  "Second tier" - improvements: -12.89 meV to -1.83 meV
  #     hydro 1 s 0.85
  #     hydro 2 p 3.7
  #     hydro 2 s 1.2
  #     hydro 3 d 7
  #  "Third tier" - improvements: -0.25 meV to -0.12 meV
  #     hydro 4 f 11.2
  #     hydro 3 p 4.8
  #     hydro 4 d 9
  #     hydro 3 s 3.2
  
  ################################################################################
  #
  #  FHI-aims code project
  #  VB, Fritz-Haber Institut, 2009
  #
  #  Suggested "light" defaults for C atom (to be pasted into control.in file)
  #  Be sure to double-check any results obtained with these settings forpost-processing,
  #  e.g., with the "tight" defaults and larger basis sets.
  #
  ################################################################################
    species        C
  #     global species definitions
      nucleus             6
      mass                12.0107
  #
      l_hartree           4
  #
      cut_pot             3.5  1.5  1.0
      basis_dep_cutoff    1e-4
  #
      radial_base         34 5.0
      radial_multiplier   1
      angular_grids specified
        division   0.3326   50
        division   0.5710  110
        division   0.7727  194
        division   0.8772  302
  #      division   0.9334  434
  #      division   0.9625  590
  #      division   0.9924  770
  #      division   1.0230  974
  #      division   1.4589 1202
  #     outer_grid  974
       outer_grid 302
  ################################################################################
  #
  #  Definition of "minimal" basis
  #
  ################################################################################
  #     valence basis states
      valence      2  s   2.
      valence      2  p   2.
  #     ion occupancy
      ion_occ      2  s   1.
      ion_occ      2  p   1.
  ################################################################################
  #
  #  Suggested additional basis functions. For production calculations,
  #  uncomment them one after another (the most important basis functions are
  #  listed first).
  #
  #  Constructed for dimers: 1.0 A, 1.25 A, 1.5 A, 2.0 A, 3.0 A
  #
  ################################################################################
  #  "First tier" - improvements: -1214.57 meV to -155.61 meV
       hydro 2 p 1.7
       hydro 3 d 6
       hydro 2 s 4.9
  #  "Second tier" - improvements: -67.75 meV to -5.23 meV
  #     hydro 4 f 9.8
  #     hydro 3 p 5.2
  #     hydro 3 s 4.3
  #     hydro 5 g 14.4
  #     hydro 3 d 6.2
  #  "Third tier" - improvements: -2.43 meV to -0.60 meV
  #     hydro 2 p 5.6
  #     hydro 2 s 1.4
  #     hydro 3 d 4.9
  #     hydro 4 f 11.2
  #  "Fourth tier" - improvements: -0.39 meV to -0.18 meV
  #     hydro 2 p 2.1
  #     hydro 5 g 16.4
  #     hydro 4 d 13.2
  #     hydro 3 s 13.6
  #     hydro 4 f 17.6
  #  Further basis functions - improvements: -0.08 meV and below
  #     hydro 3 s 2
  #     hydro 3 p 6
  #     hydro 4 d 20
  
  -----------------------------------------------------------------------
  Completed first pass over input file control.in .
  -----------------------------------------------------------------------
  
  
  -----------------------------------------------------------------------
  Parsing geometry.in (first pass over file, find array dimensions only).
  The contents of geometry.in will be repeated verbatim below
  unless switched off by setting 'verbatim_writeout .false.' .
  in the first line of geometry.in .
  -----------------------------------------------------------------------
  
  #=======================================#
  # iterations/iteration0037/aims-chain-node-0.93513/geometry.in
  #=======================================#
  atom -0.2721337761419785 -1.5669882166984939 -0.4036213049463167 C
  atom -0.1144853909582642 -0.6618662844133187 0.7823063127932665 C
  atom 0.1144853909653803 0.6618662844080161 0.7823063127965958 C
  atom 0.2721337761394331 1.5669882167009255 -0.4036213049383259 C
  atom -0.1992776323004324 -1.0372644775958448 -1.3621267892599545 H
  atom -1.2470476748122625 -2.0798667797160575 -0.3767845579763817 H
  atom 0.4954551346362698 -2.3577836592435562 -0.3976614466122680 H
  atom -0.1987416589002426 -1.1529526591305739 1.7578877859791622 H
  atom 0.1987416589131878 1.1529526591194541 1.7578877859849258 H
  atom 0.1992776323117568 1.0372644776015159 -1.3621267892547777 H
  atom -0.4954551346530282 2.3577836592321728 -0.3976614466047431 H
  atom 1.2470476748001766 2.0798667797357666 -0.3767845579611799 H
  
  -----------------------------------------------------------------------
  Completed first pass over input file geometry.in .
  -----------------------------------------------------------------------
  

  Basic array size parameters:
  | Number of species                 :        2
  | Number of atoms                   :       12
  | Max. basis fn. angular momentum   :        2
  | Max. atomic/ionic basis occupied n:        2
  | Max. number of basis fn. types    :        2
  | Max. radial fns per species/type  :        3
  | Max. logarithmic grid size        :     1277
  | Max. radial integration grid size :       34
  | Max. angular integration grid size:      302
  | Max. angular grid division number :        8
  | Radial grid for Hartree potential :     1277
  | Number of spin channels           :        1

------------------------------------------------------------
          Reading file control.in.
------------------------------------------------------------
  XC: Using PBE gradient-corrected functionals.
  Non-relativistic treatment of kinetic energy.
  Convergence accuracy of self-consistent charge density:  0.1000E-04
  Convergence accuracy of sum of eigenvalues:  0.1000E-02
  Convergence accuracy of total energy:  0.1000E-05
  Maximum number of s.-c. iterations  :  1000
  Forces will be computed.
  Cleaning forces before final output.
 
  Reading configuration options for species H                   .
  | Found nuclear charge :   1.0000
  | Found atomic mass :    1.00794000000000      amu
  | Found l_max for Hartree potential  :   4
  | Found cutoff potl. onset [A], width [A], scale factor :    3.50000    1.50000    1.00000
  | Threshold for basis-dependent cutoff potential is   0.100000E-03
  | Found data for basic radial integration grid :    24 points, outermost radius =    5.000 A
  | Found multiplier for basic radial grid :   1
  | Found angular grid specification: user-specified.
  | Specified grid contains     5 separate shells.
  | Check grid settings after all constraints further below.
  | Found free-atom valence shell :  1 s   1.000
  | No ionic wave fns used. Skipping ion_occ.
  | Found hydrogenic basis function :  2 s   2.100
  | Found hydrogenic basis function :  2 p   3.500
  Species H                   : Missing cutoff potential type.
  Defaulting to exp(1/x)/(1-x)^2 type cutoff potential.
  Species H : No 'logarithmic' tag. Using default grid for free atom:
  | Default logarithmic grid data [bohr] : 0.1000E-03 0.1000E+03 0.1012E+01
  Species H : On-site basis accuracy parameter (for Gram-Schmidt orthonormalisation) not specified.
  Using default value basis_acc =  0.1000000E-03.
  Species H                   : Using default innermost maximum threshold i_radial=  2 for radial functions.
  Species H                   : Default cutoff onset for free atom density etc. : 0.35000000E+01 AA.
  Species H                   : Basic radial grid will be enhanced according to radial_multiplier =   1, to contain    24 grid points.
 
  Reading configuration options for species C                   .
  | Found nuclear charge :   6.0000
  | Found atomic mass :    12.0107000000000      amu
  | Found l_max for Hartree potential  :   4
  | Found cutoff potl. onset [A], width [A], scale factor :    3.50000    1.50000    1.00000
  | Threshold for basis-dependent cutoff potential is   0.100000E-03
  | Found data for basic radial integration grid :    34 points, outermost radius =    5.000 A
  | Found multiplier for basic radial grid :   1
  | Found angular grid specification: user-specified.
  | Specified grid contains     5 separate shells.
  | Check grid settings after all constraints further below.
  | Found free-atom valence shell :  2 s   2.000
  | Found free-atom valence shell :  2 p   2.000
  | No ionic wave fns used. Skipping ion_occ.
  | No ionic wave fns used. Skipping ion_occ.
  | Found hydrogenic basis function :  2 p   1.700
  | Found hydrogenic basis function :  3 d   6.000
  | Found hydrogenic basis function :  2 s   4.900
  Species C                   : Missing cutoff potential type.
  Defaulting to exp(1/x)/(1-x)^2 type cutoff potential.
  Species C : No 'logarithmic' tag. Using default grid for free atom:
  | Default logarithmic grid data [bohr] : 0.1000E-03 0.1000E+03 0.1012E+01
  Species C : On-site basis accuracy parameter (for Gram-Schmidt orthonormalisation) not specified.
  Using default value basis_acc =  0.1000000E-03.
  Species C                   : Using default innermost maximum threshold i_radial=  2 for radial functions.
  Species C                   : Default cutoff onset for free atom density etc. : 0.35000000E+01 AA.
  Species C                   : Basic radial grid will be enhanced according to radial_multiplier =   1, to contain    34 grid points.
 
  Finished reading input file 'control.in'. Consistency checks are next.
 
  MPI_IN_PLACE appears to work with this MPI implementation.
  | Keeping use_mpi_in_place .true. (see manual).
  Target number of points in a grid batch is not set. Defaulting to  100
  Method for grid partitioning is not set. Defaulting to parallel hash+maxmin partitioning.
  Batch size limit is not set. Defaulting to    200
  By default, will store active basis functions for each batch.
  If in need of memory, prune_basis_once .false. can be used to disable this option.
  communication_type for Hartree potential was not specified.
  Defaulting to calc_hartree .
  Defaulting to Pulay charge density mixer.
  Pulay mixer: Number of relevant iterations not set.
  Defaulting to    8 iterations.
  Pulay mixer: Number of initial linear mixing iterations not set.
  Defaulting to    0 iterations.
  Work space size for distributed Hartree potential not set.
  Defaulting to   0.200000E+03 MB.
  Mixing parameter for charge density mixing has not been set.
  Using default: charge_mix_param =     0.0500.
  The mixing parameter will be adjusted in iteration number     2 of the first full s.c.f. cycle only.
  Algorithm-dependent basis array size parameters:
  | n_max_pulay                         :        8
  Presetting        40 iterations before the initial mixing cycle
  is restarted anyway using the sc_init_iter criterion / keyword.
  Presetting a factor      1.000 between actual scf density residual
  and density convergence criterion sc_accuracy_rho below which sc_init_iter
  takes no effect.
  Geometry relaxation not requested: no relaxation will be performed.
  Force calculation: scf convergence accuracy of forces not set.
  Defaulting to 'sc_accuracy_forces not_checked'.
  Handling of forces: Unphysical translation and rotation will be removed from forces.
  No accuracy limit for integral partition fn. given. Defaulting to  0.1000E-14.
  No threshold value for u(r) in integrations given. Defaulting to  0.1000E-05.
  No occupation type (smearing scheme) given. Defaulting to Gaussian broadening, width =  0.1000E-01 eV.
  The width will be adjusted in iteration number     2 of the first full s.c.f. cycle only.
  S.C.F. convergence parameters will be adjusted in iteration number     2 of the first full s.c.f. cycle only.
  No accuracy for occupation numbers given. Defaulting to  0.1000E-12.
  No threshold value for occupation numbers given. Defaulting to  0.0000E+00.
  No accuracy for fermi level given. Defaulting to  0.1000E-19.
  Maximum # of iterations to find E_F not set. Defaulting to  200.
  Preferred method for the eigenvalue solver ('KS_method') not specified in 'control.in'.
  Calling BLACS routine to test compilation state
  The best choice would be 'elsi', but your version of FHI-aims is compiled without ScaLAPACK support.
  Defaulting to 'lapack_fast' instead (serial solution, time will not improve with more CPUs).
  Will not use alltoall communication since running on < 1024 CPUs.
  Threshold for basis singularities not set.
  Default threshold for basis singularities:  0.1000E-04
  partition_type (choice of integration weights) for integrals was not specified.
  | Using a version of the partition function of Stratmann and coworkers ('stratmann_smoother').
  | At each grid point, the set of atoms used to build the partition table is smoothly restricted to
  | only those atoms whose free-atom density would be non-zero at that grid point.
  Partitioning for Hartree potential was not defined. Using partition_type for integrals.
  | Adjusted default value of keyword multip_moments_threshold to:       0.10000000E-11
  | This value may affect high angular momentum components of the Hartree potential in periodic systems.
  Spin handling was not defined in control.in. Defaulting to unpolarized case.
  No q(lm)/r^(l+1) cutoff set for long-range Hartree potential.
  | Using default value of  0.100000E-09 .
  | Verify using the multipole_threshold keyword.
  Defaulting to new monopole extrapolation.
  Density update method: automatic selection selected.
------------------------------------------------------------


------------------------------------------------------------
          Reading geometry description geometry.in.
------------------------------------------------------------
  Input structure read successfully.
  The structure contains       12 atoms,  and a total of         32.000 electrons.

  Input geometry:
  | No unit cell requested.
  | Atomic structure:
  |       Atom                x [A]            y [A]            z [A]
  |    1: Species C            -0.27213378       -1.56698822       -0.40362130
  |    2: Species C            -0.11448539       -0.66186628        0.78230631
  |    3: Species C             0.11448539        0.66186628        0.78230631
  |    4: Species C             0.27213378        1.56698822       -0.40362130
  |    5: Species H            -0.19927763       -1.03726448       -1.36212679
  |    6: Species H            -1.24704767       -2.07986678       -0.37678456
  |    7: Species H             0.49545513       -2.35778366       -0.39766145
  |    8: Species H            -0.19874166       -1.15295266        1.75788779
  |    9: Species H             0.19874166        1.15295266        1.75788779
  |   10: Species H             0.19927763        1.03726448       -1.36212679
  |   11: Species H            -0.49545513        2.35778366       -0.39766145
  |   12: Species H             1.24704767        2.07986678       -0.37678456
  |

  | The smallest distance between any two atoms is         1.09545614 AA.
  |
  | The first atom of this pair is atom number                      2 .
  | The second atom of this pair is atom number                     8 .

  Number of empty states per atom not set in control.in - providing a guess from actual geometry.
  | Total number of empty states used during s.c.f. cycle:       24
  If you use a very high smearing, use empty_states (per atom!) in control.in to increase this value.

  Structure-dependent array size parameters: 
  | Maximum number of distinct radial functions  :        9
  | Maximum number of basis functions            :       96
  | Number of Kohn-Sham states (occupied + empty):       40
------------------------------------------------------------

------------------------------------------------------------
          Preparing all fixed parts of the calculation.
------------------------------------------------------------
  Determining machine precision:
    2.225073858507201E-308
  Setting up grids for atomic and cluster calculations.

  Creating wave function, potential, and density for free atoms.

  Species: H

  List of occupied orbitals and eigenvalues:
    n    l              occ      energy [Ha]    energy [eV]
    1    0           1.0000        -0.237589        -6.4651


  Species: C

  List of occupied orbitals and eigenvalues:
    n    l              occ      energy [Ha]    energy [eV]
    1    0           2.0000       -10.038835      -273.1706
    2    0           2.0000        -0.502696       -13.6791
    2    1           2.0000        -0.191971        -5.2238

  Creating fixed part of basis set: Ionic, confined, hydrogenic.
 
  H                    hydrogenic:
 
  List of hydrogenic basis orbitals: 
    n    l      effective z      eigenvalue [eV]  inner max. [A]     outer max. [A]     outer radius [A]   
    2    0         2.100000       -14.9728           0.193243           1.317208           4.583499
    2    1         3.500000       -41.6669           0.602369           0.602369           3.723403
 
 
  C                    hydrogenic:
 
  List of hydrogenic basis orbitals: 
    n    l      effective z      eigenvalue [eV]  inner max. [A]     outer max. [A]     outer radius [A]   
    2    1         1.700000        -9.7616           1.230570           1.230570           4.607917
    3    2         6.000000       -54.4224           0.792453           0.792453           3.883070
    2    0         4.900000       -81.6679           0.082559           0.562749           3.078220
 

  Adding cutoff potential to free-atom effective potential.
  Creating atomic-like basis functions for current effective potential.

  Species H                   :

  List of atomic basis orbitals and eigenvalues:
    n    l      energy [Ha]    energy [eV]    outer radius [A]
    1    0        -0.237589        -6.4651       4.527807


  Species C                   :

  List of atomic basis orbitals and eigenvalues:
    n    l      energy [Ha]    energy [eV]    outer radius [A]
    1    0       -10.038835      -273.1706       1.934409
    2    0        -0.502696       -13.6791       4.496620
    2    1        -0.191971        -5.2238       4.551928

  Assembling full basis from fixed parts.
  | Species H :   atomic orbital   1 s accepted.
  | Species H :    hydro orbital   2 s accepted.
  | Species H :    hydro orbital   2 p accepted.
  | Species C :   atomic orbital   1 s accepted.
  | Species C :    hydro orbital   2 s accepted.
  | Species C :   atomic orbital   2 s accepted.
  | Species C :   atomic orbital   2 p accepted.
  | Species C :    hydro orbital   2 p accepted.
  | Species C :    hydro orbital   3 d accepted.
 
  Basis size parameters after reduction:
  | Total number of radial functions:        9
  | Total number of basis functions :       96
 
  Per-task memory consumption for arrays in subroutine allocate_ext:
  |           2.209696MB.
  Testing on-site integration grid accuracy.
  |  Species  Function  <phi|h_atom|phi> (log., in eV)  <phi|h_atom|phi> (rad., in eV)
           1        1                 -6.4663192853                 -6.4651273558
           1        2                 13.7111246313                 13.7170609718
           1        3                 25.2673269279                 25.2674696378
           2        4               -273.1705927641               -273.1705631568
           2        5                -10.7109323383                -10.7107120029
           2        6                 17.4381822266                 17.4352413244
           2        7                 -5.2255326521                 -5.2270484734
           2        8                  8.6835629259                  8.6603288385
           2        9                 27.4952418996                 27.4953360207

  Preparing densities etc. for the partition functions (integrals / Hartree potential).

  Preparations completed.
  max(cpu_time)          :      0.124 s.
  Wall clock time (cpu1) :      0.157 s.
------------------------------------------------------------

------------------------------------------------------------
          Begin self-consistency loop: Initialization.

          Date     :  20180215, Time     :  214535.815
------------------------------------------------------------

  Initializing index lists of integration centers etc. from given atomic structure:
  | Number of centers in hartree potential         :        12
  | Number of centers in hartree multipole         :        12
  | Number of centers in electron density summation:        12
  | Number of centers in basis integrals           :        12
  | Number of centers in integrals                 :        12
  | Number of centers in hamiltonian               :        12
  Partitioning the integration grid into batches with parallel hashing+maxmin method.
  | Number of batches:      796
  | Maximal batch size:     172
  | Minimal batch size:      53
  | Average batch size:      76.563
  | Standard deviation of batch sizes:      21.026

  Integration load balanced across     8 MPI tasks.
  Work distribution over tasks is as follows:
  Task     0 has       7581 integration points.
  Task     1 has       7651 integration points.
  Task     2 has       7646 integration points.
  Task     3 has       7586 integration points.
  Task     4 has       7582 integration points.
  Task     5 has       7652 integration points.
  Task     6 has       7564 integration points.
  Task     7 has       7682 integration points.
  Initializing partition tables, free-atom densities, potentials, etc. across the integration grid (initialize_grid_storage).
  | initialize_grid_storage: Actual outermost partition radius vs. multipole_radius_free
  | (-- VB: in principle, multipole_radius_free should be larger, hence this output)
  | Species        1: Confinement radius =              4.999999999999999 AA, multipole_radius_free =              5.054417573612229 AA.
  | Species        1: outer_partition_radius set to              5.054417573612229 AA .
  | Species        2: Confinement radius =              4.999999999999999 AA, multipole_radius_free =              5.019602836301480 AA.
  | Species        2: outer_partition_radius set to              5.019602836301480 AA .
  | Original list of interatomic distances with          12 x         12 entries is created.
  | Net number of integration points:    60944
  | of which are non-zero points    :    52364
  Renormalizing the initial density to the exact electron count on the 3D integration grid.
  | Initial density: Formal number of electrons (from input files) :      32.0000000000
  | Integrated number of electrons on 3D grid     :      31.9998868224
  | Charge integration error                      :      -0.0001131776
  | Normalization factor for density and gradient :       1.0000035368
  Obtaining max. number of non-zero basis functions in each batch (get_n_compute_maxes).
  | Maximal number of non-zero basis functions:       96 in task     0
  | Maximal number of non-zero basis functions:       96 in task     1
  | Maximal number of non-zero basis functions:       96 in task     2
  | Maximal number of non-zero basis functions:       96 in task     3
  | Maximal number of non-zero basis functions:       96 in task     4
  | Maximal number of non-zero basis functions:       96 in task     5
  | Maximal number of non-zero basis functions:       96 in task     6
  | Maximal number of non-zero basis functions:       96 in task     7
  Selecting the method for density update.
  Loop over occupied states selected for charge density update.
  Allocating        0.031 MB for KS_eigenvector
  Integrating Hamiltonian matrix: batch-based integration.
  Time summed over all CPUs for integration: real work        1.363 s, elapsed        1.479 s
  Integrating overlap matrix.
  Time summed over all CPUs for integration: real work        0.532 s, elapsed        0.596 s

  Updating Kohn-Sham eigenvalues, eigenvectors, occupation numbers, and Fermi level.
  Solving generalized eigenproblem
  Updating Kohn-Sham eigenvalues and eigenfunctions.
  Transforming overlap matrix and checking for singularities.
  Overlap matrix is nonsingular:
  | Lowest eigenvalue:  0.299054E-02
  Solving real generalised eigenvalue problem by standard LAPACK (fast)

  Obtaining occupation numbers and chemical potential using ELSI.
  | Chemical potential (Fermi level):    -8.52834324eV
  Writing Kohn-Sham eigenvalues.

  State    Occupation    Eigenvalue [Ha]    Eigenvalue [eV]
      1       2.00000         -10.166756         -276.65150
      2       2.00000         -10.166756         -276.65150
      3       2.00000         -10.151232         -276.22906
      4       2.00000         -10.150594         -276.21172
      5       2.00000          -0.927373          -25.23511
      6       2.00000          -0.850875          -23.15349
      7       2.00000          -0.795384          -21.64350
      8       2.00000          -0.656406          -17.86172
      9       2.00000          -0.611702          -16.64526
     10       2.00000          -0.574131          -15.62291
     11       2.00000          -0.546971          -14.88383
     12       2.00000          -0.533589          -14.51970
     13       2.00000          -0.526057          -14.31473
     14       2.00000          -0.503410          -13.69849
     15       2.00000          -0.478771          -13.02803
     16       2.00000          -0.385657          -10.49427
     17       0.00000          -0.177008           -4.81663
     18       0.00000          -0.047710           -1.29826
     19       0.00000          -0.032799           -0.89251
     20       0.00000          -0.002719           -0.07398
     21       0.00000           0.003836            0.10438
     22       0.00000           0.015603            0.42457
     23       0.00000           0.026924            0.73265
     24       0.00000           0.030239            0.82284
     25       0.00000           0.033911            0.92275
     26       0.00000           0.058275            1.58575
     27       0.00000           0.132410            3.60307
     28       0.00000           0.164706            4.48188
     29       0.00000           0.188936            5.14121
     30       0.00000           0.204840            5.57397
     31       0.00000           0.238686            6.49497
     32       0.00000           0.279908            7.61667
     33       0.00000           0.280252            7.62604
     34       0.00000           0.299137            8.13995
     35       0.00000           0.302604            8.23428
     36       0.00000           0.315779            8.59278
     37       0.00000           0.404540           11.00811
     38       0.00000           0.445148           12.11310
     39       0.00000           0.508595           13.83958
     40       0.00000           0.521618           14.19396

  Highest occupied state (VBM) at    -10.49427055 eV
  | Occupation number:      2.00000000

  Lowest unoccupied state (CBM) at    -4.81662789 eV
  | Occupation number:      0.00000000

  Overall HOMO-LUMO gap:      5.67764266 eV.
  Calculating total energy contributions from superposition of free atom densities.

  Total energy components:
  | Sum of eigenvalues            :         -96.05132758 Ha       -2613.68960655 eV
  | XC energy correction          :         -23.66209292 Ha        -643.87830857 eV
  | XC potential correction       :          30.39632808 Ha         827.12617078 eV
  | Free-atom electrostatic energy:         -68.00913547 Ha       -1850.62273477 eV
  | Hartree energy correction     :           0.00000000 Ha           0.00000000 eV
  | vdW energy correction         :           0.00000000 Ha           0.00000000 eV
  | Entropy correction            :           0.00000000 Ha           0.00000000 eV
  | ---------------------------
  | Total energy                  :        -157.32622789 Ha       -4281.06447911 eV
  | Total energy, T -> 0          :        -157.32622789 Ha       -4281.06447911 eV  <-- do not rely on this value for anything but (periodic) metals
  | Electronic free energy        :        -157.32622789 Ha       -4281.06447911 eV

  Derived energy quantities:
  | Kinetic energy                :         154.19753891 Ha        4195.92852032 eV
  | Electrostatic energy          :        -287.86167388 Ha       -7833.11469085 eV
  | Energy correction for multipole
  | error in Hartree potential    :           0.00000000 Ha           0.00000000 eV
  | Sum of eigenvalues per atom                           :        -217.80746721 eV
  | Total energy (T->0) per atom                          :        -356.75537326 eV  <-- do not rely on this value for anything but (periodic) metals
  | Electronic free energy per atom                       :        -356.75537326 eV
  Initialize hartree_potential_storage
  Max. number of atoms included in rho_multipole:           12

  End scf initialization - timings             :  max(cpu_time)    wall_clock(cpu1)
  | Time for scf. initialization               :        0.464 s           0.472 s
  | Boundary condition initialization          :        0.000 s           0.001 s
  | Integration                                :        0.276 s           0.281 s
  | Solution of K.-S. eqns.                    :        0.012 s           0.011 s
  | Grid partitioning                          :        0.068 s           0.070 s
  | Preloading free-atom quantities on grid    :        0.004 s           0.003 s
  | Free-atom superposition energy             :        0.024 s           0.024 s
  | Total energy evaluation                    :        0.000 s           0.000 s

  Partial memory accounting:
  | Current value for overall tracked memory usage on task 0  :           0.179 MB
  | Peak value for overall tracked memory usage on task 0     :           0.578 MB after allocating wave
  | Largest tracked array allocation on task 0 so far         :           0.132 MB  when allocating H_times_psi
  Note:  These values currently only include a subset of arrays which are explicitly tracked.
  The "true" memory usage will be greater.
------------------------------------------------------------

------------------------------------------------------------
          Begin self-consistency iteration #    1

  Date     :  20180215, Time     :  214536.287
------------------------------------------------------------
  Evaluating new KS density.
  Integration grid: deviation in total charge (<rho> - N_e) =   1.421085E-14
  Pulay mixing of updated and previous charge densities.

  Evaluating partitioned Hartree potential by multipole expansion.
  | Analytical far-field extrapolation by fixed multipoles:
  | Hartree multipole sum: apparent total charge =  -0.143687E-03
  Summing up the Hartree potential.
  Time summed over all CPUs for potential: real work        1.352 s, elapsed        1.636 s
  | RMS charge density error from multipole expansion :   0.135033E-02

  Integrating Hamiltonian matrix: batch-based integration.
  Time summed over all CPUs for integration: real work        1.619 s, elapsed        2.153 s => Consider using load balancing!

  Updating Kohn-Sham eigenvalues, eigenvectors, occupation numbers, and Fermi level.
  Solving generalized eigenproblem
  Updating Kohn-Sham eigenvalues and eigenfunctions.
  Solving real generalised eigenvalue problem by standard LAPACK (fast)

  Obtaining occupation numbers and chemical potential using ELSI.
  | Chemical potential (Fermi level):    -8.12640196eV
  Writing Kohn-Sham eigenvalues.

  State    Occupation    Eigenvalue [Ha]    Eigenvalue [eV]
      1       2.00000         -10.131929         -275.70382
      2       2.00000         -10.131929         -275.70382
      3       2.00000         -10.121778         -275.42758
      4       2.00000         -10.121140         -275.41022
      5       2.00000          -0.907072          -24.68268
      6       2.00000          -0.831917          -22.63763
      7       2.00000          -0.776111          -21.11905
      8       2.00000          -0.639412          -17.39928
      9       2.00000          -0.594732          -16.18347
     10       2.00000          -0.554073          -15.07708
     11       2.00000          -0.530459          -14.43451
     12       2.00000          -0.517202          -14.07379
     13       2.00000          -0.508578          -13.83910
     14       2.00000          -0.486795          -13.24637
     15       2.00000          -0.461633          -12.56166
     16       2.00000          -0.368542          -10.02853
     17       0.00000          -0.160485           -4.36703
     18       0.00000          -0.038774           -1.05509
     19       0.00000          -0.023479           -0.63888
     20       0.00000           0.005889            0.16024
     21       0.00000           0.020296            0.55229
     22       0.00000           0.025517            0.69434
     23       0.00000           0.038236            1.04044
     24       0.00000           0.040167            1.09299
     25       0.00000           0.044364            1.20721
     26       0.00000           0.069534            1.89211
     27       0.00000           0.145450            3.95789
     28       0.00000           0.174396            4.74555
     29       0.00000           0.201048            5.47080
     30       0.00000           0.215236            5.85687
     31       0.00000           0.252178            6.86212
     32       0.00000           0.290409            7.90242
     33       0.00000           0.291061            7.92019
     34       0.00000           0.309413            8.41954
     35       0.00000           0.319885            8.70450
     36       0.00000           0.325501            8.85732
     37       0.00000           0.416122           11.32325
     38       0.00000           0.457768           12.45651
     39       0.00000           0.519404           14.13369
     40       0.00000           0.534690           14.54965

  Highest occupied state (VBM) at    -10.02853210 eV
  | Occupation number:      2.00000000

  Lowest unoccupied state (CBM) at    -4.36702929 eV
  | Occupation number:      0.00000000

  Overall HOMO-LUMO gap:      5.66150282 eV.

  Total energy components:
  | Sum of eigenvalues            :         -95.36659850 Ha       -2595.05718026 eV
  | XC energy correction          :         -23.72238175 Ha        -645.51885117 eV
  | XC potential correction       :          30.47445777 Ha         829.25218770 eV
  | Free-atom electrostatic energy:         -68.00913547 Ha       -1850.62273477 eV
  | Hartree energy correction     :          -0.65345112 Ha         -17.78130975 eV
  | vdW energy correction         :           0.00000000 Ha           0.00000000 eV
  | Entropy correction            :           0.00000000 Ha           0.00000000 eV
  | ---------------------------
  | Total energy                  :        -157.27710908 Ha       -4279.72788825 eV
  | Total energy, T -> 0          :        -157.27710908 Ha       -4279.72788825 eV  <-- do not rely on this value for anything but (periodic) metals
  | Electronic free energy        :        -157.27710908 Ha       -4279.72788825 eV

  Derived energy quantities:
  | Kinetic energy                :         154.52486861 Ha        4204.83561459 eV
  | Electrostatic energy          :        -288.07959594 Ha       -7839.04465166 eV
  | Energy correction for multipole
  | error in Hartree potential    :           0.00233619 Ha           0.06357083 eV
  | Sum of eigenvalues per atom                           :        -216.25476502 eV
  | Total energy (T->0) per atom                          :        -356.64399069 eV  <-- do not rely on this value for anything but (periodic) metals
  | Electronic free energy per atom                       :        -356.64399069 eV

  Self-consistency convergence accuracy:
  | Change of charge density      :  0.4877E+00
  | Change of sum of eigenvalues  :  0.1863E+02 eV
  | Change of total energy        :  0.1337E+01 eV

  End self-consistency iteration #     1       :  max(cpu_time)    wall_clock(cpu1)
  | Time for this iteration                    :        0.736 s           0.766 s
  | Charge density update                      :        0.176 s           0.174 s
  | Density mixing                             :        0.004 s           0.023 s
  | Hartree multipole update                   :        0.032 s           0.032 s
  | Hartree multipole summation                :        0.220 s           0.222 s
  | Integration                                :        0.280 s           0.302 s
  | Solution of K.-S. eqns.                    :        0.004 s           0.001 s
  | Total energy evaluation                    :        0.004 s           0.011 s

  Partial memory accounting:
  | Current value for overall tracked memory usage on task 0  :           0.179 MB
  | Peak value for overall tracked memory usage on task 0     :           0.708 MB after allocating gradient_basis_wave
  | Largest tracked array allocation on task 0 so far         :           0.396 MB  when allocating gradient_basis_wave
  Note:  These values currently only include a subset of arrays which are explicitly tracked.
  The "true" memory usage will be greater.
------------------------------------------------------------

------------------------------------------------------------
          Begin self-consistency iteration #    2

  Date     :  20180215, Time     :  214537.054
------------------------------------------------------------
  Evaluating new KS density.
  Integration grid: deviation in total charge (<rho> - N_e) =   0.000000E+00
  Pulay mixing of updated and previous charge densities.

  Evaluating partitioned Hartree potential by multipole expansion.
  | Analytical far-field extrapolation by fixed multipoles:
  | Hartree multipole sum: apparent total charge =  -0.409402E-03
  Summing up the Hartree potential.
  Time summed over all CPUs for potential: real work        1.498 s, elapsed        2.249 s
  | RMS charge density error from multipole expansion :   0.132317E-01

  Integrating Hamiltonian matrix: batch-based integration.
  Time summed over all CPUs for integration: real work        1.430 s, elapsed        1.704 s

  Updating Kohn-Sham eigenvalues, eigenvectors, occupation numbers, and Fermi level.
  Solving generalized eigenproblem
  Updating Kohn-Sham eigenvalues and eigenfunctions.
  Solving real generalised eigenvalue problem by standard LAPACK (fast)

  Obtaining occupation numbers and chemical potential using ELSI.
  | Chemical potential (Fermi level):    -4.60173453eV
  Highest occupied state (VBM) at     -6.20806639 eV
  | Occupation number:      2.00000000

  Lowest unoccupied state (CBM) at    -0.70411333 eV
  | Occupation number:      0.00000000

  Overall HOMO-LUMO gap:      5.50395306 eV.

  Checking to see if s.c.f. parameters should be adjusted.
  The system likely has a gap. Increased the default Pulay mixing parameter (charge_mix_param). Value:   0.200000 .
  Kept the default occupation width. Value:   0.010000 eV.

  Total energy components:
  | Sum of eigenvalues            :         -89.67420485 Ha       -2440.15926794 eV
  | XC energy correction          :         -24.27532408 Ha        -660.56517739 eV
  | XC potential correction       :          31.19065824 Ha         848.74099409 eV
  | Free-atom electrostatic energy:         -68.00913547 Ha       -1850.62273477 eV
  | Hartree energy correction     :          -6.30827879 Ha        -171.65699981 eV
  | vdW energy correction         :           0.00000000 Ha           0.00000000 eV
  | Entropy correction            :           0.00000000 Ha           0.00000000 eV
  | ---------------------------
  | Total energy                  :        -157.07628496 Ha       -4274.26318581 eV
  | Total energy, T -> 0          :        -157.07628496 Ha       -4274.26318581 eV  <-- do not rely on this value for anything but (periodic) metals
  | Electronic free energy        :        -157.07628496 Ha       -4274.26318581 eV

  Derived energy quantities:
  | Kinetic energy                :         156.92973099 Ha        4270.27524953 eV
  | Electrostatic energy          :        -289.73069187 Ha       -7883.97325795 eV
  | Energy correction for multipole
  | error in Hartree potential    :           0.02206334 Ha           0.60037393 eV
  | Sum of eigenvalues per atom                           :        -203.34660566 eV
  | Total energy (T->0) per atom                          :        -356.18859882 eV  <-- do not rely on this value for anything but (periodic) metals
  | Electronic free energy per atom                       :        -356.18859882 eV

  Self-consistency convergence accuracy:
  | Change of charge density      :  0.4487E+00
  | Change of sum of eigenvalues  :  0.1549E+03 eV
  | Change of total energy        :  0.5465E+01 eV

  End self-consistency iteration #     2       :  max(cpu_time)    wall_clock(cpu1)
  | Time for this iteration                    :        0.820 s           0.875 s
  | Charge density update                      :        0.264 s           0.286 s
  | Density mixing                             :        0.004 s           0.003 s
  | Hartree multipole update                   :        0.052 s           0.050 s
  | Hartree multipole summation                :        0.304 s           0.304 s
  | Integration                                :        0.228 s           0.228 s
  | Solution of K.-S. eqns.                    :        0.004 s           0.002 s
  | Total energy evaluation                    :        0.000 s           0.001 s

  Partial memory accounting:
  | Current value for overall tracked memory usage on task 0  :           0.180 MB
  | Peak value for overall tracked memory usage on task 0     :           0.708 MB after allocating gradient_basis_wave
  | Largest tracked array allocation on task 0 so far         :           0.396 MB  when allocating gradient_basis_wave
  Note:  These values currently only include a subset of arrays which are explicitly tracked.
  The "true" memory usage will be greater.
------------------------------------------------------------

------------------------------------------------------------
          Begin self-consistency iteration #    3

  Date     :  20180215, Time     :  214537.930
------------------------------------------------------------
  Evaluating new KS density.
  Integration grid: deviation in total charge (<rho> - N_e) =   0.000000E+00
  Pulay mixing of updated and previous charge densities.

  Evaluating partitioned Hartree potential by multipole expansion.
  | Analytical far-field extrapolation by fixed multipoles:
  | Hartree multipole sum: apparent total charge =  -0.397020E-03
  Summing up the Hartree potential.
  Time summed over all CPUs for potential: real work        1.271 s, elapsed        1.444 s
  | RMS charge density error from multipole expansion :   0.164517E-01

  Integrating Hamiltonian matrix: batch-based integration.
  Time summed over all CPUs for integration: real work        1.378 s, elapsed        1.805 s => Consider using load balancing!

  Updating Kohn-Sham eigenvalues, eigenvectors, occupation numbers, and Fermi level.
  Solving generalized eigenproblem
  Updating Kohn-Sham eigenvalues and eigenfunctions.
  Solving real generalised eigenvalue problem by standard LAPACK (fast)

  Obtaining occupation numbers and chemical potential using ELSI.
  | Chemical potential (Fermi level):    -5.06258476eV
  Highest occupied state (VBM) at     -6.85769226 eV
  | Occupation number:      2.00000000

  Lowest unoccupied state (CBM) at    -1.33383673 eV
  | Occupation number:      0.00000000

  Overall HOMO-LUMO gap:      5.52385553 eV.

  Total energy components:
  | Sum of eigenvalues            :         -90.62591550 Ha       -2466.05663228 eV
  | XC energy correction          :         -24.23338852 Ha        -659.42405287 eV
  | XC potential correction       :          31.13268981 Ha         847.16359304 eV
  | Free-atom electrostatic energy:         -68.00913547 Ha       -1850.62273477 eV
  | Hartree energy correction     :          -5.33475520 Ha        -145.16607503 eV
  | vdW energy correction         :           0.00000000 Ha           0.00000000 eV
  | Entropy correction            :           0.00000000 Ha           0.00000000 eV
  | ---------------------------
  | Total energy                  :        -157.07050488 Ha       -4274.10590190 eV
  | Total energy, T -> 0          :        -157.07050488 Ha       -4274.10590190 eV  <-- do not rely on this value for anything but (periodic) metals
  | Electronic free energy        :        -157.07050488 Ha       -4274.10590190 eV

  Derived energy quantities:
  | Kinetic energy                :         156.28054889 Ha        4252.61010576 eV
  | Electrostatic energy          :        -289.11766525 Ha       -7867.29195479 eV
  | Energy correction for multipole
  | error in Hartree potential    :           0.02662356 Ha           0.72446406 eV
  | Sum of eigenvalues per atom                           :        -205.50471936 eV
  | Total energy (T->0) per atom                          :        -356.17549183 eV  <-- do not rely on this value for anything but (periodic) metals
  | Electronic free energy per atom                       :        -356.17549183 eV

  Self-consistency convergence accuracy:
  | Change of charge density      :  0.2106E+00
  | Change of sum of eigenvalues  : -0.2590E+02 eV
  | Change of total energy        :  0.1573E+00 eV

  End self-consistency iteration #     3       :  max(cpu_time)    wall_clock(cpu1)
  | Time for this iteration                    :        0.640 s           0.641 s
  | Charge density update                      :        0.184 s           0.183 s
  | Density mixing                             :        0.008 s           0.005 s
  | Hartree multipole update                   :        0.012 s           0.011 s
  | Hartree multipole summation                :        0.196 s           0.193 s
  | Integration                                :        0.240 s           0.241 s
  | Solution of K.-S. eqns.                    :        0.004 s           0.005 s
  | Total energy evaluation                    :        0.000 s           0.003 s

  Partial memory accounting:
  | Current value for overall tracked memory usage on task 0  :           0.180 MB
  | Peak value for overall tracked memory usage on task 0     :           0.708 MB after allocating gradient_basis_wave
  | Largest tracked array allocation on task 0 so far         :           0.396 MB  when allocating gradient_basis_wave
  Note:  These values currently only include a subset of arrays which are explicitly tracked.
  The "true" memory usage will be greater.
------------------------------------------------------------

------------------------------------------------------------
          Begin self-consistency iteration #    4

  Date     :  20180215, Time     :  214538.572
------------------------------------------------------------
  Evaluating new KS density.
  Integration grid: deviation in total charge (<rho> - N_e) =   2.842171E-14
  Pulay mixing of updated and previous charge densities.

  Evaluating partitioned Hartree potential by multipole expansion.
  | Analytical far-field extrapolation by fixed multipoles:
  | Hartree multipole sum: apparent total charge =  -0.470850E-03
  Summing up the Hartree potential.
  Time summed over all CPUs for potential: real work        1.283 s, elapsed        1.423 s
  | RMS charge density error from multipole expansion :   0.221844E-01

  Integrating Hamiltonian matrix: batch-based integration.
  Time summed over all CPUs for integration: real work        1.396 s, elapsed        1.622 s

  Updating Kohn-Sham eigenvalues, eigenvectors, occupation numbers, and Fermi level.
  Solving generalized eigenproblem
  Updating Kohn-Sham eigenvalues and eigenfunctions.
  Solving real generalised eigenvalue problem by standard LAPACK (fast)

  Obtaining occupation numbers and chemical potential using ELSI.
  | Chemical potential (Fermi level):    -4.41494537eV
  Highest occupied state (VBM) at     -6.20823059 eV
  | Occupation number:      2.00000000

  Lowest unoccupied state (CBM) at    -0.71583650 eV
  | Occupation number:      0.00000000

  Overall HOMO-LUMO gap:      5.49239409 eV.

  Total energy components:
  | Sum of eigenvalues            :         -89.71452953 Ha       -2441.25655829 eV
  | XC energy correction          :         -24.37153373 Ha        -663.18317517 eV
  | XC potential correction       :          31.30930855 Ha         851.96963335 eV
  | Free-atom electrostatic energy:         -68.00913547 Ha       -1850.62273477 eV
  | Hartree energy correction     :          -6.27412798 Ha        -170.72770899 eV
  | vdW energy correction         :           0.00000000 Ha           0.00000000 eV
  | Entropy correction            :           0.00000000 Ha           0.00000000 eV
  | ---------------------------
  | Total energy                  :        -157.06001817 Ha       -4273.82054387 eV
  | Total energy, T -> 0          :        -157.06001817 Ha       -4273.82054387 eV  <-- do not rely on this value for anything but (periodic) metals
  | Electronic free energy        :        -157.06001817 Ha       -4273.82054387 eV

  Derived energy quantities:
  | Kinetic energy                :         156.35644481 Ha        4254.67533868 eV
  | Electrostatic energy          :        -289.04492924 Ha       -7865.31270739 eV
  | Energy correction for multipole
  | error in Hartree potential    :           0.03433287 Ha           0.93424486 eV
  | Sum of eigenvalues per atom                           :        -203.43804652 eV
  | Total energy (T->0) per atom                          :        -356.15171199 eV  <-- do not rely on this value for anything but (periodic) metals
  | Electronic free energy per atom                       :        -356.15171199 eV

  Self-consistency convergence accuracy:
  | Change of charge density      :  0.1270E+00
  | Change of sum of eigenvalues  :  0.2480E+02 eV
  | Change of total energy        :  0.2854E+00 eV

  End self-consistency iteration #     4       :  max(cpu_time)    wall_clock(cpu1)
  | Time for this iteration                    :        0.644 s           0.657 s
  | Charge density update                      :        0.204 s           0.203 s
  | Density mixing                             :        0.008 s           0.006 s
  | Hartree multipole update                   :        0.012 s           0.011 s
  | Hartree multipole summation                :        0.216 s           0.216 s
  | Integration                                :        0.220 s           0.217 s
  | Solution of K.-S. eqns.                    :        0.004 s           0.002 s
  | Total energy evaluation                    :        0.000 s           0.001 s

  Partial memory accounting:
  | Current value for overall tracked memory usage on task 0  :           0.180 MB
  | Peak value for overall tracked memory usage on task 0     :           0.708 MB after allocating gradient_basis_wave
  | Largest tracked array allocation on task 0 so far         :           0.396 MB  when allocating gradient_basis_wave
  Note:  These values currently only include a subset of arrays which are explicitly tracked.
  The "true" memory usage will be greater.
------------------------------------------------------------

------------------------------------------------------------
          Begin self-consistency iteration #    5

  Date     :  20180215, Time     :  214539.230
------------------------------------------------------------
  Evaluating new KS density.
  Integration grid: deviation in total charge (<rho> - N_e) =   1.421085E-14
  Pulay mixing of updated and previous charge densities.

  Evaluating partitioned Hartree potential by multipole expansion.
  | Analytical far-field extrapolation by fixed multipoles:
  | Hartree multipole sum: apparent total charge =  -0.501352E-03
  Summing up the Hartree potential.
  Time summed over all CPUs for potential: real work        1.298 s, elapsed        1.557 s
  | RMS charge density error from multipole expansion :   0.229176E-01

  Integrating Hamiltonian matrix: batch-based integration.
  Time summed over all CPUs for integration: real work        1.330 s, elapsed        1.417 s

  Updating Kohn-Sham eigenvalues, eigenvectors, occupation numbers, and Fermi level.
  Solving generalized eigenproblem
  Updating Kohn-Sham eigenvalues and eigenfunctions.
  Solving real generalised eigenvalue problem by standard LAPACK (fast)

  Obtaining occupation numbers and chemical potential using ELSI.
  | Chemical potential (Fermi level):    -4.20222301eV
  Highest occupied state (VBM) at     -5.93998033 eV
  | Occupation number:      2.00000000

  Lowest unoccupied state (CBM) at    -0.44900879 eV
  | Occupation number:      0.00000000

  Overall HOMO-LUMO gap:      5.49097154 eV.

  Total energy components:
  | Sum of eigenvalues            :         -89.43508743 Ha       -2433.65255188 eV
  | XC energy correction          :         -24.39536052 Ha        -663.83153521 eV
  | XC potential correction       :          31.34022679 Ha         852.81096148 eV
  | Free-atom electrostatic energy:         -68.00913547 Ha       -1850.62273477 eV
  | Hartree energy correction     :          -6.55929271 Ha        -178.48743596 eV
  | vdW energy correction         :           0.00000000 Ha           0.00000000 eV
  | Entropy correction            :           0.00000000 Ha           0.00000000 eV
  | ---------------------------
  | Total energy                  :        -157.05864934 Ha       -4273.78329634 eV
  | Total energy, T -> 0          :        -157.05864934 Ha       -4273.78329634 eV  <-- do not rely on this value for anything but (periodic) metals
  | Electronic free energy        :        -157.05864934 Ha       -4273.78329634 eV

  Derived energy quantities:
  | Kinetic energy                :         156.32862235 Ha        4253.91825110 eV
  | Electrostatic energy          :        -288.99191117 Ha       -7863.87001223 eV
  | Energy correction for multipole
  | error in Hartree potential    :           0.03393333 Ha           0.92337278 eV
  | Sum of eigenvalues per atom                           :        -202.80437932 eV
  | Total energy (T->0) per atom                          :        -356.14860803 eV  <-- do not rely on this value for anything but (periodic) metals
  | Electronic free energy per atom                       :        -356.14860803 eV

  Self-consistency convergence accuracy:
  | Change of charge density      :  0.3402E-01
  | Change of sum of eigenvalues  :  0.7604E+01 eV
  | Change of total energy        :  0.3725E-01 eV

  End self-consistency iteration #     5       :  max(cpu_time)    wall_clock(cpu1)
  | Time for this iteration                    :        0.676 s           0.676 s
  | Charge density update                      :        0.212 s           0.210 s
  | Density mixing                             :        0.008 s           0.008 s
  | Hartree multipole update                   :        0.020 s           0.017 s
  | Hartree multipole summation                :        0.208 s           0.208 s
  | Integration                                :        0.228 s           0.228 s
  | Solution of K.-S. eqns.                    :        0.004 s           0.003 s
  | Total energy evaluation                    :        0.004 s           0.001 s

  Partial memory accounting:
  | Current value for overall tracked memory usage on task 0  :           0.180 MB
  | Peak value for overall tracked memory usage on task 0     :           0.708 MB after allocating gradient_basis_wave
  | Largest tracked array allocation on task 0 so far         :           0.396 MB  when allocating gradient_basis_wave
  Note:  These values currently only include a subset of arrays which are explicitly tracked.
  The "true" memory usage will be greater.
------------------------------------------------------------

------------------------------------------------------------
          Begin self-consistency iteration #    6

  Date     :  20180215, Time     :  214539.907
------------------------------------------------------------
  Evaluating new KS density.
  Integration grid: deviation in total charge (<rho> - N_e) =   7.105427E-15
  Pulay mixing of updated and previous charge densities.

  Evaluating partitioned Hartree potential by multipole expansion.
  | Analytical far-field extrapolation by fixed multipoles:
  | Hartree multipole sum: apparent total charge =  -0.519714E-03
  Summing up the Hartree potential.
  Time summed over all CPUs for potential: real work        1.267 s, elapsed        1.363 s
  | RMS charge density error from multipole expansion :   0.231954E-01

  Integrating Hamiltonian matrix: batch-based integration.
  Time summed over all CPUs for integration: real work        1.403 s, elapsed        1.720 s

  Updating Kohn-Sham eigenvalues, eigenvectors, occupation numbers, and Fermi level.
  Solving generalized eigenproblem
  Updating Kohn-Sham eigenvalues and eigenfunctions.
  Solving real generalised eigenvalue problem by standard LAPACK (fast)

  Obtaining occupation numbers and chemical potential using ELSI.
  | Chemical potential (Fermi level):    -4.12288626eV
  Highest occupied state (VBM) at     -5.86658768 eV
  | Occupation number:      2.00000000

  Lowest unoccupied state (CBM) at    -0.37597349 eV
  | Occupation number:      0.00000000

  Overall HOMO-LUMO gap:      5.49061419 eV.

  Total energy components:
  | Sum of eigenvalues            :         -89.34969842 Ha       -2431.32899855 eV
  | XC energy correction          :         -24.40449288 Ha        -664.08003933 eV
  | XC potential correction       :          31.35206625 Ha         853.13312951 eV
  | Free-atom electrostatic energy:         -68.00913547 Ha       -1850.62273477 eV
  | Hartree energy correction     :          -6.64717648 Ha        -180.87887491 eV
  | vdW energy correction         :           0.00000000 Ha           0.00000000 eV
  | Entropy correction            :           0.00000000 Ha           0.00000000 eV
  | ---------------------------
  | Total energy                  :        -157.05843700 Ha       -4273.77751806 eV
  | Total energy, T -> 0          :        -157.05843700 Ha       -4273.77751806 eV  <-- do not rely on this value for anything but (periodic) metals
  | Electronic free energy        :        -157.05843700 Ha       -4273.77751806 eV

  Derived energy quantities:
  | Kinetic energy                :         156.28318664 Ha        4252.68188246 eV
  | Electrostatic energy          :        -288.93713075 Ha       -7862.37936118 eV
  | Energy correction for multipole
  | error in Hartree potential    :           0.03319119 Ha           0.90317825 eV
  | Sum of eigenvalues per atom                           :        -202.61074988 eV
  | Total energy (T->0) per atom                          :        -356.14812650 eV  <-- do not rely on this value for anything but (periodic) metals
  | Electronic free energy per atom                       :        -356.14812650 eV

  Self-consistency convergence accuracy:
  | Change of charge density      :  0.1525E-01
  | Change of sum of eigenvalues  :  0.2324E+01 eV
  | Change of total energy        :  0.5778E-02 eV

  End self-consistency iteration #     6       :  max(cpu_time)    wall_clock(cpu1)
  | Time for this iteration                    :        0.688 s           0.688 s
  | Charge density update                      :        0.244 s           0.241 s
  | Density mixing                             :        0.012 s           0.014 s
  | Hartree multipole update                   :        0.020 s           0.017 s
  | Hartree multipole summation                :        0.184 s           0.183 s
  | Integration                                :        0.232 s           0.230 s
  | Solution of K.-S. eqns.                    :        0.004 s           0.002 s
  | Total energy evaluation                    :        0.000 s           0.001 s

  Partial memory accounting:
  | Current value for overall tracked memory usage on task 0  :           0.180 MB
  | Peak value for overall tracked memory usage on task 0     :           0.708 MB after allocating gradient_basis_wave
  | Largest tracked array allocation on task 0 so far         :           0.396 MB  when allocating gradient_basis_wave
  Note:  These values currently only include a subset of arrays which are explicitly tracked.
  The "true" memory usage will be greater.
------------------------------------------------------------

------------------------------------------------------------
          Begin self-consistency iteration #    7

  Date     :  20180215, Time     :  214540.596
------------------------------------------------------------
  Evaluating new KS density.
  Integration grid: deviation in total charge (<rho> - N_e) =   0.000000E+00
  Pulay mixing of updated and previous charge densities.

  Evaluating partitioned Hartree potential by multipole expansion.
  | Analytical far-field extrapolation by fixed multipoles:
  | Hartree multipole sum: apparent total charge =  -0.523450E-03
  Summing up the Hartree potential.
  Time summed over all CPUs for potential: real work        1.287 s, elapsed        1.577 s
  | RMS charge density error from multipole expansion :   0.231787E-01

  Integrating Hamiltonian matrix: batch-based integration.
  Time summed over all CPUs for integration: real work        1.352 s, elapsed        1.444 s

  Updating Kohn-Sham eigenvalues, eigenvectors, occupation numbers, and Fermi level.
  Solving generalized eigenproblem
  Updating Kohn-Sham eigenvalues and eigenfunctions.
  Solving real generalised eigenvalue problem by standard LAPACK (fast)

  Obtaining occupation numbers and chemical potential using ELSI.
  | Chemical potential (Fermi level):    -4.10199568eV
  Highest occupied state (VBM) at     -5.84100813 eV
  | Occupation number:      2.00000000

  Lowest unoccupied state (CBM) at    -0.35067922 eV
  | Occupation number:      0.00000000

  Overall HOMO-LUMO gap:      5.49032891 eV.

  Total energy components:
  | Sum of eigenvalues            :         -89.32257806 Ha       -2430.59101615 eV
  | XC energy correction          :         -24.40618672 Ha        -664.12613095 eV
  | XC potential correction       :          31.35432164 Ha         853.19450195 eV
  | Free-atom electrostatic energy:         -68.00913547 Ha       -1850.62273477 eV
  | Hartree energy correction     :          -6.67481502 Ha        -181.63095800 eV
  | vdW energy correction         :           0.00000000 Ha           0.00000000 eV
  | Entropy correction            :           0.00000000 Ha           0.00000000 eV
  | ---------------------------
  | Total energy                  :        -157.05839363 Ha       -4273.77633792 eV
  | Total energy, T -> 0          :        -157.05839363 Ha       -4273.77633792 eV  <-- do not rely on this value for anything but (periodic) metals
  | Electronic free energy        :        -157.05839363 Ha       -4273.77633792 eV

  Derived energy quantities:
  | Kinetic energy                :         156.28262057 Ha        4252.66647911 eV
  | Electrostatic energy          :        -288.93482748 Ha       -7862.31668608 eV
  | Energy correction for multipole
  | error in Hartree potential    :           0.03294649 Ha           0.89651947 eV
  | Sum of eigenvalues per atom                           :        -202.54925135 eV
  | Total energy (T->0) per atom                          :        -356.14802816 eV  <-- do not rely on this value for anything but (periodic) metals
  | Electronic free energy per atom                       :        -356.14802816 eV

  Self-consistency convergence accuracy:
  | Change of charge density      :  0.6934E-02
  | Change of sum of eigenvalues  :  0.7380E+00 eV
  | Change of total energy        :  0.1180E-02 eV

  End self-consistency iteration #     7       :  max(cpu_time)    wall_clock(cpu1)
  | Time for this iteration                    :        0.628 s           0.629 s
  | Charge density update                      :        0.196 s           0.195 s
  | Density mixing                             :        0.012 s           0.011 s
  | Hartree multipole update                   :        0.012 s           0.012 s
  | Hartree multipole summation                :        0.216 s           0.214 s
  | Integration                                :        0.196 s           0.193 s
  | Solution of K.-S. eqns.                    :        0.004 s           0.002 s
  | Total energy evaluation                    :        0.000 s           0.000 s

  Partial memory accounting:
  | Current value for overall tracked memory usage on task 0  :           0.180 MB
  | Peak value for overall tracked memory usage on task 0     :           0.708 MB after allocating gradient_basis_wave
  | Largest tracked array allocation on task 0 so far         :           0.396 MB  when allocating gradient_basis_wave
  Note:  These values currently only include a subset of arrays which are explicitly tracked.
  The "true" memory usage will be greater.
------------------------------------------------------------

------------------------------------------------------------
          Begin self-consistency iteration #    8

  Date     :  20180215, Time     :  214541.225
------------------------------------------------------------
  Evaluating new KS density.
  Integration grid: deviation in total charge (<rho> - N_e) =   7.105427E-15
  Pulay mixing of updated and previous charge densities.

  Evaluating partitioned Hartree potential by multipole expansion.
  | Analytical far-field extrapolation by fixed multipoles:
  | Hartree multipole sum: apparent total charge =  -0.533527E-03
  Summing up the Hartree potential.
  Time summed over all CPUs for potential: real work        1.263 s, elapsed        1.332 s
  | RMS charge density error from multipole expansion :   0.232315E-01

  Integrating Hamiltonian matrix: batch-based integration.
  Time summed over all CPUs for integration: real work        1.372 s, elapsed        1.571 s

  Updating Kohn-Sham eigenvalues, eigenvectors, occupation numbers, and Fermi level.
  Solving generalized eigenproblem
  Updating Kohn-Sham eigenvalues and eigenfunctions.
  Solving real generalised eigenvalue problem by standard LAPACK (fast)

  Obtaining occupation numbers and chemical potential using ELSI.
  | Chemical potential (Fermi level):    -4.04666727eV
  Highest occupied state (VBM) at     -5.77316190 eV
  | Occupation number:      2.00000000

  Lowest unoccupied state (CBM) at    -0.28483270 eV
  | Occupation number:      0.00000000

  Overall HOMO-LUMO gap:      5.48832920 eV.

  Total energy components:
  | Sum of eigenvalues            :         -89.25153543 Ha       -2428.65784776 eV
  | XC energy correction          :         -24.41269369 Ha        -664.30319475 eV
  | XC potential correction       :          31.36284049 Ha         853.42631152 eV
  | Free-atom electrostatic energy:         -68.00913547 Ha       -1850.62273477 eV
  | Hartree energy correction     :          -6.74781656 Ha        -183.61743100 eV
  | vdW energy correction         :           0.00000000 Ha           0.00000000 eV
  | Entropy correction            :           0.00000000 Ha           0.00000000 eV
  | ---------------------------
  | Total energy                  :        -157.05834066 Ha       -4273.77489675 eV
  | Total energy, T -> 0          :        -157.05834066 Ha       -4273.77489675 eV  <-- do not rely on this value for anything but (periodic) metals
  | Electronic free energy        :        -157.05834066 Ha       -4273.77489675 eV

  Derived energy quantities:
  | Kinetic energy                :         156.28324988 Ha        4252.68360329 eV
  | Electrostatic energy          :        -288.92889685 Ha       -7862.15530529 eV
  | Energy correction for multipole
  | error in Hartree potential    :           0.03251189 Ha           0.88469366 eV
  | Sum of eigenvalues per atom                           :        -202.38815398 eV
  | Total energy (T->0) per atom                          :        -356.14790806 eV  <-- do not rely on this value for anything but (periodic) metals
  | Electronic free energy per atom                       :        -356.14790806 eV

  Self-consistency convergence accuracy:
  | Change of charge density      :  0.5426E-02
  | Change of sum of eigenvalues  :  0.1933E+01 eV
  | Change of total energy        :  0.1441E-02 eV

  End self-consistency iteration #     8       :  max(cpu_time)    wall_clock(cpu1)
  | Time for this iteration                    :        0.628 s           0.626 s
  | Charge density update                      :        0.212 s           0.208 s
  | Density mixing                             :        0.012 s           0.013 s
  | Hartree multipole update                   :        0.012 s           0.012 s
  | Hartree multipole summation                :        0.180 s           0.179 s
  | Integration                                :        0.212 s           0.210 s
  | Solution of K.-S. eqns.                    :        0.004 s           0.002 s
  | Total energy evaluation                    :        0.000 s           0.001 s

  Partial memory accounting:
  | Current value for overall tracked memory usage on task 0  :           0.180 MB
  | Peak value for overall tracked memory usage on task 0     :           0.708 MB after allocating gradient_basis_wave
  | Largest tracked array allocation on task 0 so far         :           0.396 MB  when allocating gradient_basis_wave
  Note:  These values currently only include a subset of arrays which are explicitly tracked.
  The "true" memory usage will be greater.
------------------------------------------------------------

------------------------------------------------------------
          Begin self-consistency iteration #    9

  Date     :  20180215, Time     :  214541.852
------------------------------------------------------------
  Evaluating new KS density.
  Integration grid: deviation in total charge (<rho> - N_e) =   2.131628E-14
  Pulay mixing of updated and previous charge densities.

  Evaluating partitioned Hartree potential by multipole expansion.
  | Analytical far-field extrapolation by fixed multipoles:
  | Hartree multipole sum: apparent total charge =  -0.535799E-03
  Summing up the Hartree potential.
  Time summed over all CPUs for potential: real work        1.260 s, elapsed        1.304 s
  | RMS charge density error from multipole expansion :   0.232440E-01

  Integrating Hamiltonian matrix: batch-based integration.
  Time summed over all CPUs for integration: real work        1.322 s, elapsed        1.418 s

  Updating Kohn-Sham eigenvalues, eigenvectors, occupation numbers, and Fermi level.
  Solving generalized eigenproblem
  Updating Kohn-Sham eigenvalues and eigenfunctions.
  Solving real generalised eigenvalue problem by standard LAPACK (fast)

  Obtaining occupation numbers and chemical potential using ELSI.
  | Chemical potential (Fermi level):    -4.03389238eV
  Highest occupied state (VBM) at     -5.75858005 eV
  | Occupation number:      2.00000000

  Lowest unoccupied state (CBM) at    -0.27092704 eV
  | Occupation number:      0.00000000

  Overall HOMO-LUMO gap:      5.48765301 eV.

  Total energy components:
  | Sum of eigenvalues            :         -89.23434804 Ha       -2428.19015520 eV
  | XC energy correction          :         -24.41448105 Ha        -664.35183116 eV
  | XC potential correction       :          31.36517038 Ha         853.48971100 eV
  | Free-atom electrostatic energy:         -68.00913547 Ha       -1850.62273477 eV
  | Hartree energy correction     :          -6.76554496 Ha        -184.09984513 eV
  | vdW energy correction         :           0.00000000 Ha           0.00000000 eV
  | Entropy correction            :           0.00000000 Ha           0.00000000 eV
  | ---------------------------
  | Total energy                  :        -157.05833914 Ha       -4273.77485526 eV
  | Total energy, T -> 0          :        -157.05833914 Ha       -4273.77485526 eV  <-- do not rely on this value for anything but (periodic) metals
  | Electronic free energy        :        -157.05833914 Ha       -4273.77485526 eV

  Derived energy quantities:
  | Kinetic energy                :         156.28629551 Ha        4252.76647916 eV
  | Electrostatic energy          :        -288.93015360 Ha       -7862.18950325 eV
  | Energy correction for multipole
  | error in Hartree potential    :           0.03244236 Ha           0.88280142 eV
  | Sum of eigenvalues per atom                           :        -202.34917960 eV
  | Total energy (T->0) per atom                          :        -356.14790460 eV  <-- do not rely on this value for anything but (periodic) metals
  | Electronic free energy per atom                       :        -356.14790460 eV

  Self-consistency convergence accuracy:
  | Change of charge density      :  0.1082E-02
  | Change of sum of eigenvalues  :  0.4677E+00 eV
  | Change of total energy        :  0.4149E-04 eV

  End self-consistency iteration #     9       :  max(cpu_time)    wall_clock(cpu1)
  | Time for this iteration                    :        0.596 s           0.595 s
  | Charge density update                      :        0.200 s           0.199 s
  | Density mixing                             :        0.016 s           0.014 s
  | Hartree multipole update                   :        0.012 s           0.011 s
  | Hartree multipole summation                :        0.180 s           0.178 s
  | Integration                                :        0.192 s           0.190 s
  | Solution of K.-S. eqns.                    :        0.004 s           0.002 s
  | Total energy evaluation                    :        0.000 s           0.001 s

  Partial memory accounting:
  | Current value for overall tracked memory usage on task 0  :           0.180 MB
  | Peak value for overall tracked memory usage on task 0     :           0.708 MB after allocating gradient_basis_wave
  | Largest tracked array allocation on task 0 so far         :           0.396 MB  when allocating gradient_basis_wave
  Note:  These values currently only include a subset of arrays which are explicitly tracked.
  The "true" memory usage will be greater.
------------------------------------------------------------

------------------------------------------------------------
          Begin self-consistency iteration #   10

  Date     :  20180215, Time     :  214542.448
------------------------------------------------------------
  Evaluating new KS density.
  Integration grid: deviation in total charge (<rho> - N_e) =   7.105427E-15
  Pulay mixing of updated and previous charge densities.

  Evaluating partitioned Hartree potential by multipole expansion.
  | Analytical far-field extrapolation by fixed multipoles:
  | Hartree multipole sum: apparent total charge =  -0.535765E-03
  Summing up the Hartree potential.
  Time summed over all CPUs for potential: real work        1.279 s, elapsed        1.469 s
  | RMS charge density error from multipole expansion :   0.232456E-01

  Integrating Hamiltonian matrix: batch-based integration.
[...]
  |   Hirshfeld dipole moment :      0.08845737
  |   Hirshfeld second moments:      0.09881615       0.01038951      -0.00084055
  |                                  0.01038951       0.09598787      -0.00341273
  |                                 -0.00084055      -0.00341273       0.10970481
  ----------------------------------------------------------------------
  | Atom     8: H
  |   Hirshfeld charge        :      0.03731764
  |   Free atom volume        :      9.95071624
  |   Hirshfeld volume        :      6.40742026
  |   Hirshfeld dipole vector :     -0.00760244      -0.04425757       0.07932007
  |   Hirshfeld dipole moment :      0.09114935
  |   Hirshfeld second moments:      0.09634156       0.00045070       0.00146264
  |                                  0.00045070       0.09896207       0.00866864
  |                                  0.00146264       0.00866864       0.09327691
  ----------------------------------------------------------------------
  | Atom     9: H
  |   Hirshfeld charge        :      0.03731764
  |   Free atom volume        :      9.95071624
  |   Hirshfeld volume        :      6.40742026
  |   Hirshfeld dipole vector :      0.00760244       0.04425757       0.07932007
  |   Hirshfeld dipole moment :      0.09114935
  |   Hirshfeld second moments:      0.09634156       0.00045070      -0.00146264
  |                                  0.00045070       0.09896207      -0.00866864
  |                                 -0.00146264      -0.00866864       0.09327691
  ----------------------------------------------------------------------
  | Atom    10: H
  |   Hirshfeld charge        :      0.04037965
  |   Free atom volume        :      9.95071624
  |   Hirshfeld volume        :      6.39393575
  |   Hirshfeld dipole vector :     -0.00429384      -0.03405159      -0.07793873
  |   Hirshfeld dipole moment :      0.08516099
  |   Hirshfeld second moments:      0.10933532      -0.00365424      -0.00100233
  |                                 -0.00365424       0.08858060      -0.00745915
  |                                 -0.00100233      -0.00745915       0.08996397
  ----------------------------------------------------------------------
  | Atom    11: H
  |   Hirshfeld charge        :      0.04326858
  |   Free atom volume        :      9.95071624
  |   Hirshfeld volume        :      6.13189049
  |   Hirshfeld dipole vector :     -0.06034169       0.06467881      -0.00048862
  |   Hirshfeld dipole moment :      0.08845737
  |   Hirshfeld second moments:      0.09881615       0.01038951       0.00084055
  |                                  0.01038951       0.09598787       0.00341273
  |                                  0.00084055       0.00341273       0.10970481
  ----------------------------------------------------------------------
  | Atom    12: H
  |   Hirshfeld charge        :      0.04325853
  |   Free atom volume        :      9.95071624
  |   Hirshfeld volume        :      6.12943110
  |   Hirshfeld dipole vector :      0.07754925       0.04277240       0.00123869
  |   Hirshfeld dipole moment :      0.08857144
  |   Hirshfeld second moments:      0.09242486      -0.00930081      -0.00003035
  |                                 -0.00930081       0.10244606       0.00329105
  |                                 -0.00003035       0.00329105       0.10980378
  ----------------------------------------------------------------------


  Total energy components:
  | Sum of eigenvalues            :         -89.23438069 Ha       -2428.19104356 eV
  | XC energy correction          :         -24.41459754 Ha        -664.35500120 eV
  | XC potential correction       :          31.36531719 Ha         853.49370589 eV
  | Free-atom electrostatic energy:         -68.00913547 Ha       -1850.62273477 eV
  | Hartree energy correction     :          -6.76554337 Ha        -184.09980202 eV
  | vdW energy correction         :          -0.00229238 Ha          -0.06237882 eV
  | Entropy correction            :           0.00000000 Ha           0.00000000 eV
  | ---------------------------
  | Total energy                  :        -157.06063227 Ha       -4273.83725449 eV
  | Total energy, T -> 0          :        -157.06063227 Ha       -4273.83725449 eV  <-- do not rely on this value for anything but (periodic) metals
  | Electronic free energy        :        -157.06063227 Ha       -4273.83725449 eV

  Derived energy quantities:
  | Kinetic energy                :         156.28684444 Ha        4252.78141629 eV
  | Electrostatic energy          :        -288.93058678 Ha       -7862.20129075 eV
  | Energy correction for multipole
  | error in Hartree potential    :           0.03245175 Ha           0.88305710 eV
  | Sum of eigenvalues per atom                           :        -202.34925363 eV
  | Total energy (T->0) per atom                          :        -356.15310454 eV  <-- do not rely on this value for anything but (periodic) metals
  | Electronic free energy per atom                       :        -356.15310454 eV

  atomic forces [eV/Ang]:
  -----------------------
  atom #    1
   Hellmann-Feynman              :  0.680497E-01  0.367691E+00  0.384235E+00
   Ionic forces                  :  0.000000E+00  0.000000E+00  0.000000E+00
   Multipole                     : -0.105903E+00 -0.588687E+00 -0.631973E+00
   Pulay + GGA                   :  0.403954E-01  0.234450E+00  0.244352E+00
   Van der Waals                 : -0.249049E-02 -0.138677E-01  0.317091E-02
   ----------------------------------------------------------------
   Total forces(   1)            :  0.519032E-04 -0.413636E-03 -0.215346E-03
  atom #    2
   Hellmann-Feynman              :  0.296565E+00  0.175422E+01  0.122475E+00
   Ionic forces                  :  0.000000E+00  0.000000E+00  0.000000E+00
   Multipole                     :  0.466877E-02  0.570534E-02  0.375533E+00
   Pulay + GGA                   : -0.301350E+00 -0.176113E+01 -0.503703E+00
   Van der Waals                 :  0.110094E-03  0.822373E-03  0.518451E-02
   ----------------------------------------------------------------
   Total forces(   2)            : -0.572354E-05 -0.383283E-03 -0.510512E-03
  atom #    3
   Hellmann-Feynman              : -0.296565E+00 -0.175422E+01  0.122475E+00
   Ionic forces                  :  0.000000E+00  0.000000E+00  0.000000E+00
   Multipole                     : -0.466877E-02 -0.570534E-02  0.375533E+00
   Pulay + GGA                   :  0.301350E+00  0.176113E+01 -0.503703E+00
   Van der Waals                 : -0.110094E-03 -0.822373E-03  0.518451E-02
   ----------------------------------------------------------------
   Total forces(   3)            :  0.572354E-05  0.383283E-03 -0.510512E-03
  atom #    4
   Hellmann-Feynman              : -0.680497E-01 -0.367691E+00  0.384235E+00
   Ionic forces                  :  0.000000E+00  0.000000E+00  0.000000E+00
   Multipole                     :  0.105903E+00  0.588687E+00 -0.631973E+00
   Pulay + GGA                   : -0.403954E-01 -0.234450E+00  0.244352E+00
   Van der Waals                 :  0.249049E-02  0.138677E-01  0.317091E-02
   ----------------------------------------------------------------
   Total forces(   4)            : -0.519032E-04  0.413636E-03 -0.215346E-03
  atom #    5
   Hellmann-Feynman              :  0.206119E-01  0.953655E-01  0.403021E-01
   Ionic forces                  :  0.000000E+00  0.000000E+00  0.000000E+00
   Multipole                     : -0.517867E-02 -0.104018E-01 -0.133679E+00
   Pulay + GGA                   : -0.123984E-01 -0.765509E-01  0.976712E-01
   Van der Waals                 : -0.180133E-02 -0.960894E-02 -0.479705E-02
   ----------------------------------------------------------------
   Total forces(   5)            :  0.123347E-02 -0.119604E-02 -0.502852E-03
  atom #    6
   Hellmann-Feynman              : -0.139448E-01  0.869377E-03  0.430228E-01
   Ionic forces                  :  0.000000E+00  0.000000E+00  0.000000E+00
   Multipole                     : -0.748533E-01 -0.660052E-01 -0.387825E-01
   Pulay + GGA                   :  0.882524E-01  0.613873E-01 -0.151621E-02
   Van der Waals                 :  0.923061E-04  0.416180E-02 -0.328595E-02
   ----------------------------------------------------------------
   Total forces(   6)            : -0.453357E-03  0.413309E-03 -0.561891E-03
  atom #    7
   Hellmann-Feynman              :  0.117282E-01 -0.575226E-02  0.418544E-01
   Ionic forces                  :  0.000000E+00  0.000000E+00  0.000000E+00
   Multipole                     :  0.505996E-01 -0.856312E-01 -0.387757E-01
   Pulay + GGA                   : -0.643959E-01  0.860286E-01  0.103383E-02
   Van der Waals                 :  0.129668E-02  0.409733E-02 -0.324386E-02
   ----------------------------------------------------------------
   Total forces(   7)            : -0.771447E-03 -0.125753E-02  0.868658E-03
  atom #    8
   Hellmann-Feynman              : -0.711254E-02 -0.453723E-01 -0.588216E-01
   Ionic forces                  :  0.000000E+00  0.000000E+00  0.000000E+00
   Multipole                     : -0.340966E-02 -0.171182E-01  0.149566E+00
   Pulay + GGA                   :  0.977343E-02  0.577312E-01 -0.942298E-01
   Van der Waals                 :  0.867014E-03  0.495817E-02  0.297144E-02
   ----------------------------------------------------------------
   Total forces(   8)            :  0.118246E-03  0.198813E-03 -0.514083E-03
  atom #    9
   Hellmann-Feynman              :  0.711254E-02  0.453723E-01 -0.588216E-01
   Ionic forces                  :  0.000000E+00  0.000000E+00  0.000000E+00
   Multipole                     :  0.340966E-02  0.171182E-01  0.149566E+00
   Pulay + GGA                   : -0.977343E-02 -0.577312E-01 -0.942298E-01
   Van der Waals                 : -0.867014E-03 -0.495817E-02  0.297144E-02
   ----------------------------------------------------------------
   Total forces(   9)            : -0.118246E-03 -0.198813E-03 -0.514083E-03
  atom #   10
   Hellmann-Feynman              : -0.206119E-01 -0.953655E-01  0.403021E-01
   Ionic forces                  :  0.000000E+00  0.000000E+00  0.000000E+00
   Multipole                     :  0.517867E-02  0.104018E-01 -0.133679E+00
   Pulay + GGA                   :  0.123984E-01  0.765509E-01  0.976712E-01
   Van der Waals                 :  0.180133E-02  0.960894E-02 -0.479705E-02
   ----------------------------------------------------------------
   Total forces(  10)            : -0.123347E-02  0.119604E-02 -0.502852E-03
  atom #   11
   Hellmann-Feynman              : -0.117282E-01  0.575226E-02  0.418544E-01
   Ionic forces                  :  0.000000E+00  0.000000E+00  0.000000E+00
   Multipole                     : -0.505996E-01  0.856312E-01 -0.387757E-01
   Pulay + GGA                   :  0.643959E-01 -0.860286E-01  0.103383E-02
   Van der Waals                 : -0.129668E-02 -0.409733E-02 -0.324386E-02
   ----------------------------------------------------------------
   Total forces(  11)            :  0.771447E-03  0.125753E-02  0.868658E-03
  atom #   12
   Hellmann-Feynman              :  0.139448E-01 -0.869377E-03  0.430228E-01
   Ionic forces                  :  0.000000E+00  0.000000E+00  0.000000E+00
   Multipole                     :  0.748533E-01  0.660052E-01 -0.387825E-01
   Pulay + GGA                   : -0.882524E-01 -0.613873E-01 -0.151621E-02
   Van der Waals                 : -0.923061E-04 -0.416180E-02 -0.328595E-02
   ----------------------------------------------------------------
   Total forces(  12)            :  0.453357E-03 -0.413309E-03 -0.561891E-03

  Timings for VdW correction (Tkatchenko-Scheffler 2009 or later):
  | CPU time:        0.072 s, Wall clock time:        0.072 s.
  Removing unitary transformations (pure translations, rotations) from forces on atoms.
  Atomic forces before filtering:
  | Net force on center of mass :  -0.273794E-11 -0.601427E-12 -0.287205E-02 eV/A
  | Net torque on center of mass:  -0.131892E-11 -0.246420E-11 -0.410342E-02 eV
  Atomic forces after filtering:
  | Net force on center of mass :  -0.174225E-18 -0.392006E-18  0.522674E-18 eV/A
  | Net torque on center of mass:  -0.115245E-17 -0.276587E-18  0.645370E-18 eV

  Energy and forces in a compact form:
  | Total energy uncorrected      :         -0.427383725448629E+04 eV
  | Total energy corrected        :         -0.427383725448629E+04 eV  <-- do not rely on this value for anything but (periodic) metals
  | Electronic free energy        :         -0.427383725448629E+04 eV
  Total atomic forces (unitary forces cleaned) [eV/Ang]:
  |   1          0.239359482915028E-03         -0.446190432975382E-03          0.239913477124657E-04
  |   2          0.734544432161856E-04         -0.396978551439828E-03         -0.271174419199337E-03
  |   3         -0.734544460373267E-04          0.396978550883649E-03         -0.271174418791272E-03
  |   4         -0.239359482337729E-03          0.446190431112830E-03          0.239913463002090E-04
  |   5          0.135755238532284E-02         -0.121987790974612E-02         -0.263514299841787E-03
  |   6         -0.204546269319184E-03          0.264126636862933E-03         -0.322553080637894E-03
  |   7         -0.489389158421543E-03         -0.119825742875167E-02          0.110799601701745E-02
  |   8          0.256171820008708E-03          0.175038343565414E-03         -0.274745564767049E-03
  |   9         -0.256171819429561E-03         -0.175038344412720E-03         -0.274745564637790E-03
  |  10         -0.135755238654375E-02          0.121987790811166E-02         -0.263514299980457E-03
  |  11          0.489389157076871E-03          0.119825743289939E-02          0.110799601760009E-02
  |  12          0.204546273549461E-03         -0.264126636110156E-03         -0.322553080774634E-03

  ------------------------------------ 
  Start decomposition of the XC Energy 
  ------------------------------------ 
  X and C from original XC functional choice 
  Hartree-Fock Energy :          0.000000000 Ha              0.000000000 eV
  X Energy            :        -23.397903330 Ha           -636.689344015 eV
  C Energy            :         -1.016694214 Ha            -27.665657188 eV
  Total XC Energy     :        -24.414597545 Ha           -664.355001204 eV
  ------------------------------------ 
  LDA X and C from self-consistent density 
  X Energy LDA        :        -21.151780336 Ha           -575.569227585 eV
  C Energy LDA        :         -1.974715519 Ha            -53.734743268 eV
  ------------------------------------ 
  End decomposition of the XC Energy 
  ------------------------------------ 

------------------------------------------------------------

------------------------------------------------------------------------------
  Final output of selected total energy values:

  The following output summarizes some interesting total energy values
  at the end of a run (AFTER all relaxation, molecular dynamics, etc.).

  | Total energy of the DFT / Hartree-Fock s.c.f. calculation      :          -4273.837254486 eV
  | Final zero-broadening corrected energy (caution - metals only) :          -4273.837254486 eV
  | For reference only, the value of 1 Hartree used in FHI-aims is :             27.211384500 eV

  Before relying on these values, please be sure to understand exactly which
  total energy value is referred to by a given number. Different objects may
  all carry the same name 'total energy'. Definitions:

  Total energy of the DFT / Hartree-Fock s.c.f. calculation:
  | Note that this energy does not include ANY quantities calculated after the
  | s.c.f. cycle, in particular not ANY RPA, MP2, etc. many-body perturbation terms.

  Final zero-broadening corrected energy:
  | For metallic systems only, a broadening of the occupation numbers at the Fermi
  | level can be extrapolated back to zero broadening by an electron-gas inspired
  | formula. For all systems that are not real metals, this value can be
  | meaningless and should be avoided.

------------------------------------------------------------------------------
  Methods described in the following list of references were used in this FHI-aims run.
  If you publish the results, please make sure to cite these reference if they apply.
  FHI-aims is an academic code, and for our developers (often, Ph.D. students
  and postdocs), scientific credit in the community is essential.
  Thank you for helping us!

  For any use of FHI-aims, please cite:

    Volker Blum, Ralf Gehrke, Felix Hanke, Paula Havu, Ville Havu,
    Xinguo Ren, Karsten Reuter, and Matthias Scheffler
    'Ab initio molecular simulations with numeric atom-centered orbitals'
    Computer Physics Communications 180, 2175-2196 (2009)
    http://dx.doi.org/10.1016/j.cpc.2009.06.022


  For the real-space grid partitioning and parallelization used in this calculation, please cite:

    Ville Havu, Volker Blum, Paula Havu, and Matthias Scheffler,
    'Efficient O(N) integration for all-electron electronic structure calculation'
    'using numerically tabulated basis functions'
    Journal of Computational Physics 228, 8367-8379 (2009).
    http://dx.doi.org/10.1016/j.jcp.2009.08.008

  Of course, there are many other important community references, e.g., those cited in the
  above references. Our list is limited to references that describe implementations in the
  FHI-aims code. The reason is purely practical (length of this list) - please credit others as well.

------------------------------------------------------------
          Leaving FHI-aims.
          Date     :  20180215, Time     :  214547.845

          Computational steps:
          | Number of self-consistency cycles          :           15
          | Number of SCF (re)initializations          :            1

          Detailed time accounting                     :  max(cpu_time)    wall_clock(cpu1)
          | Total time                                 :       11.628 s          12.202 s
          | Preparation time                           :        0.124 s           0.157 s
          | Boundary condition initalization           :        0.000 s           0.001 s
          | Grid partitioning                          :        0.068 s           0.070 s
          | Preloading free-atom quantities on grid    :        0.004 s           0.003 s
          | Free-atom superposition energy             :        0.024 s           0.024 s
          | Total time for integrations                :        3.744 s           3.765 s
          | Total time for solution of K.-S. equations :        0.072 s           0.048 s
          | Total time for density & force components  :        3.648 s           3.652 s
          | Total time for mixing                      :        0.180 s           0.198 s
          | Total time for Hartree multipole update    :        0.280 s           0.262 s
          | Total time for Hartree multipole sum       :        3.760 s           3.773 s
          | Total time for total energy evaluation     :        0.012 s           0.028 s
          | Total time for vdW correction              :        0.072 s           0.072 s

          Partial memory accounting:
          | Residual value for overall tracked memory usage across tasks :           0.000 MB (should be 0.000 MB)
          | Peak values for overall tracked memory usage (after allocating hessian_basis_wave):
          |   Minimum:        1.633 MB (on task 1)
          |   Maximum:        1.633 MB (on task 1)
          |   Average:        1.633 MB
          | Largest tracked array allocation (hessian_basis_wave):
          |   Minimum:        0.793 MB (on task 1)
          |   Maximum:        0.793 MB (on task 1)
          |   Average:        0.793 MB
          Note:  These values currently only include a subset of arrays which are explicitly tracked.
          The "true" memory usage will be greater.

          Have a nice day.
------------------------------------------------------------
