  MPI-parallelism will be employed.
------------------------------------------------------------
          Invoking FHI-aims ...
          Version 180101-
          Git rev. (modified): fa29f3a Merge branch master of fhiaims.rzberlin.mp[...]
          Compiled on 2018/01/19 at 14:47:46 on host theobook132.

          When using FHI-aims, please cite the following reference:

          Volker Blum, Ralf Gehrke, Felix Hanke, Paula Havu,
          Ville Havu, Xinguo Ren, Karsten Reuter, and Matthias Scheffler,
          'Ab Initio Molecular Simulations with Numeric Atom-Centered Orbitals',
          Computer Physics Communications 180, 2175-2196 (2009)

          For any questions about FHI-aims, please visit the aimsclub website
          with its forums and wiki. Contributions to both the forums and the
          wiki are warmly encouraged - they are for you, and everyone is welcome there.

------------------------------------------------------------



  Date     :  20180214, Time     :  153953.075
  Time zero on CPU 1             :   0.760000000000000E-01  s.
  Internal wall clock time zero  :           287854793.075  s.

  FHI-aims created a unique identifier for this run for later identification
  aims_uuid : E091C567-8364-4BB5-ADBE-1AA9DFAB315E

  Using        8 parallel tasks.
  Task        0 on host theobook132 reporting.
  Task        1 on host theobook132 reporting.
  Task        2 on host theobook132 reporting.
  Task        3 on host theobook132 reporting.
  Task        4 on host theobook132 reporting.
  Task        5 on host theobook132 reporting.
  Task        6 on host theobook132 reporting.
  Task        7 on host theobook132 reporting.

  Performing system and environment tests:
  *** Environment variable OMP_NUM_THREADS is not set
  *** For performance reasons you might want to set it to 1
  | Stacksize not measured: no C compiler
  | Checking for scalapack...
  | No scalapack compiled in.

  Obtaining array dimensions for all initial allocations:
  
  -----------------------------------------------------------------------
  Parsing control.in (first pass over file, find array dimensions only).
  The contents of control.in will be repeated verbatim below
  unless switched off by setting 'verbatim_writeout .false.' .
  in the first line of control.in .
  -----------------------------------------------------------------------
  
  ################################################################################
  #
  #		Control.in generated by mkcontrol
  #
  ################################################################################
  xc			pbe
  vdw_correction_hirshfeld
  charge			-1.0
  relativistic		atomic_zora scalar
  sc_accuracy_rho		1E-5
  sc_accuracy_eev		1E-3
  sc_accuracy_etot	1E-6
  sc_iter_limit		1000	
  
  compute_forces .true.
  final_forces_cleaned .true.
  
  
  ################################################################################
  #
  #  FHI-aims code project
  # Volker Blum, Fritz Haber Institute Berlin, 2009
  #
  #  Suggested "tight" defaults for H atom (to be pasted into control.in file)
  #
  ################################################################################
    species        H
  #     global species definitions
      nucleus             1
      mass                1.00794
  #
      l_hartree           6
  #
      cut_pot             4.0  2.0  1.0
      basis_dep_cutoff    1e-4
  #
      radial_base         24 7.0
      radial_multiplier   2
      angular_grids       specified
        division   0.1930   50
        division   0.3175  110
        division   0.4293  194
        division   0.5066  302
        division   0.5626  434
  #      division   0.5922  590
  #      division   0.6227  974
  #      division   0.6868 1202
  #      outer_grid  770
        outer_grid  434
  ################################################################################
  #
  #  Definition of "minimal" basis
  #
  ################################################################################
  #     valence basis states
      valence      1  s   1.
  #     ion occupancy
      ion_occ      1  s   0.5
  ################################################################################
  #
  #  Suggested additional basis functions. For production calculations,
  #  uncomment them one after another (the most important basis functions are
  #  listed first).
  #
  #  Basis constructed for dimers: 0.5 A, 0.7 A, 1.0 A, 1.5 A, 2.5 A
  #
  ################################################################################
  #  "First tier" - improvements: -1014.90 meV to -62.69 meV
       hydro 2 s 2.1
       hydro 2 p 3.5
  #  "Second tier" - improvements: -12.89 meV to -1.83 meV
       hydro 1 s 0.85
       hydro 2 p 3.7
       hydro 2 s 1.2
       hydro 3 d 7
  #  "Third tier" - improvements: -0.25 meV to -0.12 meV
  #     hydro 4 f 11.2
  #     hydro 3 p 4.8
  #     hydro 4 d 9
  #     hydro 3 s 3.2
  
  
  
  ################################################################################
  #
  #  FHI-aims code project
  # Volker Blum, Fritz Haber Institute Berlin, 2009
  #
  #  Suggested "tight" defaults for C atom (to be pasted into control.in file)
  #
  ################################################################################
    species        C
  #     global species definitions
      nucleus             6
      mass                12.0107
  #
      l_hartree           6
  #
      cut_pot             4.0  2.0  1.0
      basis_dep_cutoff    1e-4
  #
      radial_base         34 7.0
      radial_multiplier   2
      angular_grids specified
        division   0.2187   50
        division   0.4416  110
        division   0.6335  194
        division   0.7727  302
        division   0.8772  434
  #      division   0.9334  590
  #      division   0.9924  770
  #      division   1.0230  974
  #      division   1.5020 1202
  #     outer_grid  974
        outer_grid  434
  ################################################################################
  #
  #  Definition of "minimal" basis
  #
  ################################################################################
  #     valence basis states
      valence      2  s   2.
      valence      2  p   2.
  #     ion occupancy
      ion_occ      2  s   1.
      ion_occ      2  p   1.
  ################################################################################
  #
  #  Suggested additional basis functions. For production calculations,
  #  uncomment them one after another (the most important basis functions are
  #  listed first).
  #
  #  Constructed for dimers: 1.0 A, 1.25 A, 1.5 A, 2.0 A, 3.0 A
  #
  ################################################################################
  #  "First tier" - improvements: -1214.57 meV to -155.61 meV
       hydro 2 p 1.7
       hydro 3 d 6
       hydro 2 s 4.9
  #  "Second tier" - improvements: -67.75 meV to -5.23 meV
       hydro 4 f 9.8
       hydro 3 p 5.2
       hydro 3 s 4.3
       hydro 5 g 14.4
       hydro 3 d 6.2
  #  "Third tier" - improvements: -2.43 meV to -0.60 meV
  #     hydro 2 p 5.6
  #     hydro 2 s 1.4
  #     hydro 3 d 4.9
  #     hydro 4 f 11.2
  #  "Fourth tier" - improvements: -0.39 meV to -0.18 meV
  #     hydro 2 p 2.1
  #     hydro 5 g 16.4
  #     hydro 4 d 13.2
  #     hydro 3 s 13.6
  #     hydro 4 f 17.6
  #  Further basis functions - improvements: -0.08 meV and below
  #     hydro 3 s 2
  #     hydro 3 p 6
  #     hydro 4 d 20
  
  ################################################################################
  #
  #  FHI-aims code project
  #  VB, Fritz-Haber Institut, 2009
  #
  #  Suggested "light" defaults for Cl atom (to be pasted into control.in file)
  #  Be sure to double-check any results obtained with these settings for
  #post-processing,
  #  e.g., with the "tight" defaults and larger basis sets.
  #
  ################################################################################
    species        Cl
  #     global species definitions
      nucleus             17
      mass                35.453
  #
      l_hartree           4
  #
      cut_pot             3.5          1.5  1.0
      basis_dep_cutoff    1e-4
  #
      radial_base         45 5.0
      radial_multiplier   1
      angular_grids       specified
        division   0.4412  110
        division   0.5489  194
        division   0.6734  302
  #      division   0.7794  434
  #      division   0.9402  590
  #      division   1.0779  770
  #      division   1.1792  974
  #      outer_grid  974
        outer_grid  302
  ################################################################################
  #
  #  Definition of "minimal" basis
  #
  ################################################################################
  #     valence basis states
      valence      3  s   2.
      valence      3  p   5.
  #     ion occupancy
      ion_occ      3  s   1.
      ion_occ      3  p   4.
  ################################################################################
  #
  #  Suggested additional basis functions. For production calculations,
  #  uncomment them one after another (the most important basis functions are
  #  listed first).
  #
  #  Constructed for dimers: 1.65 A, 2.0 A, 2.5 A, 3.25 A, 4.0 A
  #
  ################################################################################
  #  "First tier" - improvements: -429.57 meV to -15.03 meV
       ionic 3 d auto
       hydro 2 p 1.9
  #     hydro 4 f 7.4
       ionic 3 s auto
  #     hydro 5 g 10.4
  #  "Second tier" - improvements: -7.84 meV to -0.48 meV
  #     hydro 3 d 3.3
  #     hydro 5 f 9.8
  #     hydro 1 s 0.75
  #     hydro 5 g 11.2
  #     hydro 4 p 10.4
  #  "Third tier" - improvements: -1.00 meV to -0.12 meV
  #     hydro 4 d 12.8
  #     hydro 4 f 4.6
  #     hydro 4 d 10.8
  #     hydro 2 s 1.8
  #     hydro 3 p 3
  #  Further functions that fell out - improvements: -0.10 meV and below
  #     hydro 5 f 14.4
  #     hydro 4 s 12.8
  #     hydro 3 d 11.6
  #     hydro 4 s 4.1
  
  -----------------------------------------------------------------------
  Completed first pass over input file control.in .
  -----------------------------------------------------------------------
  
  
  -----------------------------------------------------------------------
  Parsing geometry.in (first pass over file, find array dimensions only).
  The contents of geometry.in will be repeated verbatim below
  unless switched off by setting 'verbatim_writeout .false.' .
  in the first line of geometry.in .
  -----------------------------------------------------------------------
  
  #=======================================#
  # iterations/iteration0000/aims-chain-node-0.00000/geometry.in
  #=======================================#
  atom 0.0000000000000000 0.0000000000000000 0.0000000000000000 Cl
  constrain_relaxation .true.
  atom 3.0446585000000002 0.0000000000000000 0.0000000000000000 C
  constrain_relaxation y
  atom 4.9125524599999997 0.0000000000000000 0.0000000000000000 Cl
  constrain_relaxation y
  atom 2.7109161199999998 1.0360197400000000 0.0000000000000000 H
  atom 2.7102141300000002 -0.5179892400000000 0.8968865300000000 H
  atom 2.7102141300000002 -0.5179892400000000 -0.8968865300000000 H
  
  -----------------------------------------------------------------------
  Completed first pass over input file geometry.in .
  -----------------------------------------------------------------------
  

  Basic array size parameters:
  | Number of species                 :        3
  | Number of atoms                   :        6
  | Max. basis fn. angular momentum   :        4
  | Max. atomic/ionic basis occupied n:        3
  | Max. number of basis fn. types    :        3
  | Max. radial fns per species/type  :        8
  | Max. logarithmic grid size        :     1362
  | Max. radial integration grid size :       69
  | Max. angular integration grid size:      434
  | Max. angular grid division number :        8
  | Radial grid for Hartree potential :     1362
  | Number of spin channels           :        1

------------------------------------------------------------
          Reading file control.in.
------------------------------------------------------------
  XC: Using PBE gradient-corrected functionals.
  Charged system requested: Charge =  -0.100000E+01.
  Scalar relativistic treatment of kinetic energy: on-site free-atom approximation to ZORA.
  Convergence accuracy of self-consistent charge density:  0.1000E-04
  Convergence accuracy of sum of eigenvalues:  0.1000E-02
  Convergence accuracy of total energy:  0.1000E-05
  Maximum number of s.-c. iterations  :  1000
  Forces will be computed.
  Cleaning forces before final output.
 
  Reading configuration options for species H                   .
  | Found nuclear charge :   1.0000
  | Found atomic mass :    1.00794000000000      amu
  | Found l_max for Hartree potential  :   6
  | Found cutoff potl. onset [A], width [A], scale factor :    4.00000    2.00000    1.00000
  | Threshold for basis-dependent cutoff potential is   0.100000E-03
  | Found data for basic radial integration grid :    24 points, outermost radius =    7.000 A
  | Found multiplier for basic radial grid :   2
  | Found angular grid specification: user-specified.
  | Specified grid contains     6 separate shells.
  | Check grid settings after all constraints further below.
  | Found free-atom valence shell :  1 s   1.000
  | Found free-ion valence shell :  1 s   0.500
  | Found hydrogenic basis function :  2 s   2.100
  | Found hydrogenic basis function :  2 p   3.500
  | Found hydrogenic basis function :  1 s   0.850
  | Found hydrogenic basis function :  2 p   3.700
  | Found hydrogenic basis function :  2 s   1.200
  | Found hydrogenic basis function :  3 d   7.000
  Species H                   : Missing cutoff potential type.
  Defaulting to exp(1/x)/(1-x)^2 type cutoff potential.
  Species H : No 'logarithmic' tag. Using default grid for free atom:
  | Default logarithmic grid data [bohr] : 0.1000E-03 0.1000E+03 0.1012E+01
  Species H : On-site basis accuracy parameter (for Gram-Schmidt orthonormalisation) not specified.
  Using default value basis_acc =  0.1000000E-03.
  Species H                   : Using default innermost maximum threshold i_radial=  2 for radial functions.
  Species H                   : Default cutoff onset for free atom density etc. : 0.40000000E+01 AA.
  Species H                   : Basic radial grid will be enhanced according to radial_multiplier =   2, to contain    49 grid points.
 
  Reading configuration options for species C                   .
  | Found nuclear charge :   6.0000
  | Found atomic mass :    12.0107000000000      amu
  | Found l_max for Hartree potential  :   6
  | Found cutoff potl. onset [A], width [A], scale factor :    4.00000    2.00000    1.00000
  | Threshold for basis-dependent cutoff potential is   0.100000E-03
  | Found data for basic radial integration grid :    34 points, outermost radius =    7.000 A
  | Found multiplier for basic radial grid :   2
  | Found angular grid specification: user-specified.
  | Specified grid contains     6 separate shells.
  | Check grid settings after all constraints further below.
  | Found free-atom valence shell :  2 s   2.000
  | Found free-atom valence shell :  2 p   2.000
  | Found free-ion valence shell :  2 s   1.000
  | Found free-ion valence shell :  2 p   1.000
  | Found hydrogenic basis function :  2 p   1.700
  | Found hydrogenic basis function :  3 d   6.000
  | Found hydrogenic basis function :  2 s   4.900
  | Found hydrogenic basis function :  4 f   9.800
  | Found hydrogenic basis function :  3 p   5.200
  | Found hydrogenic basis function :  3 s   4.300
  | Found hydrogenic basis function :  5 g  14.400
  | Found hydrogenic basis function :  3 d   6.200
  Species C                   : Missing cutoff potential type.
  Defaulting to exp(1/x)/(1-x)^2 type cutoff potential.
  Species C : No 'logarithmic' tag. Using default grid for free atom:
  | Default logarithmic grid data [bohr] : 0.1000E-03 0.1000E+03 0.1012E+01
  Species C : On-site basis accuracy parameter (for Gram-Schmidt orthonormalisation) not specified.
  Using default value basis_acc =  0.1000000E-03.
  Species C                   : Using default innermost maximum threshold i_radial=  2 for radial functions.
  Species C                   : Default cutoff onset for free atom density etc. : 0.40000000E+01 AA.
  Species C                   : Basic radial grid will be enhanced according to radial_multiplier =   2, to contain    69 grid points.
 
  Reading configuration options for species Cl                  .
  | Found nuclear charge :  17.0000
  | Found atomic mass :    35.4530000000000      amu
  | Found l_max for Hartree potential  :   4
  | Found cutoff potl. onset [A], width [A], scale factor :    3.50000    1.50000    1.00000
  | Threshold for basis-dependent cutoff potential is   0.100000E-03
  | Found data for basic radial integration grid :    45 points, outermost radius =    5.000 A
  | Found multiplier for basic radial grid :   1
  | Found angular grid specification: user-specified.
  | Specified grid contains     4 separate shells.
  | Check grid settings after all constraints further below.
  | Found free-atom valence shell :  3 s   2.000
  | Found free-atom valence shell :  3 p   5.000
  | Found free-ion valence shell :  3 s   1.000
  | Found free-ion valence shell :  3 p   4.000
  | Found ionic basis function :  3 d , default cutoff radius.
  | Found hydrogenic basis function :  2 p   1.900
  | Found ionic basis function :  3 s , default cutoff radius.
  Species Cl                  : Missing cutoff potential type.
  Defaulting to exp(1/x)/(1-x)^2 type cutoff potential.
  Species Cl: No 'logarithmic' tag. Using default grid for free atom:
  | Default logarithmic grid data [bohr] : 0.1000E-03 0.1000E+03 0.1012E+01
  | Will include ionic basis functions of  2.0-fold positive Cl                   ion.
  Species Cl: On-site basis accuracy parameter (for Gram-Schmidt orthonormalisation) not specified.
  Using default value basis_acc =  0.1000000E-03.
  Species Cl                  : Using default innermost maximum threshold i_radial=  2 for radial functions.
  Species Cl                  : Default cutoff onset for free atom density etc. : 0.35000000E+01 AA.
  Species Cl                  : Basic radial grid will be enhanced according to radial_multiplier =   1, to contain    45 grid points.
 
  Finished reading input file 'control.in'. Consistency checks are next.
 
  MPI_IN_PLACE appears to work with this MPI implementation.
  | Keeping use_mpi_in_place .true. (see manual).
  Target number of points in a grid batch is not set. Defaulting to  100
  Method for grid partitioning is not set. Defaulting to parallel hash+maxmin partitioning.
  Batch size limit is not set. Defaulting to    200
  By default, will store active basis functions for each batch.
  If in need of memory, prune_basis_once .false. can be used to disable this option.
  communication_type for Hartree potential was not specified.
  Defaulting to calc_hartree .
  Defaulting to Pulay charge density mixer.
  Pulay mixer: Number of relevant iterations not set.
  Defaulting to    8 iterations.
  Pulay mixer: Number of initial linear mixing iterations not set.
  Defaulting to    0 iterations.
  Work space size for distributed Hartree potential not set.
  Defaulting to   0.200000E+03 MB.
  Mixing parameter for charge density mixing has not been set.
  Using default: charge_mix_param =     0.0500.
  The mixing parameter will be adjusted in iteration number     2 of the first full s.c.f. cycle only.
  Algorithm-dependent basis array size parameters:
  | n_max_pulay                         :        8
  Presetting        40 iterations before the initial mixing cycle
  is restarted anyway using the sc_init_iter criterion / keyword.
  Presetting a factor      1.000 between actual scf density residual
  and density convergence criterion sc_accuracy_rho below which sc_init_iter
  takes no effect.
  Geometry relaxation not requested: no relaxation will be performed.
  Force calculation: scf convergence accuracy of forces not set.
  Defaulting to 'sc_accuracy_forces not_checked'.
  Handling of forces: Unphysical translation and rotation will be removed from forces.
  No accuracy limit for integral partition fn. given. Defaulting to  0.1000E-14.
  No threshold value for u(r) in integrations given. Defaulting to  0.1000E-05.
  No occupation type (smearing scheme) given. Defaulting to Gaussian broadening, width =  0.1000E-01 eV.
  The width will be adjusted in iteration number     2 of the first full s.c.f. cycle only.
  S.C.F. convergence parameters will be adjusted in iteration number     2 of the first full s.c.f. cycle only.
  No accuracy for occupation numbers given. Defaulting to  0.1000E-12.
  No threshold value for occupation numbers given. Defaulting to  0.0000E+00.
  No accuracy for fermi level given. Defaulting to  0.1000E-19.
  Maximum # of iterations to find E_F not set. Defaulting to  200.
  Preferred method for the eigenvalue solver ('KS_method') not specified in 'control.in'.
  Calling BLACS routine to test compilation state
  The best choice would be 'elsi', but your version of FHI-aims is compiled without ScaLAPACK support.
  Defaulting to 'lapack_fast' instead (serial solution, time will not improve with more CPUs).
  Will not use alltoall communication since running on < 1024 CPUs.
  Threshold for basis singularities not set.
  Default threshold for basis singularities:  0.1000E-04
  partition_type (choice of integration weights) for integrals was not specified.
  | Using a version of the partition function of Stratmann and coworkers ('stratmann_smoother').
  | At each grid point, the set of atoms used to build the partition table is smoothly restricted to
  | only those atoms whose free-atom density would be non-zero at that grid point.
  Partitioning for Hartree potential was not defined. Using partition_type for integrals.
  | Adjusted default value of keyword multip_moments_threshold to:       0.10000000E-11
  | This value may affect high angular momentum components of the Hartree potential in periodic systems.
  Spin handling was not defined in control.in. Defaulting to unpolarized case.
  No q(lm)/r^(l+1) cutoff set for long-range Hartree potential.
  | Using default value of  0.100000E-09 .
  | Verify using the multipole_threshold keyword.
  Defaulting to new monopole extrapolation.
  Density update method: automatic selection selected.
------------------------------------------------------------


------------------------------------------------------------
          Reading geometry description geometry.in.
------------------------------------------------------------
 No relaxation requested - ignoring relaxation constraint.
 No relaxation requested - ignoring relaxation constraint.
 No relaxation requested - ignoring relaxation constraint.
 * Warning: Initial charge and total charge of the system are inconsistent.
 * Selected charge in control.in:    -1.0000* Sum of initial charges in geometry.in:     0.0000
  Input structure read successfully.
  The structure contains        6 atoms,  and a total of         44.000 electrons.

  Input geometry:
  | No unit cell requested.
  | Atomic structure:
  |       Atom                x [A]            y [A]            z [A]
  |    1: Species Cl            0.00000000        0.00000000        0.00000000
  |    2: Species C             3.04465850        0.00000000        0.00000000
  |    3: Species Cl            4.91255246        0.00000000        0.00000000
  |    4: Species H             2.71091612        1.03601974        0.00000000
  |    5: Species H             2.71021413       -0.51798924        0.89688653
  |    6: Species H             2.71021413       -0.51798924       -0.89688653
  |

  | The smallest distance between any two atoms is         1.08838014 AA.
  |
  | The first atom of this pair is atom number                      2 .
  | The second atom of this pair is atom number                     5 .

  Number of empty states per atom not set in control.in - providing a guess from actual geometry.
  | Total number of empty states used during s.c.f. cycle:       14
  If you use a very high smearing, use empty_states (per atom!) in control.in to increase this value.

  Structure-dependent array size parameters: 
  | Maximum number of distinct radial functions  :       26
  | Maximum number of basis functions            :      120
  | Number of Kohn-Sham states (occupied + empty):       36
------------------------------------------------------------

------------------------------------------------------------
          Preparing all fixed parts of the calculation.
------------------------------------------------------------
  Determining machine precision:
    2.225073858507201E-308
  Setting up grids for atomic and cluster calculations.

  Creating wave function, potential, and density for free atoms.

  Species: H

  List of occupied orbitals and eigenvalues:
    n    l              occ      energy [Ha]    energy [eV]
    1    0           1.0000        -0.238386        -6.4868


  Species: C

  List of occupied orbitals and eigenvalues:
    n    l              occ      energy [Ha]    energy [eV]
    1    0           2.0000       -10.049212      -273.4530
    2    0           2.0000        -0.504761       -13.7352
    2    1           2.0000        -0.193631        -5.2690


  Species: Cl

  List of occupied orbitals and eigenvalues:
    n    l              occ      energy [Ha]    energy [eV]
    1    0           2.0000      -101.451673     -2760.6405
    2    0           2.0000        -9.288282      -252.7470
    3    0           2.0000        -0.759332       -20.6625
    2    1           6.0000        -7.042657      -191.6405
    3    1           5.0000        -0.314806        -8.5663

  Creating fixed part of basis set: Ionic, confined, hydrogenic.
 
  H                    hydrogenic:
 
  List of hydrogenic basis orbitals: 
    n    l      effective z      eigenvalue [eV]  inner max. [A]     outer max. [A]     outer radius [A]   
    2    0         2.100000       -14.9965           0.193243           1.317208           5.373006
    2    1         3.500000       -41.6672           0.602369           0.602369           4.056063
    1    0         0.850000        -9.8292           0.624871           0.624871           5.373006
    2    1         3.700000       -46.5653           0.573622           0.573622           3.910002
    2    0         1.200000        -4.5995           0.334980           2.228188           5.505995
    3    2         7.000000       -74.0753           0.680699           0.680699           3.769201
 
 
  C                    hydrogenic:
 
  List of hydrogenic basis orbitals: 
    n    l      effective z      eigenvalue [eV]  inner max. [A]     outer max. [A]     outer radius [A]   
    2    1         1.700000        -9.8152           1.245706           1.245706           5.401630
    3    2         6.000000       -54.4226           0.792453           0.792453           4.178599
    2    0         4.900000       -81.6681           0.082559           0.562749           3.353238
    4    3         9.800000       -81.6681           0.863254           0.863254           4.028125
    3    1         5.200000       -40.8774           0.305389           1.215618           4.898362
    3    0         4.300000       -27.9508           0.091041           1.610311           5.401630
    5    4        14.400000      -112.8510           0.917666           0.917666           3.883070
    3    2         6.200000       -58.1113           0.763917           0.763917           4.077671
 
 
  Cl                   ion:

  List of free ionic orbitals and eigenvalues:
    n    l      energy [Ha]    energy [eV]
    1    0      -102.554413     -2790.6476
    2    0       -10.359555      -281.8978
    3    0        -1.672516       -45.5115
    2    1        -8.116241      -220.8542
    3    1        -1.184158       -32.2226


  List of ionic basis orbitals and eigenvalues:
    n    l      energy [Ha]    energy [eV]    outer radius [A]
    3    2        -0.527851       -14.3636       4.541334
    3    0        -1.672502       -45.5111       3.428237

 
  Cl                   hydrogenic:
 
  List of hydrogenic basis orbitals: 
    n    l      effective z      eigenvalue [eV]  inner max. [A]     outer max. [A]     outer radius [A]   
    2    1         1.900000       -12.2492           1.113321           1.113321           4.597192
 

  Adding cutoff potential to free-atom effective potential.
  Creating atomic-like basis functions for current effective potential.

  Species H                   :

  List of atomic basis orbitals and eigenvalues:
    n    l      energy [Ha]    energy [eV]    outer radius [A]
    1    0        -0.238386        -6.4868       5.373006


  Species C                   :

  List of atomic basis orbitals and eigenvalues:
    n    l      energy [Ha]    energy [eV]    outer radius [A]
    1    0       -10.049212      -273.4530       1.934409
    2    0        -0.504761       -13.7352       5.271162
    2    1        -0.193631        -5.2690       5.401630


  Species Cl                  :

  List of atomic basis orbitals and eigenvalues:
    n    l      energy [Ha]    energy [eV]    outer radius [A]
    1    0      -101.451673     -2760.6405       0.642251
    2    0        -9.288282      -252.7470       2.102331
    3    0        -0.759332       -20.6625       4.431645
    2    1        -7.042657      -191.6405       2.346844
    3    1        -0.314806        -8.5663       4.541334

  Assembling full basis from fixed parts.
  | Species H :   atomic orbital   1 s accepted.
  | Species H :    hydro orbital   2 s accepted.
  | Species H :    hydro orbital   1 s accepted.
  | Species H :    hydro orbital   2 s accepted.
  | Species H :    hydro orbital   2 p accepted.
  | Species H :    hydro orbital   2 p accepted.
  | Species H :    hydro orbital   3 d accepted.
  | Species C :   atomic orbital   1 s accepted.
  | Species C :    hydro orbital   2 s accepted.
  | Species C :   atomic orbital   2 s accepted.
  | Species C :    hydro orbital   3 s accepted.
  | Species C :    hydro orbital   3 p accepted.
  | Species C :   atomic orbital   2 p accepted.
  | Species C :    hydro orbital   2 p accepted.
  | Species C :    hydro orbital   3 d accepted.
  | Species C :    hydro orbital   3 d accepted.
  | Species C :    hydro orbital   4 f accepted.
  | Species C :    hydro orbital   5 g accepted.
  | Species Cl :   atomic orbital   1 s accepted.
  | Species Cl :   atomic orbital   2 s accepted.
  | Species Cl :    ionic orbital   3 s accepted.
  | Species Cl :   atomic orbital   3 s accepted.
  | Species Cl :   atomic orbital   2 p accepted.
  | Species Cl :   atomic orbital   3 p accepted.
  | Species Cl :    hydro orbital   2 p accepted.
  | Species Cl :    ionic orbital   3 d accepted.
 
  Basis size parameters after reduction:
  | Total number of radial functions:       26
  | Total number of basis functions :      120
 
  Per-task memory consumption for arrays in subroutine allocate_ext:
  |           9.070220MB.
  Testing on-site integration grid accuracy.
  |  Species  Function  <phi|h_atom|phi> (log., in eV)  <phi|h_atom|phi> (rad., in eV)
           1        1                 -6.4870767962                 -6.4871688290
           1        2                 13.5032046589                 13.5028982997
           1        3                 32.8195184817                 32.8119941656
           1        4                 33.8513856511                 33.7670005767 ***
           1        5                 28.8544614965                 28.8544615203
           1        6                 59.6326952547                 59.6327656460
           1        7                 60.2719308513                 60.2719305949
           2        8               -273.4529726040               -273.4529710510
           2        9                -10.7721037319                -10.7721022091
           2       10                 17.6044132601                 17.6044162068
           2       11                 53.7706460658                 53.7706913775
           2       12                 15.0973290362                 15.0973256023
           2       13                  3.8545134692                  3.8545724671
           2       14                 12.1156992592                 12.1182024429
           2       15                 29.4352039302                 29.4352041819
           2       16                 54.8741144708                 54.8740268730
           2       17                 59.3556032049                 59.3556031384
           2       18                 93.4551837154                 93.4551838010
           3       19              -2760.6404887023              -2760.6391663390
           3       20               -252.7470135404               -252.7470033792
           3       21                -20.4099766545                -20.4099452961
           3       22                  8.9880683035                  8.9931146792
           3       23               -191.6404587283               -191.6404582884
           3       24                 -8.5668684731                 -8.5677140829
           3       25                  8.1442214099                  8.1082388447 ***
           3       26                  7.0580434359                  7.0555511342
 * Note: Onsite integrals marked "***" above are less accurate than
 * onsite_accuracy_threshold =    0.03000 eV. Usually, this is harmless.
 * When in doubt, tighten the "radial" and/or "radial_multiplier" flags to check.

  Preparing densities etc. for the partition functions (integrals / Hartree potential).

  Preparations completed.
  max(cpu_time)          :      0.356 s.
  Wall clock time (cpu1) :      0.358 s.
------------------------------------------------------------

------------------------------------------------------------
          Begin self-consistency loop: Initialization.

          Date     :  20180214, Time     :  153953.456
------------------------------------------------------------

  Initializing index lists of integration centers etc. from given atomic structure:
  | Number of centers in hartree potential         :         6
  | Number of centers in hartree multipole         :         6
  | Number of centers in electron density summation:         6
  | Number of centers in basis integrals           :         6
  | Number of centers in integrals                 :         6
  | Number of centers in hamiltonian               :         6
  Partitioning the integration grid into batches with parallel hashing+maxmin method.
  | Number of batches:     1024
  | Maximal batch size:     200
  | Minimal batch size:      49
  | Average batch size:      77.859
  | Standard deviation of batch sizes:      24.793

  Integration load balanced across     8 MPI tasks.
  Work distribution over tasks is as follows:
  Task     0 has       9981 integration points.
  Task     1 has       9952 integration points.
  Task     2 has       9951 integration points.
  Task     3 has       9993 integration points.
  Task     4 has       9963 integration points.
  Task     5 has       9945 integration points.
  Task     6 has       9983 integration points.
  Task     7 has       9960 integration points.
  Initializing partition tables, free-atom densities, potentials, etc. across the integration grid (initialize_grid_storage).
  | initialize_grid_storage: Actual outermost partition radius vs. multipole_radius_free
  | (-- VB: in principle, multipole_radius_free should be larger, hence this output)
  | Species        1: Confinement radius =              6.000000000000000 AA, multipole_radius_free =              6.071692442739658 AA.
  | Species        1: outer_partition_radius set to              6.071692442739658 AA .
  | Species        2: Confinement radius =              6.000000000000000 AA, multipole_radius_free =              6.029870734432609 AA.
  | Species        2: outer_partition_radius set to              6.029870734432609 AA .
  | Species        3: Confinement radius =              4.999999999999999 AA, multipole_radius_free =              5.007919576009533 AA.
  | Species        3: outer_partition_radius set to              5.007919576009533 AA .
  | Original list of interatomic distances with           6 x          6 entries is created.
  | Net number of integration points:    79728
  | of which are non-zero points    :    69336
  Renormalizing the initial density to the exact electron count on the 3D integration grid.
  | Initial density: Formal number of electrons (from input files) :      43.0000000000
  | Integrated number of electrons on 3D grid     :      42.9999408110
  | Charge integration error                      :      -0.0000591890
  | Normalization factor for density and gradient :       1.0000013765
  Obtaining max. number of non-zero basis functions in each batch (get_n_compute_maxes).
  | Maximal number of non-zero basis functions:      118 in task     0
  | Maximal number of non-zero basis functions:      118 in task     1
  | Maximal number of non-zero basis functions:      118 in task     2
  | Maximal number of non-zero basis functions:      118 in task     3
  | Maximal number of non-zero basis functions:      118 in task     4
  | Maximal number of non-zero basis functions:      118 in task     5
  | Maximal number of non-zero basis functions:      118 in task     6
  | Maximal number of non-zero basis functions:      118 in task     7
  Selecting the method for density update.
  Loop over occupied states selected for charge density update.
  Allocating        0.035 MB for KS_eigenvector
  Integrating Hamiltonian matrix: batch-based integration.
  Time summed over all CPUs for integration: real work        1.722 s, elapsed        1.875 s
  Integrating overlap matrix.
  Time summed over all CPUs for integration: real work        0.658 s, elapsed        0.763 s

  Updating Kohn-Sham eigenvalues, eigenvectors, occupation numbers, and Fermi level.
  Solving generalized eigenproblem
  Updating Kohn-Sham eigenvalues and eigenfunctions.
  Transforming overlap matrix and checking for singularities.
  Overlap matrix is nonsingular:
  | Lowest eigenvalue:  0.203676E-03
  Solving real generalised eigenvalue problem by standard LAPACK (fast)

  Obtaining occupation numbers and chemical potential using ELSI.
  | Chemical potential (Fermi level):    -4.20677423eV
  Writing Kohn-Sham eigenvalues.

  State    Occupation    Eigenvalue [Ha]    Eigenvalue [eV]
      1       2.00000        -101.459797        -2760.86156
      2       2.00000        -101.452017        -2760.64984
      3       2.00000         -10.164611         -276.59312
      4       2.00000          -9.297372         -252.99437
      5       2.00000          -9.288670         -252.75757
      6       2.00000          -7.052554         -191.90976
      7       2.00000          -7.051159         -191.87181
      8       2.00000          -7.051159         -191.87181
      9       2.00000          -7.043075         -191.65181
     10       2.00000          -7.043025         -191.65045
     11       2.00000          -7.043025         -191.65045
     12       2.00000          -0.854733          -23.25846
     13       2.00000          -0.762694          -20.75395
     14       2.00000          -0.740103          -20.13923
     15       2.00000          -0.535975          -14.58463
     16       2.00000          -0.535907          -14.58276
     17       2.00000          -0.453332          -12.33580
     18       2.00000          -0.323936           -8.81474
     19       2.00000          -0.323933           -8.81467
     20       2.00000          -0.317348           -8.63548
     21       2.00000          -0.315523           -8.58581
     22       2.00000          -0.315522           -8.58579
     23       0.00000          -0.119916           -3.26309
     24       0.00000          -0.043167           -1.17463
     25       0.00000           0.001237            0.03366
     26       0.00000           0.001244            0.03384
     27       0.00000           0.060856            1.65599
     28       0.00000           0.060883            1.65670
     29       0.00000           0.097578            2.65524
     30       0.00000           0.130791            3.55901
     31       0.00000           0.175943            4.78765
     32       0.00000           0.175981            4.78868
     33       0.00000           0.199886            5.43918
     34       0.00000           0.199922            5.44015
     35       0.00000           0.214163            5.82767
     36       0.00000           0.242679            6.60364

  Highest occupied state (VBM) at     -8.58579196 eV
  | Occupation number:      2.00000000

  Lowest unoccupied state (CBM) at    -3.26309035 eV
  | Occupation number:      0.00000000

  Overall HOMO-LUMO gap:      5.32270161 eV.
  Calculating total energy contributions from superposition of free atom densities.

  Total energy components:
  | Sum of eigenvalues            :        -558.85093822 Ha      -15207.10775810 eV
  | XC energy correction          :         -62.46955817 Ha       -1699.88316692 eV
  | XC potential correction       :          80.70961473 Ha        2196.22035923 eV
  | Free-atom electrostatic energy:        -424.17215079 Ha      -11542.31148931 eV
  | Hartree energy correction     :           0.00000000 Ha           0.00000000 eV
  | vdW energy correction         :           0.00000000 Ha           0.00000000 eV
  | Entropy correction            :           0.00000000 Ha           0.00000000 eV
  | ---------------------------
  | Total energy                  :        -964.78303245 Ha      -26253.08205510 eV
  | Total energy, T -> 0          :        -964.78303245 Ha      -26253.08205510 eV  <-- do not rely on this value for anything but (periodic) metals
  | Electronic free energy        :        -964.78303245 Ha      -26253.08205510 eV

  Derived energy quantities:
  | Kinetic energy                :         967.26276175 Ha       26320.55892251 eV
  | Electrostatic energy          :       -1869.57623603 Ha      -50873.75781069 eV
  | Energy correction for multipole
  | error in Hartree potential    :           0.00000000 Ha           0.00000000 eV
  | Sum of eigenvalues per atom                           :       -2534.51795968 eV
  | Total energy (T->0) per atom                          :       -4375.51367585 eV  <-- do not rely on this value for anything but (periodic) metals
  | Electronic free energy per atom                       :       -4375.51367585 eV
  Initialize hartree_potential_storage
  Max. number of atoms included in rho_multipole:            6

  End scf initialization - timings             :  max(cpu_time)    wall_clock(cpu1)
  | Time for scf. initialization               :        0.564 s           0.564 s
  | Boundary condition initialization          :        0.000 s           0.000 s
  | Integration                                :        0.364 s           0.368 s
  | Solution of K.-S. eqns.                    :        0.016 s           0.017 s
  | Grid partitioning                          :        0.072 s           0.071 s
  | Preloading free-atom quantities on grid    :        0.020 s           0.020 s
  | Free-atom superposition energy             :        0.024 s           0.023 s
  | Total energy evaluation                    :        0.004 s           0.000 s

  Partial memory accounting:
  | Current value for overall tracked memory usage on task 0  :           0.267 MB
  | Peak value for overall tracked memory usage on task 0     :           0.832 MB after allocating wave
  | Largest tracked array allocation on task 0 so far         :           0.189 MB  when allocating H_times_psi
  Note:  These values currently only include a subset of arrays which are explicitly tracked.
  The "true" memory usage will be greater.
------------------------------------------------------------

------------------------------------------------------------
          Begin self-consistency iteration #    1

  Date     :  20180214, Time     :  153954.020
------------------------------------------------------------
  Evaluating new KS density.
  Integration grid: deviation in total charge (<rho> - N_e) =   1.421085E-14
  Pulay mixing of updated and previous charge densities.

  Evaluating partitioned Hartree potential by multipole expansion.
  | Analytical far-field extrapolation by fixed multipoles:
  | Hartree multipole sum: apparent total charge =  -0.500588E-01
  Summing up the Hartree potential.
  Time summed over all CPUs for potential: real work        1.013 s, elapsed        1.027 s
  | RMS charge density error from multipole expansion :   0.300611E-03

  Integrating Hamiltonian matrix: batch-based integration.
  Time summed over all CPUs for integration: real work        1.684 s, elapsed        1.713 s

  Updating Kohn-Sham eigenvalues, eigenvectors, occupation numbers, and Fermi level.
  Solving generalized eigenproblem
  Updating Kohn-Sham eigenvalues and eigenfunctions.
  Solving real generalised eigenvalue problem by standard LAPACK (fast)

  Obtaining occupation numbers and chemical potential using ELSI.
  | Chemical potential (Fermi level):    -3.78128421eV
  Writing Kohn-Sham eigenvalues.

  State    Occupation    Eigenvalue [Ha]    Eigenvalue [eV]
      1       2.00000        -101.450932        -2760.62033
      2       2.00000        -101.416501        -2759.68340
      3       2.00000         -10.126174         -275.54721
      4       2.00000          -9.288542         -252.75410
      5       2.00000          -9.256168         -251.87316
      6       2.00000          -7.044230         -191.68326
      7       2.00000          -7.042072         -191.62452
      8       2.00000          -7.042072         -191.62452
      9       2.00000          -7.010286         -190.75960
     10       2.00000          -7.010222         -190.75784
     11       2.00000          -7.010222         -190.75784
     12       2.00000          -0.838039          -22.80421
     13       2.00000          -0.738864          -20.10551
     14       2.00000          -0.721484          -19.63257
     15       2.00000          -0.513425          -13.97102
     16       2.00000          -0.513356          -13.96912
     17       2.00000          -0.438193          -11.92384
     18       2.00000          -0.314206           -8.54998
     19       2.00000          -0.314204           -8.54992
     20       2.00000          -0.294334           -8.00922
     21       2.00000          -0.292925           -7.97089
     22       2.00000          -0.292924           -7.97088
     23       0.00000          -0.104201           -2.83546
     24       0.00000          -0.031195           -0.84887
     25       0.00000           0.013890            0.37796
     26       0.00000           0.013902            0.37829
     27       0.00000           0.072257            1.96621
     28       0.00000           0.072286            1.96700
     29       0.00000           0.109236            2.97247
     30       0.00000           0.143568            3.90668
     31       0.00000           0.189730            5.16282
     32       0.00000           0.189768            5.16384
     33       0.00000           0.210690            5.73316
     34       0.00000           0.210724            5.73408
     35       0.00000           0.227384            6.18742
     36       0.00000           0.258342            7.02985

  Highest occupied state (VBM) at     -7.97087504 eV
  | Occupation number:      2.00000000

  Lowest unoccupied state (CBM) at    -2.83546391 eV
  | Occupation number:      0.00000000

  Overall HOMO-LUMO gap:      5.13541113 eV.

  Total energy components:
  | Sum of eigenvalues            :        -557.93875026 Ha      -15182.28586083 eV
  | XC energy correction          :         -62.51825301 Ha       -1701.20822079 eV
  | XC potential correction       :          80.77304085 Ha        2197.94627186 eV
  | Free-atom electrostatic energy:        -424.17215079 Ha      -11542.31148931 eV
  | Hartree energy correction     :          -0.89011886 Ha         -24.22136654 eV
  | vdW energy correction         :           0.00000000 Ha           0.00000000 eV
  | Entropy correction            :           0.00000000 Ha           0.00000000 eV
  | ---------------------------
  | Total energy                  :        -964.74623206 Ha      -26252.08066561 eV
  | Total energy, T -> 0          :        -964.74623206 Ha      -26252.08066561 eV  <-- do not rely on this value for anything but (periodic) metals
  | Electronic free energy        :        -964.74623206 Ha      -26252.08066561 eV

  Derived energy quantities:
  | Kinetic energy                :         967.52316707 Ha       26327.64491179 eV
  | Electrostatic energy          :       -1869.75114613 Ha      -50878.51735661 eV
  | Energy correction for multipole
  | error in Hartree potential    :          -0.00015963 Ha          -0.00434380 eV
  | Sum of eigenvalues per atom                           :       -2530.38097681 eV
  | Total energy (T->0) per atom                          :       -4375.34677760 eV  <-- do not rely on this value for anything but (periodic) metals
  | Electronic free energy per atom                       :       -4375.34677760 eV

  Self-consistency convergence accuracy:
  | Change of charge density      :  0.3377E+00
  | Change of sum of eigenvalues  :  0.2482E+02 eV
  | Change of total energy        :  0.1001E+01 eV

  End self-consistency iteration #     1       :  max(cpu_time)    wall_clock(cpu1)
  | Time for this iteration                    :        0.652 s           0.653 s
  | Charge density update                      :        0.248 s           0.249 s
  | Density mixing                             :        0.004 s           0.002 s
  | Hartree multipole update                   :        0.016 s           0.014 s
  | Hartree multipole summation                :        0.144 s           0.143 s
  | Integration                                :        0.240 s           0.239 s
  | Solution of K.-S. eqns.                    :        0.004 s           0.003 s
  | Total energy evaluation                    :        0.000 s           0.001 s

  Partial memory accounting:
  | Current value for overall tracked memory usage on task 0  :           0.267 MB
  | Peak value for overall tracked memory usage on task 0     :           1.022 MB after allocating gradient_basis_wave
  | Largest tracked array allocation on task 0 so far         :           0.566 MB  when allocating gradient_basis_wave
  Note:  These values currently only include a subset of arrays which are explicitly tracked.
  The "true" memory usage will be greater.
------------------------------------------------------------

------------------------------------------------------------
          Begin self-consistency iteration #    2

  Date     :  20180214, Time     :  153954.674
------------------------------------------------------------
  Evaluating new KS density.
  Integration grid: deviation in total charge (<rho> - N_e) =  -7.105427E-15
  Pulay mixing of updated and previous charge densities.

  Evaluating partitioned Hartree potential by multipole expansion.
  | Analytical far-field extrapolation by fixed multipoles:
  | Hartree multipole sum: apparent total charge =  -0.412768E+00
  Summing up the Hartree potential.
  Time summed over all CPUs for potential: real work        1.039 s, elapsed        1.063 s
  | RMS charge density error from multipole expansion :   0.243425E-02

  Integrating Hamiltonian matrix: batch-based integration.
  Time summed over all CPUs for integration: real work        1.716 s, elapsed        1.930 s

  Updating Kohn-Sham eigenvalues, eigenvectors, occupation numbers, and Fermi level.
  Solving generalized eigenproblem
  Updating Kohn-Sham eigenvalues and eigenfunctions.
  Solving real generalised eigenvalue problem by standard LAPACK (fast)

  Obtaining occupation numbers and chemical potential using ELSI.
  | Chemical potential (Fermi level):    -1.61631654eV
  Highest occupied state (VBM) at     -3.64726131 eV
  | Occupation number:      2.00000000

  Lowest unoccupied state (CBM) at     0.24482865 eV
  | Occupation number:      0.00000000

  Overall HOMO-LUMO gap:      3.89208995 eV.

  Checking to see if s.c.f. parameters should be adjusted.
  The system likely has a gap. Increased the default Pulay mixing parameter (charge_mix_param). Value:   0.200000 .
  Kept the default occupation width. Value:   0.010000 eV.

  Total energy components:
  | Sum of eigenvalues            :        -551.58114782 Ha      -15009.28669639 eV
  | XC energy correction          :         -62.86662588 Ha       -1710.68792915 eV
  | XC potential correction       :          81.22652464 Ha        2210.28619370 eV
  | Free-atom electrostatic energy:        -424.17215079 Ha      -11542.31148931 eV
  | Hartree energy correction     :          -7.20012988 Ha        -195.92550272 eV
  | vdW energy correction         :           0.00000000 Ha           0.00000000 eV
  | Entropy correction            :           0.00000000 Ha           0.00000000 eV
  | ---------------------------
  | Total energy                  :        -964.59352974 Ha      -26247.92542388 eV
  | Total energy, T -> 0          :        -964.59352974 Ha      -26247.92542388 eV  <-- do not rely on this value for anything but (periodic) metals
  | Electronic free energy        :        -964.59352974 Ha      -26247.92542388 eV

  Derived energy quantities:
  | Kinetic energy                :         969.10572070 Ha       26370.70838702 eV
  | Electrostatic energy          :       -1870.83262455 Ha      -50907.94588174 eV
  | Energy correction for multipole
  | error in Hartree potential    :          -0.00129114 Ha          -0.03513366 eV
  | Sum of eigenvalues per atom                           :       -2501.54778273 eV
  | Total energy (T->0) per atom                          :       -4374.65423731 eV  <-- do not rely on this value for anything but (periodic) metals
  | Electronic free energy per atom                       :       -4374.65423731 eV

  Self-consistency convergence accuracy:
  | Change of charge density      :  0.3064E+00
  | Change of sum of eigenvalues  :  0.1730E+03 eV
  | Change of total energy        :  0.4155E+01 eV

  End self-consistency iteration #     2       :  max(cpu_time)    wall_clock(cpu1)
  | Time for this iteration                    :        0.704 s           0.701 s
  | Charge density update                      :        0.260 s           0.259 s
  | Density mixing                             :        0.004 s           0.004 s
  | Hartree multipole update                   :        0.016 s           0.015 s
  | Hartree multipole summation                :        0.148 s           0.149 s
  | Integration                                :        0.268 s           0.269 s
  | Solution of K.-S. eqns.                    :        0.004 s           0.004 s
  | Total energy evaluation                    :        0.000 s           0.001 s

  Partial memory accounting:
  | Current value for overall tracked memory usage on task 0  :           0.268 MB
  | Peak value for overall tracked memory usage on task 0     :           1.022 MB after allocating gradient_basis_wave
  | Largest tracked array allocation on task 0 so far         :           0.566 MB  when allocating gradient_basis_wave
  Note:  These values currently only include a subset of arrays which are explicitly tracked.
  The "true" memory usage will be greater.
------------------------------------------------------------

------------------------------------------------------------
          Begin self-consistency iteration #    3

  Date     :  20180214, Time     :  153955.376
------------------------------------------------------------
  Evaluating new KS density.
  Integration grid: deviation in total charge (<rho> - N_e) =   0.000000E+00
  Pulay mixing of updated and previous charge densities.

  Evaluating partitioned Hartree potential by multipole expansion.
  | Analytical far-field extrapolation by fixed multipoles:
  | Hartree multipole sum: apparent total charge =  -0.645610E+00
  Summing up the Hartree potential.
  Time summed over all CPUs for potential: real work        1.086 s, elapsed        1.401 s
  | RMS charge density error from multipole expansion :   0.353866E-02

  Integrating Hamiltonian matrix: batch-based integration.
  Time summed over all CPUs for integration: real work        1.666 s, elapsed        1.705 s

  Updating Kohn-Sham eigenvalues, eigenvectors, occupation numbers, and Fermi level.
  Solving generalized eigenproblem
  Updating Kohn-Sham eigenvalues and eigenfunctions.
  Solving real generalised eigenvalue problem by standard LAPACK (fast)

  Obtaining occupation numbers and chemical potential using ELSI.
  | Chemical potential (Fermi level):    -0.41081615eV
  Highest occupied state (VBM) at     -2.21445361 eV
  | Occupation number:      2.00000000

  Lowest unoccupied state (CBM) at     1.54808971 eV
  | Occupation number:      0.00000000

  Overall HOMO-LUMO gap:      3.76254333 eV.

  Total energy components:
  | Sum of eigenvalues            :        -549.36591192 Ha      -14949.00706046 eV
  | XC energy correction          :         -62.95303752 Ha       -1713.03930937 eV
  | XC potential correction       :          81.33773899 Ha        2213.31248990 eV
  | Free-atom electrostatic energy:        -424.17215079 Ha      -11542.31148931 eV
  | Hartree energy correction     :          -9.41049799 Ha        -256.07267925 eV
  | vdW energy correction         :           0.00000000 Ha           0.00000000 eV
  | Entropy correction            :           0.00000000 Ha           0.00000000 eV
  | ---------------------------
  | Total energy                  :        -964.56385924 Ha      -26247.11804849 eV
  | Total energy, T -> 0          :        -964.56385924 Ha      -26247.11804849 eV  <-- do not rely on this value for anything but (periodic) metals
  | Electronic free energy        :        -964.56385924 Ha      -26247.11804849 eV

  Derived energy quantities:
  | Kinetic energy                :         968.97881533 Ha       26367.25511631 eV
  | Electrostatic energy          :       -1870.58963705 Ha      -50901.33385544 eV
  | Energy correction for multipole
  | error in Hartree potential    :          -0.00176271 Ha          -0.04796586 eV
  | Sum of eigenvalues per atom                           :       -2491.50117674 eV
  | Total energy (T->0) per atom                          :       -4374.51967475 eV  <-- do not rely on this value for anything but (periodic) metals
  | Electronic free energy per atom                       :       -4374.51967475 eV

  Self-consistency convergence accuracy:
  | Change of charge density      :  0.1576E+00
  | Change of sum of eigenvalues  :  0.6028E+02 eV
  | Change of total energy        :  0.8074E+00 eV

  End self-consistency iteration #     3       :  max(cpu_time)    wall_clock(cpu1)
  | Time for this iteration                    :        0.752 s           0.751 s
  | Charge density update                      :        0.284 s           0.284 s
  | Density mixing                             :        0.008 s           0.005 s
  | Hartree multipole update                   :        0.016 s           0.014 s
  | Hartree multipole summation                :        0.208 s           0.206 s
  | Integration                                :        0.240 s           0.238 s
  | Solution of K.-S. eqns.                    :        0.004 s           0.003 s
  | Total energy evaluation                    :        0.000 s           0.001 s

  Partial memory accounting:
  | Current value for overall tracked memory usage on task 0  :           0.268 MB
  | Peak value for overall tracked memory usage on task 0     :           1.023 MB after allocating gradient_basis_wave
  | Largest tracked array allocation on task 0 so far         :           0.566 MB  when allocating gradient_basis_wave
  Note:  These values currently only include a subset of arrays which are explicitly tracked.
  The "true" memory usage will be greater.
------------------------------------------------------------

------------------------------------------------------------
          Begin self-consistency iteration #    4

  Date     :  20180214, Time     :  153956.128
------------------------------------------------------------
  Evaluating new KS density.
  Integration grid: deviation in total charge (<rho> - N_e) =   0.000000E+00
  Pulay mixing of updated and previous charge densities.

  Evaluating partitioned Hartree potential by multipole expansion.
  | Analytical far-field extrapolation by fixed multipoles:
  | Hartree multipole sum: apparent total charge =  -0.920511E+00
  Summing up the Hartree potential.
  Time summed over all CPUs for potential: real work        1.041 s, elapsed        1.107 s
  | RMS charge density error from multipole expansion :   0.495904E-02

  Integrating Hamiltonian matrix: batch-based integration.
  Time summed over all CPUs for integration: real work        1.731 s, elapsed        1.818 s

  Updating Kohn-Sham eigenvalues, eigenvectors, occupation numbers, and Fermi level.
  Solving generalized eigenproblem
  Updating Kohn-Sham eigenvalues and eigenfunctions.
  Solving real generalised eigenvalue problem by standard LAPACK (fast)

  Obtaining occupation numbers and chemical potential using ELSI.
  | Chemical potential (Fermi level):     0.96854951eV
  Highest occupied state (VBM) at     -0.60951377 eV
  | Occupation number:      2.00000000

  Lowest unoccupied state (CBM) at     2.94188809 eV
  | Occupation number:      0.00000000

  Overall HOMO-LUMO gap:      3.55140186 eV.

  Total energy components:
  | Sum of eigenvalues            :        -547.04349424 Ha      -14885.81086012 eV
  | XC energy correction          :         -63.03712329 Ha       -1715.32739961 eV
  | XC potential correction       :          81.44560802 Ha        2216.24775558 eV
  | Free-atom electrostatic energy:        -424.17215079 Ha      -11542.31148931 eV
  | Hartree energy correction     :         -11.74199155 Ha        -319.51584679 eV
  | vdW energy correction         :           0.00000000 Ha           0.00000000 eV
  | Entropy correction            :           0.00000000 Ha           0.00000000 eV
  | ---------------------------
  | Total energy                  :        -964.54915185 Ha      -26246.71784025 eV
  | Total energy, T -> 0          :        -964.54915185 Ha      -26246.71784025 eV  <-- do not rely on this value for anything but (periodic) metals
  | Electronic free energy        :        -964.54915185 Ha      -26246.71784025 eV

  Derived energy quantities:
  | Kinetic energy                :         968.60096534 Ha       26356.97329498 eV
  | Electrostatic energy          :       -1870.11299391 Ha      -50888.36373561 eV
  | Energy correction for multipole
  | error in Hartree potential    :          -0.00230437 Ha          -0.06270503 eV
  | Sum of eigenvalues per atom                           :       -2480.96847669 eV
  | Total energy (T->0) per atom                          :       -4374.45297337 eV  <-- do not rely on this value for anything but (periodic) metals
  | Electronic free energy per atom                       :       -4374.45297337 eV

  Self-consistency convergence accuracy:
  | Change of charge density      :  0.9467E-01
  | Change of sum of eigenvalues  :  0.6320E+02 eV
  | Change of total energy        :  0.4002E+00 eV

  End self-consistency iteration #     4       :  max(cpu_time)    wall_clock(cpu1)
  | Time for this iteration                    :        0.672 s           0.671 s
  | Charge density update                      :        0.240 s           0.239 s
  | Density mixing                             :        0.008 s           0.007 s
  | Hartree multipole update                   :        0.016 s           0.013 s
  | Hartree multipole summation                :        0.156 s           0.155 s
  | Integration                                :        0.252 s           0.253 s
  | Solution of K.-S. eqns.                    :        0.004 s           0.003 s
  | Total energy evaluation                    :        0.000 s           0.000 s

  Partial memory accounting:
  | Current value for overall tracked memory usage on task 0  :           0.268 MB
  | Peak value for overall tracked memory usage on task 0     :           1.023 MB after allocating gradient_basis_wave
  | Largest tracked array allocation on task 0 so far         :           0.566 MB  when allocating gradient_basis_wave
  Note:  These values currently only include a subset of arrays which are explicitly tracked.
  The "true" memory usage will be greater.
------------------------------------------------------------

------------------------------------------------------------
          Begin self-consistency iteration #    5

  Date     :  20180214, Time     :  153956.799
------------------------------------------------------------
  Evaluating new KS density.
  Integration grid: deviation in total charge (<rho> - N_e) =  -3.552714E-14
  Pulay mixing of updated and previous charge densities.

  Evaluating partitioned Hartree potential by multipole expansion.
  | Analytical far-field extrapolation by fixed multipoles:
  | Hartree multipole sum: apparent total charge =  -0.981013E+00
  Summing up the Hartree potential.
  Time summed over all CPUs for potential: real work        1.034 s, elapsed        1.054 s
  | RMS charge density error from multipole expansion :   0.531512E-02

  Integrating Hamiltonian matrix: batch-based integration.
  Time summed over all CPUs for integration: real work        1.716 s, elapsed        1.867 s

  Updating Kohn-Sham eigenvalues, eigenvectors, occupation numbers, and Fermi level.
  Solving generalized eigenproblem
  Updating Kohn-Sham eigenvalues and eigenfunctions.
  Solving real generalised eigenvalue problem by standard LAPACK (fast)

  Obtaining occupation numbers and chemical potential using ELSI.
  | Chemical potential (Fermi level):     1.18247604eV
  Highest occupied state (VBM) at     -0.20693115 eV
  | Occupation number:      2.00000000

  Lowest unoccupied state (CBM) at     3.14247199 eV
  | Occupation number:      0.00000000

  Overall HOMO-LUMO gap:      3.34940314 eV.

  Total energy components:
  | Sum of eigenvalues            :        -546.73922052 Ha      -14877.53115068 eV
  | XC energy correction          :         -63.03719641 Ha       -1715.32938923 eV
  | XC potential correction       :          81.44528872 Ha        2216.23906717 eV
  | Free-atom electrostatic energy:        -424.17215079 Ha      -11542.31148931 eV
  | Hartree energy correction     :         -12.04498005 Ha        -327.76058335 eV
  | vdW energy correction         :           0.00000000 Ha           0.00000000 eV
  | Entropy correction            :           0.00000000 Ha           0.00000000 eV
  | ---------------------------
  | Total energy                  :        -964.54825903 Ha      -26246.69354540 eV
  | Total energy, T -> 0          :        -964.54825903 Ha      -26246.69354540 eV  <-- do not rely on this value for anything but (periodic) metals
  | Electronic free energy        :        -964.54825903 Ha      -26246.69354540 eV

  Derived energy quantities:
  | Kinetic energy                :         968.35462228 Ha       26350.26995909 eV
  | Electrostatic energy          :       -1869.86568490 Ha      -50881.63411526 eV
  | Energy correction for multipole
  | error in Hartree potential    :          -0.00243072 Ha          -0.06614330 eV
  | Sum of eigenvalues per atom                           :       -2479.58852511 eV
  | Total energy (T->0) per atom                          :       -4374.44892423 eV  <-- do not rely on this value for anything but (periodic) metals
  | Electronic free energy per atom                       :       -4374.44892423 eV

  Self-consistency convergence accuracy:
  | Change of charge density      :  0.3014E-01
  | Change of sum of eigenvalues  :  0.8280E+01 eV
  | Change of total energy        :  0.2429E-01 eV

  End self-consistency iteration #     5       :  max(cpu_time)    wall_clock(cpu1)
  | Time for this iteration                    :        0.688 s           0.690 s
  | Charge density update                      :        0.248 s           0.251 s
  | Density mixing                             :        0.012 s           0.011 s
  | Hartree multipole update                   :        0.016 s           0.016 s
  | Hartree multipole summation                :        0.148 s           0.148 s
  | Integration                                :        0.260 s           0.260 s
  | Solution of K.-S. eqns.                    :        0.004 s           0.003 s
  | Total energy evaluation                    :        0.004 s           0.001 s

  Partial memory accounting:
  | Current value for overall tracked memory usage on task 0  :           0.268 MB
  | Peak value for overall tracked memory usage on task 0     :           1.023 MB after allocating gradient_basis_wave
  | Largest tracked array allocation on task 0 so far         :           0.566 MB  when allocating gradient_basis_wave
  Note:  These values currently only include a subset of arrays which are explicitly tracked.
  The "true" memory usage will be greater.
------------------------------------------------------------

------------------------------------------------------------
          Begin self-consistency iteration #    6

  Date     :  20180214, Time     :  153957.490
------------------------------------------------------------
  Evaluating new KS density.
  Integration grid: deviation in total charge (<rho> - N_e) =   7.105427E-15
  Pulay mixing of updated and previous charge densities.

  Evaluating partitioned Hartree potential by multipole expansion.
  | Analytical far-field extrapolation by fixed multipoles:
  | Hartree multipole sum: apparent total charge =  -0.100588E+01
  Summing up the Hartree potential.
  Time summed over all CPUs for potential: real work        1.032 s, elapsed        1.062 s
  | RMS charge density error from multipole expansion :   0.548490E-02

  Integrating Hamiltonian matrix: batch-based integration.
  Time summed over all CPUs for integration: real work        1.689 s, elapsed        1.741 s

  Updating Kohn-Sham eigenvalues, eigenvectors, occupation numbers, and Fermi level.
  Solving generalized eigenproblem
  Updating Kohn-Sham eigenvalues and eigenfunctions.
  Solving real generalised eigenvalue problem by standard LAPACK (fast)

  Obtaining occupation numbers and chemical potential using ELSI.
  | Chemical potential (Fermi level):     1.32683064eV
  Highest occupied state (VBM) at     -0.08399243 eV
  | Occupation number:      2.00000000

  Lowest unoccupied state (CBM) at     3.30462425 eV
  | Occupation number:      0.00000000

  Overall HOMO-LUMO gap:      3.38861668 eV.

  Total energy components:
  | Sum of eigenvalues            :        -546.52106979 Ha      -14871.59496728 eV
  | XC energy correction          :         -63.04479227 Ha       -1715.53608308 eV
  | XC potential correction       :          81.45510355 Ha        2216.50614228 eV
  | Free-atom electrostatic energy:        -424.17215079 Ha      -11542.31148931 eV
  | Hartree energy correction     :         -12.26530188 Ha        -333.75584542 eV
  | vdW energy correction         :           0.00000000 Ha           0.00000000 eV
  | Entropy correction            :           0.00000000 Ha           0.00000000 eV
  | ---------------------------
  | Total energy                  :        -964.54821117 Ha      -26246.69224280 eV
  | Total energy, T -> 0          :        -964.54821117 Ha      -26246.69224280 eV  <-- do not rely on this value for anything but (periodic) metals
  | Electronic free energy        :        -964.54821117 Ha      -26246.69224280 eV

  Derived energy quantities:
  | Kinetic energy                :         968.31716974 Ha       26349.25082370 eV
  | Electrostatic energy          :       -1869.82058864 Ha      -50880.40698342 eV
  | Energy correction for multipole
  | error in Hartree potential    :          -0.00247333 Ha          -0.06730284 eV
  | Sum of eigenvalues per atom                           :       -2478.59916121 eV
  | Total energy (T->0) per atom                          :       -4374.44870713 eV  <-- do not rely on this value for anything but (periodic) metals
  | Electronic free energy per atom                       :       -4374.44870713 eV

  Self-consistency convergence accuracy:
  | Change of charge density      :  0.1025E-01
  | Change of sum of eigenvalues  :  0.5936E+01 eV
  | Change of total energy        :  0.1303E-02 eV

  End self-consistency iteration #     6       :  max(cpu_time)    wall_clock(cpu1)
  | Time for this iteration                    :        0.664 s           0.664 s
  | Charge density update                      :        0.244 s           0.244 s
  | Density mixing                             :        0.012 s           0.011 s
  | Hartree multipole update                   :        0.016 s           0.014 s
  | Hartree multipole summation                :        0.152 s           0.148 s
  | Integration                                :        0.244 s           0.243 s
  | Solution of K.-S. eqns.                    :        0.004 s           0.003 s
  | Total energy evaluation                    :        0.000 s           0.001 s

  Partial memory accounting:
  | Current value for overall tracked memory usage on task 0  :           0.268 MB
  | Peak value for overall tracked memory usage on task 0     :           1.023 MB after allocating gradient_basis_wave
  | Largest tracked array allocation on task 0 so far         :           0.566 MB  when allocating gradient_basis_wave
  Note:  These values currently only include a subset of arrays which are explicitly tracked.
  The "true" memory usage will be greater.
------------------------------------------------------------

------------------------------------------------------------
          Begin self-consistency iteration #    7

  Date     :  20180214, Time     :  153958.155
------------------------------------------------------------
  Evaluating new KS density.
  Integration grid: deviation in total charge (<rho> - N_e) =   1.421085E-14
  Pulay mixing of updated and previous charge densities.

  Evaluating partitioned Hartree potential by multipole expansion.
  | Analytical far-field extrapolation by fixed multipoles:
  | Hartree multipole sum: apparent total charge =  -0.998772E+00
  Summing up the Hartree potential.
  Time summed over all CPUs for potential: real work        1.072 s, elapsed        1.193 s
  | RMS charge density error from multipole expansion :   0.545850E-02

  Integrating Hamiltonian matrix: batch-based integration.
  Time summed over all CPUs for integration: real work        1.773 s, elapsed        1.987 s

  Updating Kohn-Sham eigenvalues, eigenvectors, occupation numbers, and Fermi level.
  Solving generalized eigenproblem
  Updating Kohn-Sham eigenvalues and eigenfunctions.
  Solving real generalised eigenvalue problem by standard LAPACK (fast)

  Obtaining occupation numbers and chemical potential using ELSI.
  | Chemical potential (Fermi level):     1.28708150eV
  Highest occupied state (VBM) at     -0.12774996 eV
  | Occupation number:      2.00000000

  Lowest unoccupied state (CBM) at     3.26150528 eV
  | Occupation number:      0.00000000

  Overall HOMO-LUMO gap:      3.38925525 eV.

  Total energy components:
  | Sum of eigenvalues            :        -546.59615689 Ha      -14873.63819139 eV
  | XC energy correction          :         -63.04127577 Ha       -1715.44039443 eV
  | XC potential correction       :          81.45056038 Ha        2216.38251626 eV
  | Free-atom electrostatic energy:        -424.17215079 Ha      -11542.31148931 eV
  | Hartree energy correction     :         -12.18918000 Ha        -331.68446375 eV
  | vdW energy correction         :           0.00000000 Ha           0.00000000 eV
  | Entropy correction            :           0.00000000 Ha           0.00000000 eV
  | ---------------------------
  | Total energy                  :        -964.54820307 Ha      -26246.69202262 eV
  | Total energy, T -> 0          :        -964.54820307 Ha      -26246.69202262 eV  <-- do not rely on this value for anything but (periodic) metals
  | Electronic free energy        :        -964.54820307 Ha      -26246.69202262 eV

  Derived energy quantities:
  | Kinetic energy                :         968.31978170 Ha       26349.32189891 eV
  | Electrostatic energy          :       -1869.82670900 Ha      -50880.57352710 eV
  | Energy correction for multipole
  | error in Hartree potential    :          -0.00245449 Ha          -0.06679011 eV
  | Sum of eigenvalues per atom                           :       -2478.93969857 eV
  | Total energy (T->0) per atom                          :       -4374.44867044 eV  <-- do not rely on this value for anything but (periodic) metals
  | Electronic free energy per atom                       :       -4374.44867044 eV

  Self-consistency convergence accuracy:
  | Change of charge density      :  0.4166E-02
  | Change of sum of eigenvalues  : -0.2043E+01 eV
  | Change of total energy        :  0.2202E-03 eV

  End self-consistency iteration #     7       :  max(cpu_time)    wall_clock(cpu1)
  | Time for this iteration                    :        0.724 s           0.723 s
  | Charge density update                      :        0.244 s           0.241 s
  | Density mixing                             :        0.016 s           0.019 s
  | Hartree multipole update                   :        0.016 s           0.014 s
  | Hartree multipole summation                :        0.168 s           0.167 s
  | Integration                                :        0.276 s           0.277 s
  | Solution of K.-S. eqns.                    :        0.004 s           0.004 s
  | Total energy evaluation                    :        0.004 s           0.001 s

  Partial memory accounting:
  | Current value for overall tracked memory usage on task 0  :           0.268 MB
  | Peak value for overall tracked memory usage on task 0     :           1.023 MB after allocating gradient_basis_wave
  | Largest tracked array allocation on task 0 so far         :           0.566 MB  when allocating gradient_basis_wave
  Note:  These values currently only include a subset of arrays which are explicitly tracked.
  The "true" memory usage will be greater.
------------------------------------------------------------

------------------------------------------------------------
          Begin self-consistency iteration #    8

  Date     :  20180214, Time     :  153958.879
------------------------------------------------------------
  Evaluating new KS density.
  Integration grid: deviation in total charge (<rho> - N_e) =   7.105427E-15
  Pulay mixing of updated and previous charge densities.

  Evaluating partitioned Hartree potential by multipole expansion.
  | Analytical far-field extrapolation by fixed multipoles:
  | Hartree multipole sum: apparent total charge =  -0.100035E+01
  Summing up the Hartree potential.
  Time summed over all CPUs for potential: real work        1.026 s, elapsed        1.046 s
  | RMS charge density error from multipole expansion :   0.548126E-02

  Integrating Hamiltonian matrix: batch-based integration.
  Time summed over all CPUs for integration: real work        1.673 s, elapsed        1.708 s

  Updating Kohn-Sham eigenvalues, eigenvectors, occupation numbers, and Fermi level.
[...]
     10       2.00000          -6.698024         -182.26250
     11       2.00000          -6.698024         -182.26249
     12       2.00000          -0.621755          -16.91882
     13       2.00000          -0.462483          -12.58480
     14       2.00000          -0.429496          -11.68717
     15       2.00000          -0.239885           -6.52759
     16       2.00000          -0.239815           -6.52569
     17       2.00000          -0.218803           -5.95394
     18       2.00000          -0.119848           -3.26124
     19       2.00000          -0.119846           -3.26116
     20       2.00000          -0.007176           -0.19526
     21       2.00000          -0.003978           -0.10825
     22       2.00000          -0.003977           -0.10822
     23       0.00000           0.119975            3.26468
     24       0.00000           0.139429            3.79406
     25       0.00000           0.173678            4.72601
     26       0.00000           0.173720            4.72717
     27       0.00000           0.259276            7.05525
     28       0.00000           0.259303            7.05598
     29       0.00000           0.288598            7.85314
     30       0.00000           0.334143            9.09248
     31       0.00000           0.385498           10.48993
     32       0.00000           0.385549           10.49131
     33       0.00000           0.393733           10.71402
     34       0.00000           0.393735           10.71409
     35       0.00000           0.412109           11.21406
     36       0.00000           0.444730           12.10171

  Highest occupied state (VBM) at     -0.10822291 eV
  | Occupation number:      2.00000000

  Lowest unoccupied state (CBM) at     3.26468468 eV
  | Occupation number:      0.00000000

  Overall HOMO-LUMO gap:      3.37290759 eV.

  Self-consistency cycle converged.

  End self-consistency iteration #    16       :  max(cpu_time)    wall_clock(cpu1)
  | Time for this iteration                    :        1.760 s           1.763 s
  | Charge density & force component update    :        0.952 s           0.952 s
  | Density mixing                             :        0.016 s           0.016 s
  | Hartree multipole update                   :        0.016 s           0.014 s
  | Hartree multipole summation                :        0.532 s           0.530 s
  | Integration                                :        0.244 s           0.243 s
  | Solution of K.-S. eqns.                    :        0.004 s           0.003 s
  | Total energy evaluation                    :        0.000 s           0.002 s

  Partial memory accounting:
  | Current value for overall tracked memory usage on task 0  :           0.268 MB
  | Peak value for overall tracked memory usage on task 0     :           2.348 MB after allocating hessian_basis_wave
  | Largest tracked array allocation on task 0 so far         :           1.133 MB  when allocating hessian_basis_wave
  Note:  These values currently only include a subset of arrays which are explicitly tracked.
  The "true" memory usage will be greater.
------------------------------------------------------------
  Obtaining max. number of non-zero basis functions in each batch .
  Evaluating KS electron density on previously omitted grid points.
  Evaluating non-empirical van der Waals correction (Tkatchenko/Scheffler 2009).
  Performing Hirshfeld analysis of fragment charges and moments.
  ----------------------------------------------------------------------
  | Atom     1: Cl
  |   Hirshfeld charge        :     -0.77370677
  |   Free atom volume        :     65.35447769
  |   Hirshfeld volume        :     85.08052292
  |   Hirshfeld dipole vector :      0.13039923      -0.00000970      -0.00000000
  |   Hirshfeld dipole moment :      0.13039923
  |   Hirshfeld second moments:     -0.42555203      -0.00002623      -0.00000000
  |                                 -0.00002623      -0.63219063      -0.00000000
  |                                 -0.00000000      -0.00000000      -0.63218009
  ----------------------------------------------------------------------
  | Atom     2: C
  |   Hirshfeld charge        :     -0.09414664
  |   Free atom volume        :     38.37861207
  |   Hirshfeld volume        :     33.35399502
  |   Hirshfeld dipole vector :      0.02806783      -0.00001304       0.00000000
  |   Hirshfeld dipole moment :      0.02806784
  |   Hirshfeld second moments:      0.06903474      -0.00002194      -0.00000000
  |                                 -0.00002194       0.12820214      -0.00000000
  |                                 -0.00000000      -0.00000000       0.12819913
  ----------------------------------------------------------------------
  | Atom     3: Cl
  |   Hirshfeld charge        :     -0.21496588
  |   Free atom volume        :     65.35447769
  |   Hirshfeld volume        :     67.95589741
  |   Hirshfeld dipole vector :     -0.11102152       0.00003240       0.00000000
  |   Hirshfeld dipole moment :      0.11102153
  |   Hirshfeld second moments:      0.05065353       0.00002824      -0.00000000
  |                                  0.00002824      -0.17489221       0.00000000
  |                                 -0.00000000       0.00000000      -0.17491248
  ----------------------------------------------------------------------
  | Atom     4: H
  |   Hirshfeld charge        :      0.02759782
  |   Free atom volume        :     10.31539447
  |   Hirshfeld volume        :      8.27853397
  |   Hirshfeld dipole vector :     -0.01098854       0.07872171      -0.00000000
  |   Hirshfeld dipole moment :      0.07948494
  |   Hirshfeld second moments:      0.03020838       0.00883650      -0.00000000
  |                                  0.00883650       0.07418903      -0.00000000
  |                                 -0.00000000      -0.00000000       0.09228118
  ----------------------------------------------------------------------
  | Atom     5: H
  |   Hirshfeld charge        :      0.02758388
  |   Free atom volume        :     10.31539447
  |   Hirshfeld volume        :      8.27900846
  |   Hirshfeld dipole vector :     -0.01101339      -0.03937471       0.06813036
  |   Hirshfeld dipole moment :      0.07945696
  |   Hirshfeld second moments:      0.03017840      -0.00442131       0.00766011
  |                                 -0.00442131       0.08775052       0.00783410
  |                                  0.00766011       0.00783410       0.07870602
  ----------------------------------------------------------------------
  | Atom     6: H
  |   Hirshfeld charge        :      0.02758388
  |   Free atom volume        :     10.31539447
  |   Hirshfeld volume        :      8.27900846
  |   Hirshfeld dipole vector :     -0.01101339      -0.03937471      -0.06813036
  |   Hirshfeld dipole moment :      0.07945696
  |   Hirshfeld second moments:      0.03017840      -0.00442131      -0.00766011
  |                                 -0.00442131       0.08775052      -0.00783410
  |                                 -0.00766011      -0.00783410       0.07870602
  ----------------------------------------------------------------------


  Total energy components:
  | Sum of eigenvalues            :        -546.57522178 Ha      -14873.06851809 eV
  | XC energy correction          :         -63.04306253 Ha       -1715.48901449 eV
  | XC potential correction       :          81.45286850 Ha        2216.44532346 eV
  | Free-atom electrostatic energy:        -424.17215079 Ha      -11542.31148931 eV
  | Hartree energy correction     :         -12.21063295 Ha        -332.26822814 eV
  | vdW energy correction         :          -0.00040790 Ha          -0.01109964 eV
  | Entropy correction            :           0.00000000 Ha           0.00000000 eV
  | ---------------------------
  | Total energy                  :        -964.54860745 Ha      -26246.70302621 eV
  | Total energy, T -> 0          :        -964.54860745 Ha      -26246.70302621 eV  <-- do not rely on this value for anything but (periodic) metals
  | Electronic free energy        :        -964.54860745 Ha      -26246.70302621 eV

  Derived energy quantities:
  | Kinetic energy                :         968.32676565 Ha       26349.51194174 eV
  | Electrostatic energy          :       -1869.83190267 Ha      -50880.71485382 eV
  | Energy correction for multipole
  | error in Hartree potential    :          -0.00245030 Ha          -0.06667610 eV
  | Sum of eigenvalues per atom                           :       -2478.84475302 eV
  | Total energy (T->0) per atom                          :       -4374.45050437 eV  <-- do not rely on this value for anything but (periodic) metals
  | Electronic free energy per atom                       :       -4374.45050437 eV

  atomic forces [eV/Ang]:
  -----------------------
  atom #    1
   Hellmann-Feynman              : -0.231412E+01  0.750913E-03 -0.380717E-11
   Ionic forces                  :  0.000000E+00  0.000000E+00  0.000000E+00
   Multipole                     :  0.475804E-01  0.993313E-05 -0.722008E-12
   Pulay + GGA                   :  0.226792E+01 -0.509525E-03  0.233155E-10
   Van der Waals                 : -0.841414E-02 -0.309647E-05 -0.871124E-18
   ----------------------------------------------------------------
   Total forces(   1)            : -0.703833E-02  0.248224E-03  0.187864E-10
  atom #    2
   Hellmann-Feynman              : -0.355000E+01  0.304819E-02  0.174433E-11
   Ionic forces                  :  0.000000E+00  0.000000E+00  0.000000E+00
   Multipole                     :  0.170350E-01 -0.243388E-03  0.509015E-13
   Pulay + GGA                   :  0.352639E+01 -0.793166E-03 -0.483124E-12
   Van der Waals                 :  0.459233E-02 -0.386190E-08  0.816678E-20
   ----------------------------------------------------------------
   Total forces(   2)            : -0.197554E-02  0.201164E-02  0.131210E-11
  atom #    3
   Hellmann-Feynman              :  0.266890E+02  0.277656E-02 -0.762738E-12
   Ionic forces                  :  0.000000E+00  0.000000E+00  0.000000E+00
   Multipole                     : -0.356665E-01  0.751167E-04 -0.464160E-12
   Pulay + GGA                   : -0.266502E+02 -0.412459E-02  0.758155E-10
   Van der Waals                 : -0.339638E-02  0.736939E-06 -0.871124E-19
   ----------------------------------------------------------------
   Total forces(   3)            : -0.281013E-03 -0.127218E-02  0.745886E-10
  atom #    4
   Hellmann-Feynman              :  0.484036E-02 -0.558719E-01  0.165803E-13
   Ionic forces                  :  0.000000E+00  0.000000E+00  0.000000E+00
   Multipole                     :  0.123135E-01 -0.174012E-01  0.621634E-15
   Pulay + GGA                   : -0.185231E-01  0.740758E-01 -0.498701E-13
   Van der Waals                 :  0.241336E-02  0.203072E-02  0.119780E-18
   ----------------------------------------------------------------
   Total forces(   4)            :  0.104411E-02  0.283343E-02 -0.326681E-13
  atom #    5
   Hellmann-Feynman              :  0.662779E-02  0.274736E-01 -0.442775E-01
   Ionic forces                  :  0.000000E+00  0.000000E+00  0.000000E+00
   Multipole                     :  0.123923E-01  0.870492E-02 -0.149883E-01
   Pulay + GGA                   : -0.185579E-01 -0.370392E-01  0.641511E-01
   Van der Waals                 :  0.240242E-02 -0.101418E-02  0.175574E-02
   ----------------------------------------------------------------
   Total forces(   5)            :  0.286457E-02 -0.187496E-02  0.664099E-02
  atom #    6
   Hellmann-Feynman              :  0.662779E-02  0.274736E-01  0.442775E-01
   Ionic forces                  :  0.000000E+00  0.000000E+00  0.000000E+00
   Multipole                     :  0.123923E-01  0.870492E-02  0.149883E-01
   Pulay + GGA                   : -0.185579E-01 -0.370392E-01 -0.641511E-01
   Van der Waals                 :  0.240242E-02 -0.101418E-02 -0.175574E-02
   ----------------------------------------------------------------
   Total forces(   6)            :  0.286457E-02 -0.187496E-02 -0.664099E-02

  Timings for VdW correction (Tkatchenko-Scheffler 2009 or later):
  | CPU time:        0.040 s, Wall clock time:        0.041 s.
  Removing unitary transformations (pure translations, rotations) from forces on atoms.
  Atomic forces before filtering:
  | Net force on center of mass :  -0.252163E-02  0.712063E-04  0.947588E-10 eV/A
  | Net torque on center of mass:  -0.113393E-13 -0.116554E-09 -0.911791E-03 eV
  Atomic forces after filtering:
  | Net force on center of mass :   0.209070E-17  0.348449E-18  0.000000E+00 eV/A
  | Net torque on center of mass:   0.737566E-18 -0.460979E-18  0.737566E-18 eV

  Energy and forces in a compact form:
  | Total energy uncorrected      :         -0.262467030262093E+05 eV
  | Total energy corrected        :         -0.262467030262093E+05 eV  <-- do not rely on this value for anything but (periodic) metals
  | Electronic free energy        :         -0.262467030262093E+05 eV
  Total atomic forces (unitary forces cleaned) [eV/Ang]:
  |   1         -0.661806256717384E-02          0.606211608363587E-04          0.254593096116686E-10
  |   2         -0.155526376468078E-02          0.202357508571739E-02         -0.175243458030640E-10
  |   3          0.139258346793617E-03         -0.113782184241019E-02          0.401021383624556E-10
  |   4          0.139648559105048E-02          0.282349816866010E-02         -0.160672721113508E-10
  |   5          0.331879120450125E-02         -0.188493628644976E-02          0.664099179476723E-02
  |   6          0.331879118950927E-02         -0.188493628635389E-02         -0.664099182673706E-02

  ------------------------------------ 
  Start decomposition of the XC Energy 
  ------------------------------------ 
  X and C from original XC functional choice 
  Hartree-Fock Energy :          0.000000000 Ha              0.000000000 eV
  X Energy            :        -61.416882380 Ha          -1671.238401230 eV
  C Energy            :         -1.626180147 Ha            -44.250613258 eV
  Total XC Energy     :        -63.043062527 Ha          -1715.489014488 eV
  ------------------------------------ 
  LDA X and C from self-consistent density 
  X Energy LDA        :        -56.825542773 Ha          -1546.301693814 eV
  C Energy LDA        :         -3.249116750 Ha            -88.412965172 eV
  ------------------------------------ 
  End decomposition of the XC Energy 
  ------------------------------------ 

------------------------------------------------------------

------------------------------------------------------------------------------
  Final output of selected total energy values:

  The following output summarizes some interesting total energy values
  at the end of a run (AFTER all relaxation, molecular dynamics, etc.).

  | Total energy of the DFT / Hartree-Fock s.c.f. calculation      :         -26246.703026209 eV
  | Final zero-broadening corrected energy (caution - metals only) :         -26246.703026209 eV
  | For reference only, the value of 1 Hartree used in FHI-aims is :             27.211384500 eV

  Before relying on these values, please be sure to understand exactly which
  total energy value is referred to by a given number. Different objects may
  all carry the same name 'total energy'. Definitions:

  Total energy of the DFT / Hartree-Fock s.c.f. calculation:
  | Note that this energy does not include ANY quantities calculated after the
  | s.c.f. cycle, in particular not ANY RPA, MP2, etc. many-body perturbation terms.

  Final zero-broadening corrected energy:
  | For metallic systems only, a broadening of the occupation numbers at the Fermi
  | level can be extrapolated back to zero broadening by an electron-gas inspired
  | formula. For all systems that are not real metals, this value can be
  | meaningless and should be avoided.

------------------------------------------------------------------------------
  Methods described in the following list of references were used in this FHI-aims run.
  If you publish the results, please make sure to cite these reference if they apply.
  FHI-aims is an academic code, and for our developers (often, Ph.D. students
  and postdocs), scientific credit in the community is essential.
  Thank you for helping us!

  For any use of FHI-aims, please cite:

    Volker Blum, Ralf Gehrke, Felix Hanke, Paula Havu, Ville Havu,
    Xinguo Ren, Karsten Reuter, and Matthias Scheffler
    'Ab initio molecular simulations with numeric atom-centered orbitals'
    Computer Physics Communications 180, 2175-2196 (2009)
    http://dx.doi.org/10.1016/j.cpc.2009.06.022


  For the real-space grid partitioning and parallelization used in this calculation, please cite:

    Ville Havu, Volker Blum, Paula Havu, and Matthias Scheffler,
    'Efficient O(N) integration for all-electron electronic structure calculation'
    'using numerically tabulated basis functions'
    Journal of Computational Physics 228, 8367-8379 (2009).
    http://dx.doi.org/10.1016/j.jcp.2009.08.008

  Of course, there are many other important community references, e.g., those cited in the
  above references. Our list is limited to references that describe implementations in the
  FHI-aims code. The reason is purely practical (length of this list) - please credit others as well.

------------------------------------------------------------
          Leaving FHI-aims.
          Date     :  20180214, Time     :  154006.083

          Computational steps:
          | Number of self-consistency cycles          :           16
          | Number of SCF (re)initializations          :            1

          Detailed time accounting                     :  max(cpu_time)    wall_clock(cpu1)
          | Total time                                 :       12.904 s          13.008 s
          | Preparation time                           :        0.356 s           0.358 s
          | Boundary condition initalization           :        0.000 s           0.000 s
          | Grid partitioning                          :        0.072 s           0.071 s
          | Preloading free-atom quantities on grid    :        0.020 s           0.020 s
          | Free-atom superposition energy             :        0.024 s           0.023 s
          | Total time for integrations                :        4.324 s           4.310 s
          | Total time for solution of K.-S. equations :        0.080 s           0.067 s
          | Total time for density & force components  :        4.704 s           4.690 s
          | Total time for mixing                      :        0.212 s           0.209 s
          | Total time for Hartree multipole update    :        0.264 s           0.234 s
          | Total time for Hartree multipole sum       :        2.864 s           2.845 s
          | Total time for total energy evaluation     :        0.020 s           0.016 s
          | Total time for scaled ZORA corrections     :        0.000 s           0.000 s
          | Total time for vdW correction              :        0.040 s           0.041 s

          Partial memory accounting:
          | Residual value for overall tracked memory usage across tasks :           0.000 MB (should be 0.000 MB)
          | Peak values for overall tracked memory usage (after allocating hessian_basis_wave):
          |   Minimum:        2.348 MB (on task 1)
          |   Maximum:        2.348 MB (on task 1)
          |   Average:        2.348 MB
          | Largest tracked array allocation (hessian_basis_wave):
          |   Minimum:        1.133 MB (on task 1)
          |   Maximum:        1.133 MB (on task 1)
          |   Average:        1.133 MB
          Note:  These values currently only include a subset of arrays which are explicitly tracked.
          The "true" memory usage will be greater.

          Have a nice day.
------------------------------------------------------------
