  MPI-parallelism will be employed.
------------------------------------------------------------
          Invoking FHI-aims ...

          When using FHI-aims, please cite the following reference:

          Volker Blum, Ralf Gehrke, Felix Hanke, Paula Havu,
          Ville Havu, Xinguo Ren, Karsten Reuter, and Matthias Scheffler,
          'Ab Initio Molecular Simulations with Numeric Atom-Centered Orbitals',
          Computer Physics Communications 180, 2175-2196 (2009)

          For any questions about FHI-aims, please visit the aimsclub website
          with its forums and wiki. Contributions to both the forums and the
          wiki are warmly encouraged - they are for you, and everyone is welcome there.

------------------------------------------------------------



  Date     :  20190817, Time     :  154302.968
  Time zero on CPU 1             :   0.491850000000000E-01  s.
  Internal wall clock time zero  :           335288582.968  s.

  FHI-aims created a unique identifier for this run for later identification
  aims_uuid : 985433AD-3B73-486E-A73B-7FFCD50D7DDB

  Build configuration of the current instance of FHI-aims
  -------------------------------------------------------
  FHI-aims version      : 190813
  Commit number         : 3da7baeb3
  CMake host system     : Linux-4.4.180-94.97-default
  CMake version         : 3.5.2
  Fortran compiler      : /mpcdf/soft/SLE_12_SP3/packages/x86_64/intel_parallel_studio/2018.4/compilers_and_libraries_2018.5.274/linux/mpi/bin64/mpiifort (Intel) version 18.0.5.20180823
  Fortran compiler flags: -O3 -ip -fp-model precise
  C compiler            : /mpcdf/soft/SLE_12_SP3/packages/skylake/intel/18.0.5/bin/icc (Intel) version 18.0.5.20180823
  C compiler flags      : -O3 -ip -fp-model precise
  Architecture          :
  Using MPI
  Using Scalapack
  Using C files
  Using SPGlib
  Using i-PI
  Linking against: /mpcdf/soft/SLE_12_SP3/packages/x86_64/anaconda/3.5.1.0/lib/libmkl_intel_lp64.so
                   /mpcdf/soft/SLE_12_SP3/packages/x86_64/anaconda/3.5.1.0/lib/libmkl_sequential.so
                   /mpcdf/soft/SLE_12_SP3/packages/x86_64/anaconda/3.5.1.0/lib/libmkl_core.so
                   /mpcdf/soft/SLE_12_SP3/packages/x86_64/anaconda/3.5.1.0/lib/libmkl_blacs_intelmpi_lp64.so
                   /mpcdf/soft/SLE_12_SP3/packages/x86_64/anaconda/3.5.1.0/lib/libmkl_scalapack_lp64.so

  Using        8 parallel tasks.
  Task        0 on host co1631 reporting.
  Task        1 on host co1631 reporting.
  Task        2 on host co1631 reporting.
  Task        3 on host co1631 reporting.
  Task        4 on host co1631 reporting.
  Task        5 on host co1631 reporting.
  Task        6 on host co1631 reporting.
  Task        7 on host co1631 reporting.

  Performing system and environment tests:
  | Environment variable OMP_NUM_THREADS correctly set to 1.
  | Maximum stacksize for task 0: unlimited
  | Maximum stacksize for task 1: unlimited
  | Maximum stacksize for task 2: unlimited
  | Maximum stacksize for task 3: unlimited
  | Maximum stacksize for task 4: unlimited
  | Maximum stacksize for task 5: unlimited
  | Maximum stacksize for task 6: unlimited
  | Maximum stacksize for task 7: unlimited
  | Current stacksize for task 0: unlimited
  | Current stacksize for task 1: unlimited
  | Current stacksize for task 2: unlimited
  | Current stacksize for task 3: unlimited
  | Current stacksize for task 4: unlimited
  | Current stacksize for task 5: unlimited
  | Current stacksize for task 6: unlimited
  | Current stacksize for task 7: unlimited
  | Checking for scalapack...
  | Testing pdtran()...
  | All pdtran() tests passed.

  Obtaining array dimensions for all initial allocations:
  
  -----------------------------------------------------------------------
  Parsing control.in (first pass over file, find array dimensions only).
  The contents of control.in will be repeated verbatim below
  unless switched off by setting 'verbatim_writeout .false.' .
  in the first line of control.in .
  -----------------------------------------------------------------------
  
  # H2O
  
  xc                 pw-lda
  mr_experimental
  magnetic_response  J_coupling shielding magnet full
  
  # NAO-VCC-2Z
    species        O
  #     set basis set reference for FHI-aims output
      cite_reference NAO-VCC-2013
  #     global species definitions
      nucleus             8
      mass                15.9994
  #
      l_hartree           6
  #
      cut_pot             4.0  2.0  1.0
      basis_dep_cutoff    0e-4
  #
      radial_base         36 7.0
      radial_multiplier   2
      angular_grids       specified
        division   0.1817   50
        division   0.3417  110
        division   0.4949  194
        division   0.6251  302
        division   0.8014  434
        division   0.8507  590
  #      division   0.8762  770
  #      division   0.9023  974
  #      division   1.2339 1202
  #      outer_grid 974
        outer_grid 770
  #      outer_grid  434
  ################################################################################
  #
  #  Definition of "minimal" basis
  #
  ################################################################################
  #     valence basis states
      valence      2  s   2.
      valence      2  p   4.
  #     ion occupancy
      ion_occ      2  s   1.
      ion_occ      2  p   3.
  ################################################################################
  
   basis_acc              1e-04
  #============================================
  # Optimization in      O for       NAO-VCC-2Z
  #============================================
  # (sp) correlation set
   hydro     1     s      2.23708336
   hydro     2     p      2.74937660
  # polarization set
   hydro     3     d      8.47402309
  # (sp) enhanced minimal basis
   hydro     1     s      3.20557153
   hydro     1     s      3.77407176
   hydro     2     p      4.51571086
  
   species        H
  #     set basis set reference for FHI-aims output
      cite_reference NAO-VCC-2013
  #     global species definitions
      nucleus             1
      mass                1.00794
  #
      l_hartree           6
  #
      cut_pot             4.0  2.0  1.0
      basis_dep_cutoff    0e-4
  #
      radial_base         24 7.0
      radial_multiplier   2
      angular_grids       specified
        division   0.1930   50
        division   0.3175  110
        division   0.4293  194
        division   0.5066  302
        division   0.5626  434
        division   0.5922  590
  #      division   0.6227  974
  #      division   0.6868 1202
        outer_grid  770
  #      outer_grid  434
  ################################################################################
  #
  #  Definition of "minimal" basis
  #
  ################################################################################
  #     valence basis states
      valence      1  s   1.
  #     ion occupancy
      ion_occ      1  s   0.5
  ################################################################################
  
  
   basis_acc              1e-04
  #============================================
  # Optimization in      H for       NAO-VCC-2Z
  #============================================
  # (sp) correlation set
   hydro     1     s      1.41783129
   hydro     2     p      2.95678992
  # (sp) enhanced minimal basis
   hydro     1     s      1.47748612
  
  -----------------------------------------------------------------------
  Completed first pass over input file control.in .
  -----------------------------------------------------------------------
  
  
  -----------------------------------------------------------------------
  Parsing geometry.in (first pass over file, find array dimensions only).
  The contents of geometry.in will be repeated verbatim below
  unless switched off by setting 'verbatim_writeout .false.' .
  in the first line of geometry.in .
  -----------------------------------------------------------------------
  
  
  atom  0.0      0.0       0.0 O
  magnetic_response
  
  atom -0.96000  0.0       0.0 H
  magnetic_response
  
  atom  0.32046 -0.9049399 0.0 H
  
  -----------------------------------------------------------------------
  Completed first pass over input file geometry.in .
  -----------------------------------------------------------------------
  

  Basic array size parameters:
  | Number of species                 :        2
  | Number of atoms                   :        3
  | Max. basis fn. angular momentum   :        2
  | Max. atomic/ionic basis occupied n:        2
  | Max. number of basis fn. types    :        2
  | Max. radial fns per species/type  :        6
  | Max. logarithmic grid size        :     1301
  | Max. radial integration grid size :       73
  | Max. angular integration grid size:      770
  | Max. angular grid division number :        8
  | Radial grid for Hartree potential :     1301
  | Number of spin channels           :        1

------------------------------------------------------------
          Reading file control.in.
------------------------------------------------------------
  XC: Using Perdew-Wang parametrisation of Ceperley-Alder LDA.
 
  Reading configuration options for species O                   .
  | Found nuclear charge :   8.0000
  | Found atomic mass :    15.9994000000000      amu
  | Found l_max for Hartree potential  :   6
  | Found cutoff potl. onset [A], width [A], scale factor :    4.00000    2.00000    1.00000
  | Threshold for basis-dependent cutoff potential is   0.000000E+00
  | Found data for basic radial integration grid :    36 points, outermost radius =    7.000 A
  | Found multiplier for basic radial grid :   2
  | Found angular grid specification: user-specified.
  | Specified grid contains     7 separate shells.
  | Check grid settings after all constraints further below.
  | Found free-atom valence shell :  2 s   2.000
  | Found free-atom valence shell :  2 p   4.000
  | No ionic wave fns used. Skipping ion_occ.
  | No ionic wave fns used. Skipping ion_occ.
  | Found basis singularity cutoff : 0.1000E-03
  | Found hydrogenic basis function :  1 s   2.237
  | Found hydrogenic basis function :  2 p   2.749
  | Found hydrogenic basis function :  3 d   8.474
  | Found hydrogenic basis function :  1 s   3.206
  | Found hydrogenic basis function :  1 s   3.774
  | Found hydrogenic basis function :  2 p   4.516
  Species O                   : Missing cutoff potential type.
  Defaulting to exp(1/x)/(1-x)^2 type cutoff potential.
  Species O : No 'logarithmic' tag. Using default grid for free atom:
  | Default logarithmic grid data [bohr] : 0.1000E-03 0.1000E+03 0.1012E+01
  Species O                   : Using default innermost maximum threshold i_radial=  2 for radial functions.
  Species O                   : Default cutoff onset for free atom density etc. : 0.40000000E+01 AA.
  Species O                   : Basic radial grid will be enhanced according to radial_multiplier =   2, to contain    73 grid points.
 
  Reading configuration options for species H                   .
  | Found nuclear charge :   1.0000
  | Found atomic mass :    1.00794000000000      amu
  | Found l_max for Hartree potential  :   6
  | Found cutoff potl. onset [A], width [A], scale factor :    4.00000    2.00000    1.00000
  | Threshold for basis-dependent cutoff potential is   0.000000E+00
  | Found data for basic radial integration grid :    24 points, outermost radius =    7.000 A
  | Found multiplier for basic radial grid :   2
  | Found angular grid specification: user-specified.
  | Specified grid contains     7 separate shells.
  | Check grid settings after all constraints further below.
  | Found free-atom valence shell :  1 s   1.000
  | No ionic wave fns used. Skipping ion_occ.
  | Found basis singularity cutoff : 0.1000E-03
  | Found hydrogenic basis function :  1 s   1.418
  | Found hydrogenic basis function :  2 p   2.957
  | Found hydrogenic basis function :  1 s   1.477
  Species H                   : Missing cutoff potential type.
  Defaulting to exp(1/x)/(1-x)^2 type cutoff potential.
  Species H : No 'logarithmic' tag. Using default grid for free atom:
  | Default logarithmic grid data [bohr] : 0.1000E-03 0.1000E+03 0.1012E+01
  Species H                   : Using default innermost maximum threshold i_radial=  2 for radial functions.
  Species H                   : Default cutoff onset for free atom density etc. : 0.40000000E+01 AA.
  Species H                   : Basic radial grid will be enhanced according to radial_multiplier =   2, to contain    49 grid points.
 
  Finished reading input file 'control.in'. Consistency checks are next.
 
  MPI_IN_PLACE appears to work with this MPI implementation.
  | Keeping use_mpi_in_place .true. (see manual).
  Target number of points in a grid batch is not set. Defaulting to  100
  Method for grid partitioning is not set. Defaulting to parallel hash+maxmin partitioning.
  Batch size limit is not set. Defaulting to    200
  By default, will store active basis functions for each batch.
  If in need of memory, prune_basis_once .false. can be used to disable this option.
  communication_type for Hartree potential was not specified.
  Defaulting to calc_hartree .
  Defaulting to Pulay charge density mixer.
  Pulay mixer: Number of relevant iterations not set.
  Defaulting to    8 iterations.
  Pulay mixer: Number of initial linear mixing iterations not set.
  Defaulting to    0 iterations.
  Work space size for distributed Hartree potential not set.
  Defaulting to   0.200000E+03 MB.
  Mixing parameter for charge density mixing has not been set.
  Using default: charge_mix_param =     0.0500.
  The mixing parameter will be adjusted in iteration number     2 of the first full s.c.f. cycle only.
  Algorithm-dependent basis array size parameters:
  | n_max_pulay                         :        8
 * Notice: The s.c.f. convergence criterion sc_accuracy_rho was not provided.
 * We used to stop in this case, and ask the user to provide reasonable
 * scf convergence criteria. However, this led some users to employ criteria
 * that led to extremely long run times, e.g., for simple relaxation.
 * We now preset a default value for sc_accuracy_rho if it is not set.
 * You may still wish to check if this setting is too tight or too loose for your needs.
 * Based on n_atoms, FHI-aims chose sc_accuracy_rho =  0.100000E-05 .
  Maximum number of self-consistency iterations not provided.
  Presetting  1000 iterations.
  Presetting      1001 iterations before the initial mixing cycle
  is restarted anyway using the sc_init_iter criterion / keyword.
  Presetting a factor      1.000 between actual scf density residual
  and density convergence criterion sc_accuracy_rho below which sc_init_iter
  takes no effect.
 * No s.c.f. convergence criteria (sc_accuracy_*) were provided in control.in.
 * The run will proceed with a reasonable default guess, but please check whether.
 * the s.c.f. cycles seem to take too much or too little time.
  Calculation of forces was not defined in control.in. No forces will be calculated.
  Geometry relaxation not requested: no relaxation will be performed.
  No accuracy limit for integral partition fn. given. Defaulting to  0.1000E-14.
  No threshold value for u(r) in integrations given. Defaulting to  0.1000E-05.
  No occupation type (smearing scheme) given. Defaulting to Gaussian broadening, width =  0.1000E-01 eV.
  The width will be adjusted in iteration number     2 of the first full s.c.f. cycle only.
  S.C.F. convergence parameters will be adjusted in iteration number     2 of the first full s.c.f. cycle only.
  No accuracy for occupation numbers given. Defaulting to  0.1000E-12.
  No threshold value for occupation numbers given. Defaulting to  0.0000E+00.
  No accuracy for fermi level given. Defaulting to  0.1000E-19.
  Maximum # of iterations to find E_F not set. Defaulting to  200.
  Preferred method for the eigenvalue solver ('KS_method') not specified in 'control.in'.
  Calling BLACS routine to test compilation state
  Since ScaLAPACK support is enabled, defaulting to ELPA (via ELSI).
  Will not use alltoall communication since running on < 1024 CPUs.
  Threshold for basis singularities not set.
  Default threshold for basis singularities:  0.1000E-04
  partition_type (choice of integration weights) for integrals was not specified.
  | Using a version of the partition function of Stratmann and coworkers ('stratmann_sparse').
  | At each grid point, the set of atoms used to build the partition table is smoothly restricted to
  | only those atoms whose free-atom density would be non-zero at that grid point.
  Partitioning for Hartree potential was not defined. Using partition_type for integrals.
  | Adjusted default value of keyword multip_moments_threshold to:       0.10000000E-11
  | This value may affect high angular momentum components of the Hartree potential in periodic systems.
  Spin handling was not defined in control.in. Defaulting to unpolarized case.
  No q(lm)/r^(l+1) cutoff set for long-range Hartree potential.
  | Using default value of  0.100000E-09 .
  | Verify using the multipole_threshold keyword.
  Defaulting to new monopole extrapolation.
  Density update method: automatic selection selected.
  WARNING: Switching off the compensation of charge integration errors
  on the 3D integration grid, since you have requested a DFPT calculation.
  This is unfortunately necessary since "compensate_multipole_errors" is
  not yet implemented for DFPT.
  Use the "compensate_multipole_errors" flag to overwrite this behaviour.
------------------------------------------------------------


------------------------------------------------------------
          Reading geometry description geometry.in.
------------------------------------------------------------
 * Warning! You did not set the 'relativistic' flag in input file 'control.in'.
 * Since you are not attempting to treat any elements beyond Ca(Z=20), FHI-aims
 * will default to 'relativistic none'.
 * You must ensure that this is really what you want!!
 * For example, DO NOT compute total-energy differences between results from
 * different settings of the 'relativistic' flag.
  Input structure read successfully.
  The structure contains        3 atoms,  and a total of         10.000 electrons.

  Input geometry:
  | No unit cell requested.
  | Atomic structure:
  |       Atom                x [A]            y [A]            z [A]
  |    1: Species O             0.00000000        0.00000000        0.00000000
  |    2: Species H            -0.96000000        0.00000000        0.00000000
  |    3: Species H             0.32046000       -0.90493990        0.00000000
  | The smallest distance between any two atoms is         0.96000000 AA.
  | The first atom of this pair is atom number                      1 .
  | The second atom of this pair is atom number                     2 .

  Number of empty states per atom not set in control.in .
  | Since you are using a method that relies on the unoccupied spectrum
  | (MP2,GW,RPA et al.), will use the full Hamiltonian size (see below)
  | as the max. possible number of states (occupied plus empty).

  Structure-dependent array size parameters: 
  | Maximum number of distinct radial functions  :       13
  | Maximum number of basis functions            :       31
  | Number of Kohn-Sham states (occupied + empty):       31
------------------------------------------------------------

------------------------------------------------------------
          Preparing all fixed parts of the calculation.
------------------------------------------------------------
  Determining machine precision:
    2.225073858507201E-308
  Setting up grids for atomic and cluster calculations.

  Creating wave function, potential, and density for free atoms.

  Species: O

  List of occupied orbitals and eigenvalues:
    n    l              occ      energy [Ha]    energy [eV]
    1    0           2.0000       -18.758091      -510.4336
    2    0           2.0000        -0.871176       -23.7059
    2    1           4.0000        -0.338214        -9.2033


  Species: H

  List of occupied orbitals and eigenvalues:
    n    l              occ      energy [Ha]    energy [eV]
    1    0           1.0000        -0.233220        -6.3462

  Creating fixed part of basis set: Ionic, confined, hydrogenic.
 
  O                    hydrogenic:
 
  List of hydrogenic basis orbitals: 
    n    l      effective z      eigenvalue [eV]  inner max. [A]     outer max. [A]     outer radius [A]   
    1    0         2.237083       -68.0903           0.237597           0.237597           4.202559
    2    1         2.749377       -25.7116           0.768297           0.768297           5.301386
    3    2         8.474023      -108.5569           0.559099           0.559099           4.254250
    1    0         3.205572      -139.8079           0.164651           0.164651           2.948124
    1    0         3.774072      -193.7943           0.140457           0.140457           2.514928
    2    1         4.515711       -69.3606           0.471150           0.471150           4.634338
 
 
  H                    hydrogenic:
 
  List of hydrogenic basis orbitals: 
    n    l      effective z      eigenvalue [eV]  inner max. [A]     outer max. [A]     outer radius [A]   
    1    0         1.417831       -27.3508           0.373940           0.373940           5.116587
    2    1         2.956790       -29.7373           0.714813           0.714813           5.243229
    1    0         1.477486       -29.7008           0.356095           0.356095           5.054418
 

  Adding cutoff potential to free-atom effective potential.
  Creating atomic-like basis functions for current effective potential.

  Species O                   :

  List of atomic basis orbitals and eigenvalues:
    n    l      energy [Ha]    energy [eV]    outer radius [A]
    1    0       -18.758091      -510.4336       1.433179
    2    0        -0.871176       -23.7059       5.048385
    2    1        -0.338214        -9.2033       5.301386


  Species H                   :

  List of atomic basis orbitals and eigenvalues:
    n    l      energy [Ha]    energy [eV]    outer radius [A]
    1    0        -0.233220        -6.3462       5.373006

  Assembling full basis from fixed parts.
  | Species O :   atomic orbital   1 s accepted.
  | Species O :   atomic orbital   2 s accepted.
  | Species O :    hydro orbital   1 s accepted.
  | Species O :    hydro orbital   1 s accepted.
  | Species O :    hydro orbital   1 s accepted.
  | Species O :   atomic orbital   2 p accepted.
  | Species O :    hydro orbital   2 p accepted.
  | Species O :    hydro orbital   2 p accepted.
  | Species O :    hydro orbital   3 d accepted.
  | Species H :   atomic orbital   1 s accepted.
  | Species H :    hydro orbital   1 s accepted.
  | Species H :    hydro orbital   1 s accepted.
  | Species H :    hydro orbital   2 p accepted.
 
  Basis size parameters after reduction:
  | Total number of radial functions:       13
  | Total number of basis functions :       31
 
  Per-task memory consumption for arrays in subroutine allocate_ext:
  |           3.248944MB.
  Testing on-site integration grid accuracy.
  |  Species  Function  <phi|h_atom|phi> (log., in eV)  <phi|h_atom|phi> (rad., in eV)
           1        1               -510.4336245849               -510.4336201970
           1        2                -23.7059074641                -23.7059074083
           1        3                153.3156103020                153.3173221859
           1        4                152.9603662209                152.9612934947
           1        5                732.3529054780                732.3627141224
           1        6                 -9.2032994192                 -9.2032996196
           1        7                 26.4081507918                 26.4081511113
           1        8                 98.1820000900                 98.1819947557
           1        9                 56.9624918960                 56.9624919110
           2       10                 -6.3465499670                 -6.3466517897
           2       11                 15.2744613014                 15.2738931434
           2       12                 55.6731097048                 55.6702056242
           2       13                 16.7400768820                 16.7400758975

  Preparing densities etc. for the partition functions (integrals / Hartree potential).

  Preparations completed.
  max(cpu_time)          :      0.110 s.
  Wall clock time (cpu1) :      0.110 s.
------------------------------------------------------------

------------------------------------------------------------
          Begin self-consistency loop: Initialization.

          Date     :  20190817, Time     :  154303.127
------------------------------------------------------------

  Initializing index lists of integration centers etc. from given atomic structure:
  | Number of centers in hartree potential         :         3
  | Number of centers in hartree multipole         :         3
  | Number of centers in electron density summation:         3
  | Number of centers in basis integrals           :         3
  | Number of centers in integrals                 :         3
  | Number of centers in hamiltonian               :         3
  * Using 8 tasks for Scalapack Eigenvalue solver.
  Detailed listing of tasks and assigned k-points:
  (for non-periodic systems, the "k-point" denotes an internal label only)
   Task     0 k-point     1 on co1631
   Task     1 k-point     1 on co1631
   Task     2 k-point     1 on co1631
   Task     3 k-point     1 on co1631
   Task     4 k-point     1 on co1631
   Task     5 k-point     1 on co1631
   Task     6 k-point     1 on co1631
   Task     7 k-point     1 on co1631
  Tasks:     8 split into      4 X      2 BLACS grid
  Calculating block size based on n_basis =           31  max_nprow =            4  max_npcol =            2
  ScaLAPACK block size set to:            4
  Allocating        0.001 MB for ovlp
  Allocating        0.001 MB for ham
  Allocating        0.001 MB for eigenvec
  Required Scalapack workspace - INTEGER:            1  REAL:             1
  Partitioning the integration grid into batches with parallel hashing+maxmin method.
  | Number of batches:      945
  | Maximal batch size:     177
  | Minimal batch size:      51
  | Average batch size:      83.321
  | Standard deviation of batch sizes:      14.224

  Integration load balanced across     8 MPI tasks.
  Work distribution over tasks is as follows:
  Task     0 has       9805 integration points.
  Task     1 has       9841 integration points.
  Task     2 has       9799 integration points.
  Task     3 has       9806 integration points.
  Task     4 has       9842 integration points.
  Task     5 has       9886 integration points.
  Task     6 has       9880 integration points.
  Task     7 has       9879 integration points.
  Initializing partition tables, free-atom densities, potentials, etc. across the integration grid (initialize_grid_storage).
  | initialize_grid_storage: Actual outermost partition radius vs. multipole_radius_free
  | (-- VB: in principle, multipole_radius_free should be larger, hence this output)
  | Species        1: Confinement radius =              6.000000000000000 AA, multipole_radius_free =              6.064445521808699 AA.
  | Species        1: outer_partition_radius set to              6.064445521808699 AA .
  | Species        2: Confinement radius =              6.000000000000000 AA, multipole_radius_free =              6.071692442739658 AA.
  | Species        2: outer_partition_radius set to              6.071692442739658 AA .
  | The sparse table of interatomic distances needs          0.09 kbyte instead of         0.07 kbyte of memory.
  | Using the partition_type stratmann_smoother will reduce your memory usage.
  | Net number of integration points:    78738
  | of which are non-zero points    :    69373
  Renormalizing the initial density to the exact electron count on the 3D integration grid.
  | Initial density: Formal number of electrons (from input files) :      10.0000000000
  | Integrated number of electrons on 3D grid     :      10.0000006570
  | Charge integration error                      :       0.0000006570
  | Normalization factor for density and gradient :       0.9999999343
  Obtaining max. number of non-zero basis functions in each batch (get_n_compute_maxes).
  | Maximal number of non-zero basis functions:       31 in task     0
  | Maximal number of non-zero basis functions:       31 in task     1
  | Maximal number of non-zero basis functions:       31 in task     2
  | Maximal number of non-zero basis functions:       31 in task     3
  | Maximal number of non-zero basis functions:       31 in task     4
  | Maximal number of non-zero basis functions:       31 in task     5
  | Maximal number of non-zero basis functions:       31 in task     6
  | Maximal number of non-zero basis functions:       31 in task     7
  Selecting the method for density update.
  Loop over occupied states selected for charge density update.
  Allocating        0.007 MB for KS_eigenvector
  Integrating Hamiltonian matrix: batch-based integration.
  Time summed over all CPUs for integration: real work        0.113 s, elapsed        0.115 s
  Integrating overlap matrix.
  Time summed over all CPUs for integration: real work        0.055 s, elapsed        0.056 s
  Deallocating overlap matrix.

  Updating Kohn-Sham eigenvalues and eigenvectors using ELSI and the ELPA eigensolver.
  Overlap matrix is not singular
  | Lowest and highest eigenvalues :  0.5074E-02,  0.2790E+01
  Finished singularity check of overlap matrix
  | Time :     0.001 s
  Starting ELPA eigensolver
  Finished Cholesky decomposition
  | Time :     0.001 s
  Finished transformation to standard eigenproblem
  | Time :     0.000 s
  Finished solving standard eigenproblem
  | Time :     0.001 s
  Finished back-transformation of eigenvectors
  | Time :     0.000 s

  Obtaining occupation numbers and chemical potential using ELSI.
  | Chemical potential (Fermi level):    -7.37120000 eV
  Writing Kohn-Sham eigenvalues.

  State    Occupation    Eigenvalue [Ha]    Eigenvalue [eV]
      1       2.00000         -18.875296         -513.62294
      2       2.00000          -1.101348          -29.96921
      3       2.00000          -0.653322          -17.77779
      4       2.00000          -0.514258          -13.99367
      5       2.00000          -0.452111          -12.30257
      6       0.00000          -0.062053           -1.68853
      7       0.00000           0.009658            0.26281
      8       0.00000           0.260060            7.07658
      9       0.00000           0.265817            7.23326
     10       0.00000           0.395205           10.75407
     11       0.00000           0.421889           11.48017
     12       0.00000           0.612622           16.67030
     13       0.00000           0.629223           17.12203
     14       0.00000           0.652587           17.75779
     15       0.00000           0.894320           24.33569
     16       0.00000           0.916283           24.93332
     17       0.00000           1.212616           32.99695
     18       0.00000           1.534702           41.76138
     19       0.00000           1.535740           41.78960
     20       0.00000           2.396007           65.19867
     21       0.00000           2.467241           67.13704
     22       0.00000           2.491580           67.79933
     23       0.00000           2.749376           74.81434
     24       0.00000           3.200282           87.08410
     25       0.00000           3.244143           88.27763
     26       0.00000           3.659741           99.58661
     27       0.00000           3.965479          107.90618
     28       0.00000           5.095268          138.64931
     29       0.00000           5.226822          142.22905
     30       0.00000           5.963145          162.26544
     31       0.00000          37.823856         1029.23950

  Highest occupied state (VBM) at    -12.30257125 eV
  | Occupation number:      2.00000000

  Lowest unoccupied state (CBM) at    -1.68853488 eV
  | Occupation number:      0.00000000

  Overall HOMO-LUMO gap:     10.61403637 eV.
  Calculating total energy contributions from superposition of free atom densities.

  Total energy components:
  | Sum of eigenvalues            :         -43.19267033 Ha       -1175.33235980 eV
  | XC energy correction          :          -8.50575413 Ha        -231.45334622 eV
  | XC potential correction       :          11.20353420 Ha         304.86367687 eV
  | Free-atom electrostatic energy:         -35.49577660 Ha        -965.88922509 eV
  | Hartree energy correction     :           0.00000000 Ha           0.00000000 eV
  | Entropy correction            :           0.00000000 Ha           0.00000000 eV
  | ---------------------------
  | Total energy                  :         -75.99066686 Ha       -2067.81125424 eV
  | Total energy, T -> 0          :         -75.99066686 Ha       -2067.81125424 eV  <-- do not rely on this value for anything but (periodic) metals
  | Electronic free energy        :         -75.99066686 Ha       -2067.81125424 eV

  Derived energy quantities:
  | Kinetic energy                :          74.86194696 Ha        2037.09722313 eV
  | Electrostatic energy          :        -142.34685968 Ha       -3873.45513116 eV
  | Energy correction for multipole
  | error in Hartree potential    :           0.00000000 Ha           0.00000000 eV
  | Sum of eigenvalues per atom                           :        -391.77745327 eV
  | Total energy (T->0) per atom                          :        -689.27041808 eV  <-- do not rely on this value for anything but (periodic) metals
  | Electronic free energy per atom                       :        -689.27041808 eV
  Initialize hartree_potential_storage
  Max. number of atoms included in rho_multipole:            3

  End scf initialization - timings             :  max(cpu_time)    wall_clock(cpu1)
  | Time for scf. initialization               :        0.075 s           0.074 s
  | Boundary condition initialization          :        0.000 s           0.000 s
  | Integration                                :        0.022 s           0.022 s
  | Solution of K.-S. eqns.                    :        0.003 s           0.003 s
  | Grid partitioning                          :        0.021 s           0.021 s
  | Preloading free-atom quantities on grid    :        0.013 s           0.013 s
  | Free-atom superposition energy             :        0.006 s           0.006 s
  | Total energy evaluation                    :        0.000 s           0.000 s

  Partial memory accounting:
  | Current value for overall tracked memory usage:
  |   Minimum:        0.014 MB (on task 7)
  |   Maximum:        0.015 MB (on task 0)
  |   Average:        0.014 MB
  | Peak value for overall tracked memory usage:
  |   Minimum:        0.217 MB (on task 4 after allocating grid_partition)
  |   Maximum:        0.421 MB (on task 3 after allocating grid_partition)
  |   Average:        0.341 MB
  | Largest tracked array allocation so far:
  |   Minimum:        0.142 MB (all_coords on task 4)
  |   Maximum:        0.279 MB (all_coords on task 3)
  |   Average:        0.225 MB
  Note:  These values currently only include a subset of arrays which are explicitly tracked.
  The "true" memory usage will be greater.
------------------------------------------------------------

------------------------------------------------------------
          Begin self-consistency iteration #    1

  Date     :  20190817, Time     :  154303.202
------------------------------------------------------------
  Evaluating new KS density.
  Integration grid: deviation in total charge (<rho> - N_e) =  -1.776357E-15
  Pulay mixing of updated and previous charge densities.

  Evaluating partitioned Hartree potential by multipole expansion.
  | Analytical far-field extrapolation by fixed multipoles:
  | Hartree multipole sum: apparent total charge =   0.519198E-06
  Summing up the Hartree potential.
  Time summed over all CPUs for potential: real work        0.120 s, elapsed        0.124 s
  | RMS charge density error from multipole expansion :   0.149760E-03

  Integrating Hamiltonian matrix: batch-based integration.
  Time summed over all CPUs for integration: real work        0.113 s, elapsed        0.117 s

  Updating Kohn-Sham eigenvalues and eigenvectors using ELSI and the ELPA eigensolver.
  Starting ELPA eigensolver
  Finished transformation to standard eigenproblem
  | Time :     0.000 s
  Finished solving standard eigenproblem
  | Time :     0.000 s
  Finished back-transformation of eigenvectors
  | Time :     0.000 s

  Obtaining occupation numbers and chemical potential using ELSI.
  | Chemical potential (Fermi level):    -6.31144025 eV
  Writing Kohn-Sham eigenvalues.

  State    Occupation    Eigenvalue [Ha]    Eigenvalue [eV]
      1       2.00000         -18.834061         -512.50088
      2       2.00000          -1.081072          -29.41747
      3       2.00000          -0.635534          -17.29375
      4       2.00000          -0.493438          -13.42712
      5       2.00000          -0.430689          -11.71965
      6       0.00000          -0.057821           -1.57340
      7       0.00000           0.014563            0.39627
      8       0.00000           0.265813            7.23315
      9       0.00000           0.271538            7.38891
     10       0.00000           0.405459           11.03309
     11       0.00000           0.433407           11.79361
     12       0.00000           0.623072           16.95465
     13       0.00000           0.636882           17.33043
     14       0.00000           0.658187           17.91018
     15       0.00000           0.901166           24.52198
     16       0.00000           0.925473           25.18341
     17       0.00000           1.217466           33.12893
     18       0.00000           1.545355           42.05126
     19       0.00000           1.545643           42.05910
     20       0.00000           2.415108           65.71843
     21       0.00000           2.486726           67.66727
     22       0.00000           2.507040           68.22002
     23       0.00000           2.764174           75.21700
     24       0.00000           3.218300           87.57440
     25       0.00000           3.252881           88.51540
     26       0.00000           3.677557          100.07143
     27       0.00000           3.990541          108.58815
     28       0.00000           5.116136          139.21713
     29       0.00000           5.250148          142.86379
     30       0.00000           5.988441          162.95378
     31       0.00000          37.858114         1030.17171

  Highest occupied state (VBM) at    -11.71965404 eV
  | Occupation number:      2.00000000

  Lowest unoccupied state (CBM) at    -1.57339579 eV
  | Occupation number:      0.00000000

  Overall HOMO-LUMO gap:     10.14625825 eV.

  Total energy components:
  | Sum of eigenvalues            :         -42.94958834 Ha       -1168.71776239 eV
  | XC energy correction          :          -8.53279921 Ha        -232.18928013 eV
  | XC potential correction       :          11.23922198 Ha         305.83479084 eV
  | Free-atom electrostatic energy:         -35.49577660 Ha        -965.88922509 eV
  | Hartree energy correction     :          -0.23221461 Ha          -6.31888093 eV
  | Entropy correction            :           0.00000000 Ha           0.00000000 eV
  | ---------------------------
  | Total energy                  :         -75.97115677 Ha       -2067.28035770 eV
  | Total energy, T -> 0          :         -75.97115677 Ha       -2067.28035770 eV  <-- do not rely on this value for anything but (periodic) metals
  | Electronic free energy        :         -75.97115677 Ha       -2067.28035770 eV

  Derived energy quantities:
  | Kinetic energy                :          75.02991185 Ha        2041.66778045 eV
  | Electrostatic energy          :        -142.46826941 Ha       -3876.75885802 eV
  | Energy correction for multipole
  | error in Hartree potential    :          -0.00021635 Ha          -0.00588709 eV
  | Sum of eigenvalues per atom                           :        -389.57258746 eV
  | Total energy (T->0) per atom                          :        -689.09345257 eV  <-- do not rely on this value for anything but (periodic) metals
  | Electronic free energy per atom                       :        -689.09345257 eV

  Self-consistency convergence accuracy:
  | Change of charge density      :  0.3251E+00
  | Change of sum of eigenvalues  :  0.6615E+01 eV
  | Change of total energy        :  0.5309E+00 eV

  End self-consistency iteration #     1       :  max(cpu_time)    wall_clock(cpu1)
  | Time for this iteration                    :        0.043 s           0.043 s
  | Charge density update                      :        0.008 s           0.008 s
  | Density mixing                             :        0.000 s           0.000 s
  | Hartree multipole update                   :        0.002 s           0.002 s
  | Hartree multipole summation                :        0.016 s           0.017 s
  | Integration                                :        0.015 s           0.014 s
  | Solution of K.-S. eqns.                    :        0.001 s           0.002 s
  | Total energy evaluation                    :        0.000 s           0.000 s

  Partial memory accounting:
  | Current value for overall tracked memory usage:
  |   Minimum:        0.014 MB (on task 7)
  |   Maximum:        0.015 MB (on task 0)
  |   Average:        0.014 MB
  | Peak value for overall tracked memory usage:
  |   Minimum:        0.217 MB (on task 4 after allocating grid_partition)
  |   Maximum:        0.421 MB (on task 3 after allocating grid_partition)
  |   Average:        0.341 MB
  | Largest tracked array allocation so far:
  |   Minimum:        0.142 MB (all_coords on task 4)
  |   Maximum:        0.279 MB (all_coords on task 3)
  |   Average:        0.225 MB
  Note:  These values currently only include a subset of arrays which are explicitly tracked.
  The "true" memory usage will be greater.
------------------------------------------------------------

------------------------------------------------------------
          Begin self-consistency iteration #    2

  Date     :  20190817, Time     :  154303.245
------------------------------------------------------------
  Evaluating new KS density.
  Integration grid: deviation in total charge (<rho> - N_e) =  -8.881784E-15
  Pulay mixing of updated and previous charge densities.

  Evaluating partitioned Hartree potential by multipole expansion.
  | Analytical far-field extrapolation by fixed multipoles:
  | Hartree multipole sum: apparent total charge =  -0.694221E-07
  Summing up the Hartree potential.
  Time summed over all CPUs for potential: real work        0.117 s, elapsed        0.120 s
  | RMS charge density error from multipole expansion :   0.102464E-02

  Integrating Hamiltonian matrix: batch-based integration.
  Time summed over all CPUs for integration: real work        0.111 s, elapsed        0.113 s

  Updating Kohn-Sham eigenvalues and eigenvectors using ELSI and the ELPA eigensolver.
  Starting ELPA eigensolver
  Finished transformation to standard eigenproblem
  | Time :     0.000 s
  Finished solving standard eigenproblem
  | Time :     0.001 s
  Finished back-transformation of eigenvectors
  | Time :     0.000 s

  Obtaining occupation numbers and chemical potential using ELSI.
  | Chemical potential (Fermi level):    -6.42043012 eV
  Highest occupied state (VBM) at     -8.50359742 eV
  | Occupation number:      2.00000000

  Lowest unoccupied state (CBM) at    -0.88819258 eV
  | Occupation number:      0.00000000

  Overall HOMO-LUMO gap:      7.61540484 eV.

  Checking to see if s.c.f. parameters should be adjusted.
  The system likely has a gap. Increased the default Pulay mixing parameter (charge_mix_param). Value:   0.200000 .
  Kept the default occupation width. Value:   0.010000 eV.

  Total energy components:
  | Sum of eigenvalues            :         -41.60247502 Ha       -1132.06094394 eV
  | XC energy correction          :          -8.68943717 Ha        -236.45161599 eV
  | XC potential correction       :          11.44587354 Ha         311.45806590 eV
  | Free-atom electrostatic energy:         -35.49577660 Ha        -965.88922509 eV
  | Hartree energy correction     :          -1.56989458 Ha         -42.71900517 eV
  | Entropy correction            :           0.00000000 Ha           0.00000000 eV
  | ---------------------------
  | Total energy                  :         -75.91170983 Ha       -2065.66272429 eV
  | Total energy, T -> 0          :         -75.91170983 Ha       -2065.66272429 eV  <-- do not rely on this value for anything but (periodic) metals
  | Electronic free energy        :         -75.91170983 Ha       -2065.66272429 eV

  Derived energy quantities:
  | Kinetic energy                :          75.87511928 Ha        2064.66704468 eV
  | Electrostatic energy          :        -143.09739194 Ha       -3893.87815298 eV
  | Energy correction for multipole
  | error in Hartree potential    :          -0.00145145 Ha          -0.03949597 eV
  | Sum of eigenvalues per atom                           :        -377.35364798 eV
  | Total energy (T->0) per atom                          :        -688.55424143 eV  <-- do not rely on this value for anything but (periodic) metals
  | Electronic free energy per atom                       :        -688.55424143 eV

  Self-consistency convergence accuracy:
  | Change of charge density      :  0.2836E+00
  | Change of sum of eigenvalues  :  0.3666E+02 eV
  | Change of total energy        :  0.1618E+01 eV

  End self-consistency iteration #     2       :  max(cpu_time)    wall_clock(cpu1)
  | Time for this iteration                    :        0.041 s           0.041 s
  | Charge density update                      :        0.007 s           0.008 s
  | Density mixing                             :        0.001 s           0.000 s
  | Hartree multipole update                   :        0.002 s           0.002 s
  | Hartree multipole summation                :        0.015 s           0.016 s
  | Integration                                :        0.014 s           0.014 s
  | Solution of K.-S. eqns.                    :        0.001 s           0.001 s
  | Total energy evaluation                    :        0.000 s           0.000 s

  Partial memory accounting:
  | Current value for overall tracked memory usage:
  |   Minimum:        0.015 MB (on task 7)
  |   Maximum:        0.015 MB (on task 0)
  |   Average:        0.015 MB
  | Peak value for overall tracked memory usage:
  |   Minimum:        0.217 MB (on task 4 after allocating grid_partition)
  |   Maximum:        0.421 MB (on task 3 after allocating grid_partition)
  |   Average:        0.341 MB
  | Largest tracked array allocation so far:
  |   Minimum:        0.142 MB (all_coords on task 4)
  |   Maximum:        0.279 MB (all_coords on task 3)
  |   Average:        0.225 MB
  Note:  These values currently only include a subset of arrays which are explicitly tracked.
  The "true" memory usage will be greater.
------------------------------------------------------------

------------------------------------------------------------
          Begin self-consistency iteration #    3

  Date     :  20190817, Time     :  154303.287
------------------------------------------------------------
  Evaluating new KS density.
  Integration grid: deviation in total charge (<rho> - N_e) =   3.552714E-15
  Pulay mixing of updated and previous charge densities.

  Evaluating partitioned Hartree potential by multipole expansion.
  | Analytical far-field extrapolation by fixed multipoles:
  | Hartree multipole sum: apparent total charge =   0.240466E-06
  Summing up the Hartree potential.
  Time summed over all CPUs for potential: real work        0.120 s, elapsed        0.122 s
  | RMS charge density error from multipole expansion :   0.150297E-02

  Integrating Hamiltonian matrix: batch-based integration.
  Time summed over all CPUs for integration: real work        0.110 s, elapsed        0.113 s

  Updating Kohn-Sham eigenvalues and eigenvectors using ELSI and the ELPA eigensolver.
  Starting ELPA eigensolver
  Finished transformation to standard eigenproblem
  | Time :     0.000 s
  Finished solving standard eigenproblem
  | Time :     0.000 s
  Finished back-transformation of eigenvectors
  | Time :     0.000 s

  Obtaining occupation numbers and chemical potential using ELSI.
  | Chemical potential (Fermi level):    -1.99150352 eV
  Highest occupied state (VBM) at     -8.71727920 eV
  | Occupation number:      2.00000000

  Lowest unoccupied state (CBM) at    -0.79049224 eV
  | Occupation number:      0.00000000

  Overall HOMO-LUMO gap:      7.92678695 eV.

  Total energy components:
  | Sum of eigenvalues            :         -41.78071803 Ha       -1136.91118292 eV
  | XC energy correction          :          -8.66630975 Ha        -235.82228682 eV
  | XC potential correction       :          11.41502254 Ha         310.61856747 eV
  | Free-atom electrostatic energy:         -35.49577660 Ha        -965.88922509 eV
  | Hartree energy correction     :          -1.38492687 Ha         -37.68577758 eV
  | Entropy correction            :           0.00000000 Ha           0.00000000 eV
  | ---------------------------
  | Total energy                  :         -75.91270870 Ha       -2065.68990494 eV
  | Total energy, T -> 0          :         -75.91270870 Ha       -2065.68990494 eV  <-- do not rely on this value for anything but (periodic) metals
  | Electronic free energy        :         -75.91270870 Ha       -2065.68990494 eV

  Derived energy quantities:
  | Kinetic energy                :          75.46367298 Ha        2053.47102133 eV
  | Electrostatic energy          :        -142.71007193 Ha       -3883.33863944 eV
  | Energy correction for multipole
  | error in Hartree potential    :          -0.00112288 Ha          -0.03055517 eV
  | Sum of eigenvalues per atom                           :        -378.97039431 eV
  | Total energy (T->0) per atom                          :        -688.56330165 eV  <-- do not rely on this value for anything but (periodic) metals
  | Electronic free energy per atom                       :        -688.56330165 eV

  Self-consistency convergence accuracy:
  | Change of charge density      :  0.1209E+00
  | Change of sum of eigenvalues  : -0.4850E+01 eV
  | Change of total energy        : -0.2718E-01 eV

  End self-consistency iteration #     3       :  max(cpu_time)    wall_clock(cpu1)
  | Time for this iteration                    :        0.041 s           0.041 s
  | Charge density update                      :        0.007 s           0.007 s
  | Density mixing                             :        0.001 s           0.000 s
  | Hartree multipole update                   :        0.002 s           0.002 s
  | Hartree multipole summation                :        0.016 s           0.016 s
  | Integration                                :        0.014 s           0.014 s
  | Solution of K.-S. eqns.                    :        0.001 s           0.001 s
  | Total energy evaluation                    :        0.000 s           0.001 s

  Partial memory accounting:
  | Current value for overall tracked memory usage:
  |   Minimum:        0.015 MB (on task 7)
  |   Maximum:        0.015 MB (on task 0)
  |   Average:        0.015 MB
  | Peak value for overall tracked memory usage:
  |   Minimum:        0.217 MB (on task 4 after allocating grid_partition)
  |   Maximum:        0.421 MB (on task 3 after allocating grid_partition)
  |   Average:        0.341 MB
  | Largest tracked array allocation so far:
  |   Minimum:        0.142 MB (all_coords on task 4)
  |   Maximum:        0.279 MB (all_coords on task 3)
  |   Average:        0.225 MB
  Note:  These values currently only include a subset of arrays which are explicitly tracked.
  The "true" memory usage will be greater.
------------------------------------------------------------

------------------------------------------------------------
          Begin self-consistency iteration #    4

  Date     :  20190817, Time     :  154303.328
------------------------------------------------------------
  Evaluating new KS density.
  Integration grid: deviation in total charge (<rho> - N_e) =   8.881784E-15
  Pulay mixing of updated and previous charge densities.

  Evaluating partitioned Hartree potential by multipole expansion.
  | Analytical far-field extrapolation by fixed multipoles:
  | Hartree multipole sum: apparent total charge =   0.172848E-06
  Summing up the Hartree potential.
  Time summed over all CPUs for potential: real work        0.119 s, elapsed        0.123 s
  | RMS charge density error from multipole expansion :   0.233497E-02

  Integrating Hamiltonian matrix: batch-based integration.
  Time summed over all CPUs for integration: real work        0.110 s, elapsed        0.113 s

  Updating Kohn-Sham eigenvalues and eigenvectors using ELSI and the ELPA eigensolver.
  Starting ELPA eigensolver
  Finished transformation to standard eigenproblem
  | Time :     0.000 s
  Finished solving standard eigenproblem
  | Time :     0.000 s
  Finished back-transformation of eigenvectors
  | Time :     0.000 s

  Obtaining occupation numbers and chemical potential using ELSI.
  | Chemical potential (Fermi level):    -0.45835802 eV
  Highest occupied state (VBM) at     -7.41956494 eV
  | Occupation number:      2.00000000

  Lowest unoccupied state (CBM) at    -0.31435880 eV
  | Occupation number:      0.00000000

  Overall HOMO-LUMO gap:      7.10520614 eV.

  Total energy components:
  | Sum of eigenvalues            :         -41.29822697 Ha       -1123.78193320 eV
  | XC energy correction          :          -8.72703389 Ha        -237.47467460 eV
  | XC potential correction       :          11.49485140 Ha         312.79082128 eV
  | Free-atom electrostatic energy:         -35.49577660 Ha        -965.88922509 eV
  | Hartree energy correction     :          -1.87964620 Ha         -51.14777561 eV
  | Entropy correction            :          -0.00000000 Ha          -0.00000000 eV
  | ---------------------------
  | Total energy                  :         -75.90583225 Ha       -2065.50278722 eV
  | Total energy, T -> 0          :         -75.90583225 Ha       -2065.50278722 eV  <-- do not rely on this value for anything but (periodic) metals
  | Electronic free energy        :         -75.90583225 Ha       -2065.50278722 eV

  Derived energy quantities:
  | Kinetic energy                :          75.51710966 Ha        2054.92510724 eV
  | Electrostatic energy          :        -142.69590803 Ha       -3882.95321986 eV
  | Energy correction for multipole
  | error in Hartree potential    :          -0.00147806 Ha          -0.04022011 eV
  | Sum of eigenvalues per atom                           :        -374.59397773 eV
  | Total energy (T->0) per atom                          :        -688.50092907 eV  <-- do not rely on this value for anything but (periodic) metals
  | Electronic free energy per atom                       :        -688.50092907 eV

  Self-consistency convergence accuracy:
  | Change of charge density      :  0.9228E-01
  | Change of sum of eigenvalues  :  0.1313E+02 eV
  | Change of total energy        :  0.1871E+00 eV

  End self-consistency iteration #     4       :  max(cpu_time)    wall_clock(cpu1)
  | Time for this iteration                    :        0.041 s           0.041 s
  | Charge density update                      :        0.007 s           0.007 s
  | Density mixing                             :        0.001 s           0.000 s
  | Hartree multipole update                   :        0.002 s           0.003 s
  | Hartree multipole summation                :        0.016 s           0.015 s
  | Integration                                :        0.014 s           0.014 s
  | Solution of K.-S. eqns.                    :        0.001 s           0.001 s
  | Total energy evaluation                    :        0.000 s           0.000 s

  Partial memory accounting:
  | Current value for overall tracked memory usage:
  |   Minimum:        0.015 MB (on task 7)
  |   Maximum:        0.015 MB (on task 0)
  |   Average:        0.015 MB
  | Peak value for overall tracked memory usage:
  |   Minimum:        0.217 MB (on task 4 after allocating grid_partition)
  |   Maximum:        0.421 MB (on task 3 after allocating grid_partition)
  |   Average:        0.341 MB
  | Largest tracked array allocation so far:
  |   Minimum:        0.142 MB (all_coords on task 4)
  |   Maximum:        0.279 MB (all_coords on task 3)
  |   Average:        0.225 MB
  Note:  These values currently only include a subset of arrays which are explicitly tracked.
  The "true" memory usage will be greater.
------------------------------------------------------------

------------------------------------------------------------
          Begin self-consistency iteration #    5

  Date     :  20190817, Time     :  154303.369
------------------------------------------------------------
  Evaluating new KS density.
  Integration grid: deviation in total charge (<rho> - N_e) =   7.105427E-15
  Pulay mixing of updated and previous charge densities.

  Evaluating partitioned Hartree potential by multipole expansion.
  | Analytical far-field extrapolation by fixed multipoles:
  | Hartree multipole sum: apparent total charge =   0.109795E-06
  Summing up the Hartree potential.
  Time summed over all CPUs for potential: real work        0.120 s, elapsed        0.123 s
  | RMS charge density error from multipole expansion :   0.239000E-02

  Integrating Hamiltonian matrix: batch-based integration.
  Time summed over all CPUs for integration: real work        0.111 s, elapsed        0.113 s

  Updating Kohn-Sham eigenvalues and eigenvectors using ELSI and the ELPA eigensolver.
  Starting ELPA eigensolver
  Finished transformation to standard eigenproblem
  | Time :     0.000 s
  Finished solving standard eigenproblem
  | Time :     0.000 s
  Finished back-transformation of eigenvectors
  | Time :     0.000 s

  Obtaining occupation numbers and chemical potential using ELSI.
  | Chemical potential (Fermi level):    -6.27035891 eV
  Highest occupied state (VBM) at     -7.23069527 eV
  | Occupation number:      2.00000000

  Lowest unoccupied state (CBM) at    -0.24655016 eV
  | Occupation number:      0.00000000

  Overall HOMO-LUMO gap:      6.98414511 eV.

  Total energy components:
  | Sum of eigenvalues            :         -41.22869178 Ha       -1121.88978449 eV
  | XC energy correction          :          -8.73577945 Ha        -237.71265359 eV
  | XC potential correction       :          11.50635485 Ha         313.10384594 eV
  | Free-atom electrostatic energy:         -35.49577660 Ha        -965.88922509 eV
  | Hartree energy correction     :          -1.95173770 Ha         -53.10948496 eV
  | Entropy correction            :           0.00000000 Ha           0.00000000 eV
  | ---------------------------
  | Total energy                  :         -75.90563068 Ha       -2065.49730219 eV
  | Total energy, T -> 0          :         -75.90563068 Ha       -2065.49730219 eV  <-- do not rely on this value for anything but (periodic) metals
  | Electronic free energy        :         -75.90563068 Ha       -2065.49730219 eV

  Derived energy quantities:
  | Kinetic energy                :          75.53262163 Ha        2055.34720941 eV
  | Electrostatic energy          :        -142.70247286 Ha       -3883.13185801 eV
  | Energy correction for multipole
  | error in Hartree potential    :          -0.00160845 Ha          -0.04376812 eV
  | Sum of eigenvalues per atom                           :        -373.96326150 eV
  | Total energy (T->0) per atom                          :        -688.49910073 eV  <-- do not rely on this value for anything but (periodic) metals
  | Electronic free energy per atom                       :        -688.49910073 eV

  Self-consistency convergence accuracy:
  | Change of charge density      :  0.1484E-01
  | Change of sum of eigenvalues  :  0.1892E+01 eV
  | Change of total energy        :  0.5485E-02 eV

  End self-consistency iteration #     5       :  max(cpu_time)    wall_clock(cpu1)
  | Time for this iteration                    :        0.042 s           0.042 s
  | Charge density update                      :        0.007 s           0.007 s
  | Density mixing                             :        0.001 s           0.001 s
  | Hartree multipole update                   :        0.002 s           0.002 s
  | Hartree multipole summation                :        0.016 s           0.016 s
  | Integration                                :        0.014 s           0.014 s
  | Solution of K.-S. eqns.                    :        0.001 s           0.001 s
  | Total energy evaluation                    :        0.000 s           0.000 s

  Partial memory accounting:
  | Current value for overall tracked memory usage:
  |   Minimum:        0.015 MB (on task 7)
  |   Maximum:        0.015 MB (on task 0)
  |   Average:        0.015 MB
  | Peak value for overall tracked memory usage:
  |   Minimum:        0.217 MB (on task 4 after allocating grid_partition)
  |   Maximum:        0.421 MB (on task 3 after allocating grid_partition)
  |   Average:        0.341 MB
  | Largest tracked array allocation so far:
  |   Minimum:        0.142 MB (all_coords on task 4)
  |   Maximum:        0.279 MB (all_coords on task 3)
  |   Average:        0.225 MB
  Note:  These values currently only include a subset of arrays which are explicitly tracked.
  The "true" memory usage will be greater.
------------------------------------------------------------

------------------------------------------------------------
          Begin self-consistency iteration #    6

  Date     :  20190817, Time     :  154303.411
------------------------------------------------------------
  Evaluating new KS density.
  Integration grid: deviation in total charge (<rho> - N_e) =   1.776357E-15
  Pulay mixing of updated and previous charge densities.

  Evaluating partitioned Hartree potential by multipole expansion.
  | Analytical far-field extrapolation by fixed multipoles:
  | Hartree multipole sum: apparent total charge =   0.998589E-07
  Summing up the Hartree potential.
  Time summed over all CPUs for potential: real work        0.117 s, elapsed        0.121 s
  | RMS charge density error from multipole expansion :   0.243315E-02

  Integrating Hamiltonian matrix: batch-based integration.
  Time summed over all CPUs for integration: real work        0.110 s, elapsed        0.114 s

  Updating Kohn-Sham eigenvalues and eigenvectors using ELSI and the ELPA eigensolver.
  Starting ELPA eigensolver
  Finished transformation to standard eigenproblem
  | Time :     0.000 s
  Finished solving standard eigenproblem
  | Time :     0.001 s
  Finished back-transformation of eigenvectors
  | Time :     0.000 s

  Obtaining occupation numbers and chemical potential using ELSI.
  | Chemical potential (Fermi level):    -6.20399585 eV
  Highest occupied state (VBM) at     -7.16163961 eV
  | Occupation number:      2.00000000

  Lowest unoccupied state (CBM) at    -0.21451285 eV
  | Occupation number:      0.00000000

  Overall HOMO-LUMO gap:      6.94712676 eV.

  Total energy components:
  | Sum of eigenvalues            :         -41.20401373 Ha       -1121.21826046 eV
  | XC energy correction          :          -8.73906870 Ha        -237.80215857 eV
  | XC potential correction       :          11.51067581 Ha         313.22142540 eV
  | Free-atom electrostatic energy:         -35.49577660 Ha        -965.88922509 eV
  | Hartree energy correction     :          -1.97743682 Ha         -53.80879359 eV
  | Entropy correction            :           0.00000000 Ha           0.00000000 eV
  | ---------------------------
  | Total energy                  :         -75.90562003 Ha       -2065.49701231 eV
  | Total energy, T -> 0          :         -75.90562003 Ha       -2065.49701231 eV  <-- do not rely on this value for anything but (periodic) metals
  | Electronic free energy        :         -75.90562003 Ha       -2065.49701231 eV

  Derived energy quantities:
  | Kinetic energy                :          75.53346631 Ha        2055.37019440 eV
  | Electrostatic energy          :        -142.70001764 Ha       -3883.06504814 eV
  | Energy correction for multipole
  | error in Hartree potential    :          -0.00164116 Ha          -0.04465826 eV
  | Sum of eigenvalues per atom                           :        -373.73942015 eV
  | Total energy (T->0) per atom                          :        -688.49900410 eV  <-- do not rely on this value for anything but (periodic) metals
  | Electronic free energy per atom                       :        -688.49900410 eV

  Self-consistency convergence accuracy:
  | Change of charge density      :  0.3774E-02
  | Change of sum of eigenvalues  :  0.6715E+00 eV
  | Change of total energy        :  0.2899E-03 eV

  End self-consistency iteration #     6       :  max(cpu_time)    wall_clock(cpu1)
  | Time for this iteration                    :        0.041 s           0.041 s
  | Charge density update                      :        0.007 s           0.007 s
  | Density mixing                             :        0.001 s           0.001 s
  | Hartree multipole update                   :        0.002 s           0.002 s
  | Hartree multipole summation                :        0.015 s           0.016 s
  | Integration                                :        0.014 s           0.014 s
  | Solution of K.-S. eqns.                    :        0.001 s           0.001 s
  | Total energy evaluation                    :        0.000 s           0.000 s

  Partial memory accounting:
  | Current value for overall tracked memory usage:
  |   Minimum:        0.015 MB (on task 7)
  |   Maximum:        0.015 MB (on task 0)
  |   Average:        0.015 MB
  | Peak value for overall tracked memory usage:
  |   Minimum:        0.217 MB (on task 4 after allocating grid_partition)
  |   Maximum:        0.421 MB (on task 3 after allocating grid_partition)
  |   Average:        0.341 MB
  | Largest tracked array allocation so far:
  |   Minimum:        0.142 MB (all_coords on task 4)
  |   Maximum:        0.279 MB (all_coords on task 3)
  |   Average:        0.225 MB
  Note:  These values currently only include a subset of arrays which are explicitly tracked.
  The "true" memory usage will be greater.
------------------------------------------------------------

------------------------------------------------------------
          Begin self-consistency iteration #    7

  Date     :  20190817, Time     :  154303.452
------------------------------------------------------------
  Evaluating new KS density.
  Integration grid: deviation in total charge (<rho> - N_e) =   5.329071E-15
  Pulay mixing of updated and previous charge densities.

  Evaluating partitioned Hartree potential by multipole expansion.
  | Analytical far-field extrapolation by fixed multipoles:
  | Hartree multipole sum: apparent total charge =   0.104044E-06
  Summing up the Hartree potential.
  Time summed over all CPUs for potential: real work        0.121 s, elapsed        0.129 s
  | RMS charge density error from multipole expansion :   0.243313E-02

  Integrating Hamiltonian matrix: batch-based integration.
  Time summed over all CPUs for integration: real work        0.107 s, elapsed        0.109 s

  Updating Kohn-Sham eigenvalues and eigenvectors using ELSI and the ELPA eigensolver.
  Starting ELPA eigensolver
  Finished transformation to standard eigenproblem
  | Time :     0.000 s
  Finished solving standard eigenproblem
  | Time :     0.001 s
  Finished back-transformation of eigenvectors
  | Time :     0.000 s

  Obtaining occupation numbers and chemical potential using ELSI.
  | Chemical potential (Fermi level):    -6.20245654 eV
  Highest occupied state (VBM) at     -7.16362993 eV
  | Occupation number:      2.00000000

  Lowest unoccupied state (CBM) at    -0.21557017 eV
  | Occupation number:      0.00000000

  Overall HOMO-LUMO gap:      6.94805976 eV.

  Total energy components:
  | Sum of eigenvalues            :         -41.20429774 Ha       -1121.22598897 eV
  | XC energy correction          :          -8.73918496 Ha        -237.80532207 eV
  | XC potential correction       :          11.51083093 Ha         313.22564626 eV
  | Free-atom electrostatic energy:         -35.49577660 Ha        -965.88922509 eV
  | Hartree energy correction     :          -1.97719143 Ha         -53.80211613 eV
  | Entropy correction            :           0.00000000 Ha           0.00000000 eV
  | ---------------------------
  | Total energy                  :         -75.90561980 Ha       -2065.49700599 eV
  | Total energy, T -> 0          :         -75.90561980 Ha       -2065.49700599 eV  <-- do not rely on this value for anything but (periodic) metals
  | Electronic free energy        :         -75.90561980 Ha       -2065.49700599 eV

  Derived energy quantities:
  | Kinetic energy                :          75.53688983 Ha        2055.46335321 eV
  | Electrostatic energy          :        -142.70332467 Ha       -3883.15503713 eV
  | Energy correction for multipole
  | error in Hartree potential    :          -0.00164313 Ha          -0.04471176 eV
  | Sum of eigenvalues per atom                           :        -373.74199632 eV
  | Total energy (T->0) per atom                          :        -688.49900200 eV  <-- do not rely on this value for anything but (periodic) metals
  | Electronic free energy per atom                       :        -688.49900200 eV

  Self-consistency convergence accuracy:
  | Change of charge density      :  0.8555E-03
  | Change of sum of eigenvalues  : -0.7729E-02 eV
  | Change of total energy        :  0.6318E-05 eV

  End self-consistency iteration #     7       :  max(cpu_time)    wall_clock(cpu1)
  | Time for this iteration                    :        0.042 s           0.042 s
  | Charge density update                      :        0.007 s           0.007 s
  | Density mixing                             :        0.001 s           0.001 s
  | Hartree multipole update                   :        0.002 s           0.003 s
  | Hartree multipole summation                :        0.016 s           0.016 s
  | Integration                                :        0.014 s           0.014 s
  | Solution of K.-S. eqns.                    :        0.001 s           0.001 s
  | Total energy evaluation                    :        0.000 s           0.000 s

  Partial memory accounting:
  | Current value for overall tracked memory usage:
  |   Minimum:        0.015 MB (on task 7)
  |   Maximum:        0.015 MB (on task 0)
  |   Average:        0.015 MB
  | Peak value for overall tracked memory usage:
  |   Minimum:        0.217 MB (on task 4 after allocating grid_partition)
  |   Maximum:        0.421 MB (on task 3 after allocating grid_partition)
  |   Average:        0.341 MB
  | Largest tracked array allocation so far:
  |   Minimum:        0.142 MB (all_coords on task 4)
  |   Maximum:        0.279 MB (all_coords on task 3)
  |   Average:        0.225 MB
  Note:  These values currently only include a subset of arrays which are explicitly tracked.
  The "true" memory usage will be greater.
------------------------------------------------------------

------------------------------------------------------------
          Begin self-consistency iteration #    8

  Date     :  20190817, Time     :  154303.494
------------------------------------------------------------
  Evaluating new KS density.
  Integration grid: deviation in total charge (<rho> - N_e) =   1.421085E-14
  Pulay mixing of updated and previous charge densities.

  Evaluating partitioned Hartree potential by multipole expansion.
  | Analytical far-field extrapolation by fixed multipoles:
  | Hartree multipole sum: apparent total charge =   0.104387E-06
  Summing up the Hartree potential.
  Time summed over all CPUs for potential: real work        0.119 s, elapsed        0.123 s
  | RMS charge density error from multipole expansion :   0.243306E-02

  Integrating Hamiltonian matrix: batch-based integration.
  Time summed over all CPUs for integration: real work        0.112 s, elapsed        0.113 s

  Updating Kohn-Sham eigenvalues and eigenvectors using ELSI and the ELPA eigensolver.
  Starting ELPA eigensolver
  Finished transformation to standard eigenproblem
  | Time :     0.000 s
  Finished solving standard eigenproblem
  | Time :     0.000 s
  Finished back-transformation of eigenvectors
  | Time :     0.000 s

  Obtaining occupation numbers and chemical potential using ELSI.
  | Chemical potential (Fermi level):    -6.20367391 eV
  Highest occupied state (VBM) at     -7.16437778 eV
  | Occupation number:      2.00000000

  Lowest unoccupied state (CBM) at    -0.21579189 eV
  | Occupation number:      0.00000000

  Overall HOMO-LUMO gap:      6.94858589 eV.

  Total energy components:
  | Sum of eigenvalues            :         -41.20459700 Ha       -1121.23413214 eV
  | XC energy correction          :          -8.73915212 Ha        -237.80442862 eV
  | XC potential correction       :          11.51078768 Ha         313.22446932 eV
  | Free-atom electrostatic energy:         -35.49577660 Ha        -965.88922509 eV
  | Hartree energy correction     :          -1.97688174 Ha         -53.79368918 eV
  | Entropy correction            :           0.00000000 Ha           0.00000000 eV
  | ---------------------------
  | Total energy                  :         -75.90561979 Ha       -2065.49700570 eV
  | Total energy, T -> 0          :         -75.90561979 Ha       -2065.49700570 eV  <-- do not rely on this value for anything but (periodic) metals
  | Electronic free energy        :         -75.90561979 Ha       -2065.49700570 eV

  Derived energy quantities:
  | Kinetic energy                :          75.53681104 Ha        2055.46120925 eV
  | Electrostatic energy          :        -142.70327871 Ha       -3883.15378633 eV
  | Energy correction for multipole
  | error in Hartree potential    :          -0.00164281 Ha          -0.04470327 eV
  | Sum of eigenvalues per atom                           :        -373.74471071 eV
  | Total energy (T->0) per atom                          :        -688.49900190 eV  <-- do not rely on this value for anything but (periodic) metals
  | Electronic free energy per atom                       :        -688.49900190 eV

  Self-consistency convergence accuracy:
  | Change of charge density      :  0.1304E-03
  | Change of sum of eigenvalues  : -0.8143E-02 eV
  | Change of total energy        :  0.2898E-06 eV

  End self-consistency iteration #     8       :  max(cpu_time)    wall_clock(cpu1)
  | Time for this iteration                    :        0.042 s           0.042 s
  | Charge density update                      :        0.008 s           0.007 s
  | Density mixing                             :        0.001 s           0.001 s
  | Hartree multipole update                   :        0.002 s           0.002 s
  | Hartree multipole summation                :        0.016 s           0.016 s
  | Integration                                :        0.014 s           0.014 s
  | Solution of K.-S. eqns.                    :        0.001 s           0.001 s
  | Total energy evaluation                    :        0.000 s           0.000 s

  Partial memory accounting:
  | Current value for overall tracked memory usage:
  |   Minimum:        0.015 MB (on task 7)
  |   Maximum:        0.015 MB (on task 0)
  |   Average:        0.015 MB
  | Peak value for overall tracked memory usage:
  |   Minimum:        0.217 MB (on task 4 after allocating grid_partition)
  |   Maximum:        0.421 MB (on task 3 after allocating grid_partition)
  |   Average:        0.341 MB
  | Largest tracked array allocation so far:
  |   Minimum:        0.142 MB (all_coords on task 4)
  |   Maximum:        0.279 MB (all_coords on task 3)
  |   Average:        0.225 MB
  Note:  These values currently only include a subset of arrays which are explicitly tracked.
  The "true" memory usage will be greater.
------------------------------------------------------------

------------------------------------------------------------
          Begin self-consistency iteration #    9

  Date     :  20190817, Time     :  154303.537
------------------------------------------------------------
  Evaluating new KS density.
  Integration grid: deviation in total charge (<rho> - N_e) =   3.552714E-15
  Pulay mixing of updated and previous charge densities.

  Evaluating partitioned Hartree potential by multipole expansion.
  | Analytical far-field extrapolation by fixed multipoles:
  | Hartree multipole sum: apparent total charge =   0.104731E-06
  Summing up the Hartree potential.
  Time summed over all CPUs for potential: real work        0.120 s, elapsed        0.122 s
  | RMS charge density error from multipole expansion :   0.243291E-02

  Integrating Hamiltonian matrix: batch-based integration.
  Time summed over all CPUs for integration: real work        0.111 s, elapsed        0.114 s

  Updating Kohn-Sham eigenvalues and eigenvectors using ELSI and the ELPA eigensolver.
  Starting ELPA eigensolver
  Finished transformation to standard eigenproblem
  | Time :     0.000 s
  Finished solving standard eigenproblem
  | Time :     0.000 s
  Finished back-transformation of eigenvectors
  | Time :     0.000 s

  Obtaining occupation numbers and chemical potential using ELSI.
  | Chemical potential (Fermi level):    -6.20468763 eV
  Highest occupied state (VBM) at     -7.16516005 eV
  | Occupation number:      2.00000000

  Lowest unoccupied state (CBM) at    -0.21610006 eV
  | Occupation number:      0.00000000

  Overall HOMO-LUMO gap:      6.94905998 eV.

  Total energy components:
  | Sum of eigenvalues            :         -41.20489864 Ha       -1121.24234020 eV
  | XC energy correction          :          -8.73911947 Ha        -237.80353999 eV
  | XC potential correction       :          11.51074476 Ha         313.22330151 eV
  | Free-atom electrostatic energy:         -35.49577660 Ha        -965.88922509 eV
  | Hartree energy correction     :          -1.97656983 Ha         -53.78520170 eV
  | Entropy correction            :           0.00000000 Ha           0.00000000 eV
  | ---------------------------
  | Total energy                  :         -75.90561978 Ha       -2065.49700548 eV
  | Total energy, T -> 0          :         -75.90561978 Ha       -2065.49700548 eV  <-- do not rely on this value for anything but (periodic) metals
  | Electronic free energy        :         -75.90561978 Ha       -2065.49700548 eV

  Derived energy quantities:
  | Kinetic energy                :          75.53677182 Ha        2055.46014179 eV
  | Electrostatic energy          :        -142.70327213 Ha       -3883.15360727 eV
  | Energy correction for multipole
  | error in Hartree potential    :          -0.00164269 Ha          -0.04469979 eV
  | Sum of eigenvalues per atom                           :        -373.74744673 eV
  | Total energy (T->0) per atom                          :        -688.49900183 eV  <-- do not rely on this value for anything but (periodic) metals
  | Electronic free energy per atom                       :        -688.49900183 eV

[...]
  ------------------------------------ 
  End decomposition of the XC Energy 
  ------------------------------------ 

------------------------------------------------------------
  
  #############################################
  #                                           #
  # WELCOME TO MAGNETIC RESPONSE CALCULATIONS #
  #                                           #
  #############################################
  
  Current functionality includes:
    * Indirect spin-spin couplings (J-couplings)
    * NMR shieldings
    * Magnetizabilities
    * Electric Field Gradient (quadrupolar coupling)
  --------------------------------------------------
  
  Computing responses for:
        atom 1 (O) at (  0.000,   0.000,   0.000)
        atom 2 (H) at ( -0.960,   0.000,   0.000)
  -------------------------------------------------------
  
  Both diagonal and off-diagonal tensor elements are calculated.
  The following terms are included:
   * Fermi contact
   * Paramagnetic spin-orbit
   * Spin-dipole
   * Diamagnetic spin-orbit
   * Paramagnetic shielding
   * Diamagnetic shielding
   * Paramagnetic magnetizability
   * Diamagnetic magnetizability
  ---------------------------------------------------
  
  Next term to be processed:
   * Fermi contact
  ===============================
  
  Calculating first-order response (DFPT)
  ---------------------------------------
  atom 1 (O)
      iter   change in first-order density matrix
        1     7.028315E-03
        2     2.643834E-04
        3     2.087096E-05
        4     1.789406E-06
        5     3.028060E-07
        6     1.281788E-08
        7     5.004628E-10 < 1.00E-09 (dfpt_accuracy_n1)
  atom 2 (H)
      Psi1 not needed
  
  Done with first-order response
  
  Calculating second-order response
  ---------------------------------
  
  Done with second order response
  
  Next term to be processed:
   * Paramagnetic spin-orbit
  ===============================
  
  Calculating first-order response (DFPT)
  ---------------------------------------
  atom 1 (O)
  atom 2 (H)
      Psi1 not needed
  
  Done with first-order response
  
  Calculating second-order response
  ---------------------------------
  
  Done with second order response
  
  Next term to be processed:
   * Spin-dipole
  ===============================
  
  Spin-dipole calculation is split into two parts:
  First, the xx, yy, zz terms are computed
  
  Calculating first-order response (DFPT)
  ---------------------------------------
  atom 1 (O)
      iter   change in first-order density matrix
        1     6.466599E-04
        2     7.634900E-05
        3     8.568039E-06
        4     5.613767E-07
        5     4.861741E-08
        6     5.048014E-09
        7     2.052860E-10 < 1.00E-09 (dfpt_accuracy_n1)
  atom 2 (H)
      Psi1 not needed
  
  Done with first-order response
  
  Calculating second-order response
  ---------------------------------
  
  Done with second order response
  
  Next, the xy, xz, yz terms are computed
  
  Calculating first-order response (DFPT)
  ---------------------------------------
  atom 1 (O)
      iter   change in first-order density matrix
        1     6.434793E-04
        2     6.377114E-05
        3     3.480207E-06
        4     2.330162E-07
        5     1.782847E-08
        6     1.766093E-09
        7     1.087956E-10 < 1.00E-09 (dfpt_accuracy_n1)
  atom 2 (H)
      Psi1 not needed
  
  Done with first-order response
  
  Calculating second-order response
  ---------------------------------
  
  Done with second order response
  
  Next term to be processed:
   * Diamagnetic spin-orbit
  ===============================
  
  Calculating second-order response
  ---------------------------------
    atom 1 (O) - atom 2 (H)
  
  Done with second order response
  
  Next term to be processed:
   * Paramagnetic shielding
  ===============================
  
  Calculating first-order response (DFPT)
  ---------------------------------------
  
  Done with first-order response
  
  Calculating second-order response
  ---------------------------------
    atom 1 (O)
    atom 2 (H)
  
  Done with second order response
  
  Next term to be processed:
   * Diamagnetic shielding
  ===============================
  
  Calculating second-order response
  ---------------------------------
    atom 1 (O)
    atom 2 (H)
  
  Done with second order response
  
  Next term to be processed:
   * Paramagnetic magnetizability
  ===============================
  
  Calculating first-order response (DFPT)
  ---------------------------------------
  
  Done with first-order response
  
  Calculating second-order response
  ---------------------------------
  
  Done with second order response
  
  Next term to be processed:
   * Diamagnetic magnetizability
  ===============================
  
  Calculating second-order response
  ---------------------------------
  
  Done with second order response
  
  Results for the magnetic response
  =================================
  
  NMR shielding tensors (ppm)
  ---------------------------
  
    Definitions:
      Anisotropy: sigma_z - (sigma_y + sigma_x)/2
      Asymmetry:  (sigma_y - sigma_x)/(sigma_z - sigma_iso)
      Span:       sigma_z - sigma_x
      Skew:       3(sigma_y - sigma_iso)/(sigma_z - sigma_x)
      sigma_x < sigma_y < sigma_z are the eigenvalues of the shielding tensor
    
   atom 1 (O):
    Diamagnetic:   3.794497E+02 (isotropic)
         3.905472E+02  -7.774821E+00   3.054859E-15
        -7.774872E+00   3.850406E+02   5.525311E-15
         2.423400E-13  -1.457289E-13   3.627614E+02
    Paramagnetic: -3.522017E+01 (isotropic)
        -2.925882E+01   1.210380E-01   5.745050E-13
         1.212014E-01  -2.917023E+01   7.384622E-14
        -9.883800E-13   1.103194E-12  -4.723148E+01
    Total:         3.442296E+02 (isotropic)
         3.612883E+02  -7.653783E+00   5.775598E-13
        -7.653671E+00   3.558704E+02   7.937153E-14
        -7.460400E-13   9.574647E-13   3.155300E+02
    Anisotropy:    3.370328E+01
    Asymmetry:     1.554612E+00
    Span:          5.116846E+01
    Skew:          3.653081E-01

   atom 2 (H):
    Diamagnetic:   3.092761E+01 (isotropic)
         4.297027E+01  -2.389022E+00  -6.559345E-15
        -1.421453E+00   2.611708E+01  -2.990044E-15
         7.286370E-14  -1.875430E-14   2.369550E+01
    Paramagnetic:  8.041031E-02 (isotropic)
         6.840222E-01  -5.874048E-01  -1.353224E-14
         9.194863E-01  -7.796880E-01   5.727024E-14
        -7.829938E-14   3.899089E-14   3.368967E-01
    Total:         3.100803E+01 (isotropic)
         4.365429E+01  -2.976427E+00  -2.009158E-14
        -5.019665E-01   2.533739E+01   5.428019E-14
        -5.435686E-15   2.023660E-14   2.403240E+01
    Anisotropy:    1.967668E+01
    Asymmetry:     6.353721E-02
    Span:          2.009341E+01
    Skew:         -9.170407E-01

  J-couplings (Hz)
  ----------------
  
   Fermi contact:
    atom 1 (O) - atom 2 (H):
        -7.641184E+01   0.000000E+00   0.000000E+00
         0.000000E+00  -7.641184E+01   0.000000E+00
         0.000000E+00   0.000000E+00  -7.641184E+01
    Isotropic:
              2
    1  -7.641184E+01      1

   Paramagnetic spin-orbit:
    atom 1 (O) - atom 2 (H):
         9.398893E+00   6.513446E+00   4.442337E-14
         3.784153E+00  -3.013802E+01  -1.493165E-13
        -8.918998E-14  -8.603175E-14  -1.874190E+01
    Isotropic:
              2
    1  -1.316034E+01      1

   Spin-dipole:
    Off-diagonal elements not evaluated!
    atom 1 (O) - atom 2 (H):
         5.818504E-01   0.000000E+00   0.000000E+00
         0.000000E+00  -1.587248E+00   0.000000E+00
         0.000000E+00   0.000000E+00  -1.893026E+00
    Isotropic:
              2
    1  -9.661413E-01      1

   Diamagnetic spin-orbit:
    atom 1 (O) - atom 2 (H):
        -1.536670E+01  -3.947235E-01   4.153269E-14
         6.084745E-02   7.547047E+00  -3.952653E-16
        -6.403829E-16  -3.952653E-16   7.607189E+00
    Isotropic:
              2
    1  -7.082112E-02      1

   Total:
              2
    1  -9.060914E+01      1

  Dipolar coupling tensors (kHz)
  ------------------------------
  
    atom 1 (O) - atom 2 (H):
         3.682535E+01   0.000000E+00   0.000000E+00
         0.000000E+00  -1.841267E+01   0.000000E+00
         0.000000E+00   0.000000E+00  -1.841267E+01
              2
    1   3.682535E+01      1

  Isotopes used for dipolar and J-couplings:
  
    1:  O-17  at (  0.000,   0.000,   0.000)
    2:  H-1   at ( -0.960,   0.000,   0.000)

  Magnetizability (10^-30 J/T^2)
  ------------------------------
  
    Diamagnetic:  -1.872348E+02 (isotropic)
        -2.016789E+02   8.569142E+00  -1.710406E-13
         8.569230E+00  -1.956098E+02   1.262496E-13
        -6.155660E-13   3.859965E-13  -1.644158E+02
    Paramagnetic: -5.001620E+01 (isotropic)
        -3.355200E+01  -1.196186E+01   4.356827E-14
        -1.196202E+01  -4.202397E+01   6.679446E-15
         9.197001E-13  -4.887611E-13  -7.447264E+01
    Total:        -2.372510E+02 (isotropic)
        -2.352309E+02  -3.392720E+00  -1.274723E-13
        -3.392788E+00  -2.376338E+02   1.329290E-13
         3.041341E-13  -1.027646E-13  -2.388884E+02

  Memory report (for developers)
  ==============================
  
    Maximum memory usage of magnetic response calculations
                       min (task)          max (task)
                       1.68 MB (8)       1.69 MB (6)
    ------------------------------------------------------------------
    Maximum memory usage for the DFPT part separately
                       min (task)          max (task)
                       1.29 MB (8)       1.30 MB (5)
    ------------------------------------------------------------------
    n_hamiltonian_matrix_size - characteristic size of packed matrices
                       min (task)          max (task)
                           496 (1)           496 (1)
    For real(8):       0.00 MB (1)       0.00 MB (1)
    ------------------------------------------------------------------
    size(eigenvec) - characteristic size of 2D block cyclic matrices
                        min (task)          max (task)
                           105 (8)           128 (1)
    For real(8):       0.00 MB (8)       0.00 MB (1)
    ------------------------------------------------------------------
    n_full_points - characteristic size of grid point based arrays
                        min (task)          max (task)
                          9799 (3)          9886 (6)
    For real(8):       0.08 MB (3)       0.08 MB (6)
    ------------------------------------------------------------------
    Global dimensions (size in MB shown for real(8))
      (n_basis x n_basis) = (31 x 31) = 961 =       0.01 MB
    ------------------------------------------------------------------
  
  Timings (for developers)
  ========================
                                    wall time     |              cpu time
                                 -----------------------------------------------------
                                   max (task)     |    min (task)       max (task)
    Fermi contact                1.6100E-04 s (7) |  0.0000E+00 s (1) 9.9999E-04 s (7)
    Paramagnetic spin-orbit      3.2288E-02 s (3) |  3.0000E-02 s (1) 3.2000E-02 s (3)
    Spin-dipole                  3.8247E-02 s (2) |  3.5000E-02 s (4) 3.8000E-02 s (2)
    Diamagnetic spin-orbit       1.6044E-02 s (2) |  1.5000E-02 s (6) 1.6000E-02 s (1)
    Paramagnetic shielding       6.5196E-02 s (1) |  5.9000E-02 s (4) 6.6000E-02 s (1)
    Diamagnetic shielding        6.7375E-02 s (1) |  6.2000E-02 s (4) 6.7000E-02 s (1)
    Paramagnetic magnetizability 3.5703E-02 s (1) |  3.2000E-02 s (2) 3.6000E-02 s (1)
    Diamagnetic magnetizability  5.8433E-02 s (1) |  5.5000E-02 s (4) 5.9000E-02 s (1)
    First-order xc               7.7000E-01 s (5) |  7.4656E-01 s (6) 7.6785E-01 s (5)
    First-order density          1.5400E-01 s (2) |  1.4847E-01 s (1) 1.5498E-01 s (2)
    Mat-mat multiplications      8.7000E-03 s (2) |
    packed <-> block cyclic      0.0000E+00 s (1) |
    ----------------------------------------------------------------------------------
    Total                        1.3401E+00 s (1) |
    Total minus individual terms 9.3953E-02 s
  
  ############################################
  #                                          #
  # DONE WITH MAGNETIC RESPONSE CALCULATIONS #
  #                                          #
  ############################################
  
  |------------------------------------------------------
  | Final ELSI Output
  |------------------------------------------------------
  |
  | Physical Properties
  |   Number of electrons       :        0.10000000E+02
  |   Number of spins           :                     1
  |   Number of k-points        :                     1
  |   Number of states          :                    31
  |
  | Matrix Properties
  |   Matrix format             :           BLACS_DENSE
  |   Number of basis functions :                    31
  |   Matrix sparsity           :        0.34963580E+00
  |
  | Computational Details
  |   Parallel mode             :            MULTI_PROC
  |   Number of MPI tasks       :                     8
  |   Solver requested          :                  ELPA
  |   Number of ELSI calls      :                    13
  |
  |------------------------------------------------------
  | ELSI Project (c)  elsi-interchange.org
  |------------------------------------------------------

------------------------------------------------------------------------------
  Final output of selected total energy values:

  The following output summarizes some interesting total energy values
  at the end of a run (AFTER all relaxation, molecular dynamics, etc.).

  | Total energy of the DFT / Hartree-Fock s.c.f. calculation      :          -2065.497005506 eV
  | Final zero-broadening corrected energy (caution - metals only) :          -2065.497005506 eV
  | For reference only, the value of 1 Hartree used in FHI-aims is :             27.211384500 eV

  Before relying on these values, please be sure to understand exactly which
  total energy value is referred to by a given number. Different objects may
  all carry the same name 'total energy'. Definitions:

  Total energy of the DFT / Hartree-Fock s.c.f. calculation:
  | Note that this energy does not include ANY quantities calculated after the
  | s.c.f. cycle, in particular not ANY RPA, MP2, etc. many-body perturbation terms.

  Final zero-broadening corrected energy:
  | For metallic systems only, a broadening of the occupation numbers at the Fermi
  | level can be extrapolated back to zero broadening by an electron-gas inspired
  | formula. For all systems that are not real metals, this value can be
  | meaningless and should be avoided.

------------------------------------------------------------------------------
  Methods described in the following list of references were used in this FHI-aims run.
  If you publish the results, please make sure to cite these reference if they apply.
  FHI-aims is an academic code, and for our developers (often, Ph.D. students
  and postdocs), scientific credit in the community is essential.
  Thank you for helping us!

  For any use of FHI-aims, please cite:

    Volker Blum, Ralf Gehrke, Felix Hanke, Paula Havu, Ville Havu,
    Xinguo Ren, Karsten Reuter, and Matthias Scheffler
    'Ab initio molecular simulations with numeric atom-centered orbitals'
    Computer Physics Communications 180, 2175-2196 (2009)
    http://dx.doi.org/10.1016/j.cpc.2009.06.022


  For the NAO-VCC-nZ basis sets used in this calculation, please cite:

    Igor Ying Zhang, Xinguo Ren, Patrick Rinke, Volker Blum, and Matthias Scheffler
    'Numeric atom-centered-orbital basis sets with valence-correlation consistency from H to Ar'
    New Journal of Physics 15, 123033 (2013).
    http://dx.doi.org/10.1088/1367-2630/15/12/123033


  The ELSI infrastructure was used in your run to solve the Kohn-Sham electronic structure.
  Please check out http://elsi-interchange.org to learn more.
  If scalability is important for your project, please acknowledge ELSI by citing:

    V. W-z. Yu, F. Corsetti, A. Garcia, W. P. Huhn, M. Jacquelin, W. Jia,
    B. Lange, L. Lin, J. Lu, W. Mi, A. Seifitokaldani, A. Vazquez-Mayagoitia,
    C. Yang, H. Yang, and V. Blum
    'ELSI: A unified software interface for Kohn-Sham electronic structure solvers'
    Computer Physics Communications 222, 267-285 (2018).
    http://dx.doi.org/10.1016/j.cpc.2017.09.007


  For the real-space grid partitioning and parallelization used in this calculation, please cite:

    Ville Havu, Volker Blum, Paula Havu, and Matthias Scheffler,
    'Efficient O(N) integration for all-electron electronic structure calculation'
    'using numerically tabulated basis functions'
    Journal of Computational Physics 228, 8367-8379 (2009).
    http://dx.doi.org/10.1016/j.jcp.2009.08.008

  Of course, there are many other important community references, e.g., those cited in the
  above references. Our list is limited to references that describe implementations in the
  FHI-aims code. The reason is purely practical (length of this list) - please credit others as well.

------------------------------------------------------------
          Leaving FHI-aims.
          Date     :  20190817, Time     :  154305.056

          Computational steps:
          | Number of self-consistency cycles          :           12
          | Number of SCF (re)initializations          :            1

          Detailed time accounting                     :  max(cpu_time)    wall_clock(cpu1)
          | Total time                                 :        2.020 s           2.088 s
          | Preparation time                           :        0.110 s           0.110 s
          | Boundary condition initalization           :        0.000 s           0.000 s
          | Grid partitioning                          :        0.021 s           0.021 s
          | Preloading free-atom quantities on grid    :        0.013 s           0.013 s
          | Free-atom superposition energy             :        0.006 s           0.006 s
          | Total time for integrations                :        0.193 s           0.190 s
          | Transforming ovlp_3fn to ovlp_3KS          :        0.000 s           0.000 s
          | Total time for solution of K.-S. equations :        0.016 s           0.016 s
          | Total time for density update              :        0.086 s           0.086 s
          | Total time for mixing                      :        0.011 s           0.009 s
          | Total time for Hartree multipole update    :        0.025 s           0.026 s
          | Total time for Hartree multipole sum       :        0.187 s           0.190 s
          | Total time for total energy evaluation     :        0.002 s           0.002 s
          | Total time for magnetic response           :        1.340 s           1.276 s

          Partial memory accounting:
          | Residual value for overall tracked memory usage across tasks:     0.000000 MB (should be 0.000000 MB)
          | Peak values for overall tracked memory usage:
          |   Minimum:        1.614 MB (on task 7 after allocating DFPT::allocate_DFPT::H1_Psi0)
          |   Maximum:        1.625 MB (on task 5 after allocating DFPT::allocate_DFPT::H1_Psi0)
          |   Average:        1.620 MB
          | Largest tracked array allocation:
          |   Minimum:        0.449 MB (DFPT::allocate_DFPT::rho1 on task 2)
          |   Maximum:        0.453 MB (DFPT::allocate_DFPT::rho1 on task 5)
          |   Average:        0.451 MB
          Note:  These values currently only include a subset of arrays which are explicitly tracked.
          The "true" memory usage will be greater.

          Have a nice day.
------------------------------------------------------------
