  MPI-parallelism will be employed.
------------------------------------------------------------
          Invoking FHI-aims ...

          When using FHI-aims, please cite the following reference:

          Volker Blum, Ralf Gehrke, Felix Hanke, Paula Havu,
          Ville Havu, Xinguo Ren, Karsten Reuter, and Matthias Scheffler,
          'Ab Initio Molecular Simulations with Numeric Atom-Centered Orbitals',
          Computer Physics Communications 180, 2175-2196 (2009)

          For any questions about FHI-aims, please visit the aimsclub website
          with its forums and wiki. Contributions to both the forums and the
          wiki are warmly encouraged - they are for you, and everyone is welcome there.

------------------------------------------------------------



  Date     :  20190817, Time     :  153201.381
  Time zero on CPU 1             :   0.520520000000000E-01  s.
  Internal wall clock time zero  :           335287921.381  s.

  FHI-aims created a unique identifier for this run for later identification
  aims_uuid : B10EC967-FB2D-4DDA-A8C2-EEF402B03238

  Build configuration of the current instance of FHI-aims
  -------------------------------------------------------
  FHI-aims version      : 190813
  Commit number         : 3da7baeb3
  CMake host system     : Linux-4.4.180-94.97-default
  CMake version         : 3.5.2
  Fortran compiler      : /mpcdf/soft/SLE_12_SP3/packages/x86_64/intel_parallel_studio/2018.4/compilers_and_libraries_2018.5.274/linux/mpi/bin64/mpiifort (Intel) version 18.0.5.20180823
  Fortran compiler flags: -O3 -ip -fp-model precise
  C compiler            : /mpcdf/soft/SLE_12_SP3/packages/skylake/intel/18.0.5/bin/icc (Intel) version 18.0.5.20180823
  C compiler flags      : -O3 -ip -fp-model precise
  Architecture          :
  Using MPI
  Using Scalapack
  Using C files
  Using SPGlib
  Using i-PI
  Linking against: /mpcdf/soft/SLE_12_SP3/packages/x86_64/anaconda/3.5.1.0/lib/libmkl_intel_lp64.so
                   /mpcdf/soft/SLE_12_SP3/packages/x86_64/anaconda/3.5.1.0/lib/libmkl_sequential.so
                   /mpcdf/soft/SLE_12_SP3/packages/x86_64/anaconda/3.5.1.0/lib/libmkl_core.so
                   /mpcdf/soft/SLE_12_SP3/packages/x86_64/anaconda/3.5.1.0/lib/libmkl_blacs_intelmpi_lp64.so
                   /mpcdf/soft/SLE_12_SP3/packages/x86_64/anaconda/3.5.1.0/lib/libmkl_scalapack_lp64.so

  Using        8 parallel tasks.
  Task        0 on host co1631 reporting.
  Task        1 on host co1631 reporting.
  Task        2 on host co1631 reporting.
  Task        3 on host co1631 reporting.
  Task        4 on host co1631 reporting.
  Task        5 on host co1631 reporting.
  Task        6 on host co1631 reporting.
  Task        7 on host co1631 reporting.

  Performing system and environment tests:
  | Environment variable OMP_NUM_THREADS correctly set to 1.
  | Maximum stacksize for task 0: unlimited
  | Maximum stacksize for task 1: unlimited
  | Maximum stacksize for task 2: unlimited
  | Maximum stacksize for task 3: unlimited
  | Maximum stacksize for task 4: unlimited
  | Maximum stacksize for task 5: unlimited
  | Maximum stacksize for task 6: unlimited
  | Maximum stacksize for task 7: unlimited
  | Current stacksize for task 0: unlimited
  | Current stacksize for task 1: unlimited
  | Current stacksize for task 2: unlimited
  | Current stacksize for task 3: unlimited
  | Current stacksize for task 4: unlimited
  | Current stacksize for task 5: unlimited
  | Current stacksize for task 6: unlimited
  | Current stacksize for task 7: unlimited
  | Checking for scalapack...
  | Testing pdtran()...
  | All pdtran() tests passed.

  Obtaining array dimensions for all initial allocations:
  
  -----------------------------------------------------------------------
  Parsing control.in (first pass over file, find array dimensions only).
  The contents of control.in will be repeated verbatim below
  unless switched off by setting 'verbatim_writeout .false.' .
  in the first line of control.in .
  -----------------------------------------------------------------------
  
  #  Volker Blum, FHI 2007 : Input file for FHI-aims code project
  #
    xc             pbe
    relativistic   atomic_zora scalar
    spin           collinear
  #
    KS_method      serial
      empty_states   10
      basis_threshold 0.e-6
  #
    occupation_type gaussian 0.1
    mixer          pulay
      ini_linear_mixing 12
      ini_linear_mix_param 0.3
      charge_mix_param  0.6
    sc_accuracy_rho  1E-6
    sc_accuracy_eev  1E-4
    sc_accuracy_etot 1E-6
    sc_iter_limit 100
  #
    constraint_electrons 1  6 5
    constraint_electrons 2  8 9
    mixer_constraint bfgs
    constraint_it_lim 400
    constraint_precision 1e-8
  #
    output mulliken
    output hirshfeld
  ################################################################################
  #
  #  FHI-aims code project
  #  VB, Fritz-Haber Institut, 2007
  #
  #  Suggested "safe" defaults for Na atom (to be pasted into control.in file)
  #  All values have been tested for a non-relativistic, non-spinpolarized Na2
  #  molecule using the PW-LDA functional. Validity for PBE is expected.
  #
  #  Constructed for dimers: 2.0 A, 2.5 A, 3.0 A, 3.75 A, 4.5 A
  #
  ################################################################################
    species        Na
  #     global species definitions
      nucleus             11
      l_hartree           6
      cut_pot             5.0          2.0  1.0
      cut_free_atom       finite 8.0
      logarithmic         0.000100 100.00  1.0123
      radial_base         40 7.0
      radial_multiplier   2
      angular_grids       specified
        division   0.5925  110
        division   0.7843  194
        division   1.0201  302
        division   1.1879  434
        division   1.3799  590
  #      division   1.4503  770
  #      division   7.0005  974
  #      outer_grid  974
        outer_grid  590
  ################################################################################
  #
  #  Definition of "minimal" basis
  #
  ################################################################################
  #     valence basis states
      valence      3  s   1.
      valence      2  p   6.
  #     ion occupancy
      ion_occ      2  s   2.
      ion_occ      2  p   6.
  ################################################################################
  #
  #  Suggested additional basis functions. For production calculations,
  #  uncomment them one after another (the most important basis functions are
  #  listed first).
  #
  ################################################################################
  #  "First tier" - improvements: -60.09 meV to -10.02 meV
       hydro 2 p 1.2
       hydro 3 s 1.8
       hydro 3 d 3.8
  #  "Second tier" - improvements: -2.94 meV to -1.27 meV
  #     hydro 4 p 3.1
  #     hydro 3 s 10
  #     hydro 4 f 6.2
  #     hydro 4 d 1.3
  #  "Third tier" - improvements: -0.83 meV to -0.07 meV
  #     hydro 3 d 7.8
  #     hydro 3 p 2.3
  #     hydro 5 g 9.6
  #     hydro 4 p 0.85
  #     hydro 5 f 1.8
  #     hydro 2 s 0.6
  #  Further basis functions that fell out of the optimization - noise level...
  #     hydro 5 g 0.1
  #     hydro 4 d 3.4
  #     hydro 4 s 0.1
  
  ################################################################################
  #
  #  FHI-aims code project
  #  VB, Fritz-Haber Institut, 2007
  #
  #  Suggested "safe" defaults for Cl atom (to be pasted into control.in file)
  #  All values have been tested for a non-relativistic, non-spinpolarized Cl2
  #  molecule using the PW-LDA functional. Validity for PBE is expected.
  #
  #  Constructed for dimers: 1.65 A, 2.0 A, 2.5 A, 3.25 A, 4.0 A
  #
  ################################################################################
    species        Cl
  #     global species definitions
      nucleus             17
      l_hartree           6
      cutoff_type         exp(1_x)_(1-x)2
      cut_pot             4.0          2.0  1.0
      cut_free_atom       finite 8.0
      logarithmic         0.000100 100.00  1.0123
      radial_base         45 7.0
      radial_multiplier   2
      angular_grids       specified
        division   0.4412  110
        division   0.5489  194
        division   0.6734  302
        division   0.7794  434
        division   0.9402  590
  #      division   1.0779  770
  #      division   1.1792  974
  #      outer_grid  974
        outer_grid  590
  ################################################################################
  #
  #  Definition of "minimal" basis
  #
  ################################################################################
  #     valence basis states
      valence      3  s   2.
      valence      3  p   5.
  #     ion occupancy
      ion_occ      3  s   1.
      ion_occ      3  p   4.
  ################################################################################
  #
  #  Suggested additional basis functions. For production calculations,
  #  uncomment them one after another (the most important basis functions are
  #  listed first).
  #
  #  Comments:
  #  Tier 2: For consistency, moved down an extra hydro 4 d from between 1 s and 5 g, to
  #          beginning of third tier.
  #
  ################################################################################
  #  "First tier" - improvements: -429.57 meV to -15.03 meV
       ionic 3 d 9.4486
       hydro 2 p 1.9
       hydro 4 f 7.4
       ionic 3 s 9.4486
       hydro 5 g 10.4
  #  "Second tier" - improvements: -7.84 meV to -0.48 meV
  #     hydro 3 d 3.3
  #     hydro 5 f 9.8
  #     hydro 1 s 0.75
  #     hydro 5 g 11.2
  #     hydro 4 p 10.4
  #  "Third tier" - improvements: -1.00 meV to -0.12 meV
  #     hydro 4 d 12.8
  #     hydro 4 f 4.6
  #     hydro 4 d 10.8
  #     hydro 2 s 1.8
  #     hydro 3 p 3
  #  Further functions that fell out - improvements: -0.10 meV and below
  #     hydro 5 f 14.4
  #     hydro 4 s 12.8
  #     hydro 3 d 11.6
  #     hydro 4 s 4.1
  
  -----------------------------------------------------------------------
  Completed first pass over input file control.in .
  -----------------------------------------------------------------------
  
  
  -----------------------------------------------------------------------
  Parsing geometry.in (first pass over file, find array dimensions only).
  The contents of geometry.in will be repeated verbatim below
  unless switched off by setting 'verbatim_writeout .false.' .
  in the first line of geometry.in .
  -----------------------------------------------------------------------
  
  # Geometry for Na-Cl dimer
  #
  atom  0.0 0.0 0.0         Na
  constraint_region 1
  initial_moment 1
  atom 0.0 0.0  2.3         Cl
  constraint_region 2
  initial_moment -1
  
  -----------------------------------------------------------------------
  Completed first pass over input file geometry.in .
  -----------------------------------------------------------------------
  

  Basic array size parameters:
  | Number of species                 :        2
  | Number of atoms                   :        2
  | Max. basis fn. angular momentum   :        4
  | Max. atomic/ionic basis occupied n:        3
  | Max. number of basis fn. types    :        3
  | Max. radial fns per species/type  :        5
  | Max. logarithmic grid size        :     1362
  | Max. radial integration grid size :       91
  | Max. angular integration grid size:      590
  | Max. angular grid division number :        8
  | Radial grid for Hartree potential :     1362
  | Number of spin channels           :        2
  | Locally constrained regions       :        2

------------------------------------------------------------
          Reading file control.in.
------------------------------------------------------------
  XC: Using PBE gradient-corrected functionals.
  Scalar relativistic treatment of kinetic energy: on-site free-atom approximation to ZORA.
  Spin treatment: Spin density functional theory - collinear spins.
  Kohn-Sham eigenvalues and eigenfunctions calculated by LAPACK via ELSI.
  Number of empty states per atom:       10
  Threshold for basis singularities:  0.0000E+00
  Occupation type: Gaussian broadening, width =   0.100000E+00 eV.
  Using pulay charge density mixing.
  Number of initial iterations with linear charge density mixing:    12
  Charge density mixing parameter for initial linear mixing:  0.30000E+00
  Charge density mixing - mixing parameter:     0.6000
  Convergence accuracy of self-consistent charge density:  0.1000E-05
  Convergence accuracy of sum of eigenvalues:  0.1000E-03
  Convergence accuracy of total energy:  0.1000E-05
  Maximum number of s.-c. iterations  :   100
  Found constraint for subsystem     1:
  | Electrons in spin channel     1:    6.00000
  | Electrons in spin channel     2:    5.00000
  Found constraint for subsystem     2:
  | Electrons in spin channel     1:    8.00000
  | Electrons in spin channel     2:    9.00000
  Applying BFGS-minimization routine 
  in spin constrained DFT.
  Maximum number of constraint iterations  :   400
  Convergence criterion for constraint_electrons :    0.100000E-07
  Full Mulliken charge analysis will be written to file 'Mulliken.out'.
  Hirshfeld charge analysis will be performed.
 
  Reading configuration options for species Na                  .
  | Found nuclear charge :  11.0000
  | Found l_max for Hartree potential  :   6
  | Found cutoff potl. onset [A], width [A], scale factor :    5.00000    2.00000    1.00000
  | Found cutoff specification for free atom: Cutoff potential begins at    8.00000 A.
  | Found logarithmic grid data [bohr] : 0.1000E-03 0.1000E+03 0.1012E+01
  | Found data for basic radial integration grid :    40 points, outermost radius =    7.000 A
  | Found multiplier for basic radial grid :   2
  | Found angular grid specification: user-specified.
  | Specified grid contains     6 separate shells.
  | Check grid settings after all constraints further below.
  | Found free-atom valence shell :  3 s   1.000
  | Found free-atom valence shell :  2 p   6.000
  | Found free-ion valence shell :  2 s   2.000
  | Found free-ion valence shell :  2 p   6.000
  | Found hydrogenic basis function :  2 p   1.200
  | Found hydrogenic basis function :  3 s   1.800
  | Found hydrogenic basis function :  3 d   3.800
  Species Na                  : Missing cutoff potential type.
  Defaulting to exp(1/x)/(1-x)^2 type cutoff potential.
  Species Na: On-site basis accuracy parameter (for Gram-Schmidt orthonormalisation) not specified.
  Using default value basis_acc =  0.1000000E-03.
  Species Na                  : Using default innermost maximum threshold i_radial=  2 for radial functions.
  Species Na                  : Basic radial grid will be enhanced according to radial_multiplier =   2, to contain    81 grid points.
 
  Reading configuration options for species Cl                  .
  | Found nuclear charge :  17.0000
  | Found l_max for Hartree potential  :   6
  | Found cutoff potential type : exp(1_x)_(1-x)2     
  | Found cutoff potl. onset [A], width [A], scale factor :    4.00000    2.00000    1.00000
  | Found cutoff specification for free atom: Cutoff potential begins at    8.00000 A.
  | Found logarithmic grid data [bohr] : 0.1000E-03 0.1000E+03 0.1012E+01
  | Found data for basic radial integration grid :    45 points, outermost radius =    7.000 A
  | Found multiplier for basic radial grid :   2
  | Found angular grid specification: user-specified.
  | Specified grid contains     6 separate shells.
  | Check grid settings after all constraints further below.
  | Found free-atom valence shell :  3 s   2.000
  | Found free-atom valence shell :  3 p   5.000
  | Found free-ion valence shell :  3 s   1.000
  | Found free-ion valence shell :  3 p   4.000
  | Found ionic basis function :  3 d   9.449
  | Found hydrogenic basis function :  2 p   1.900
  | Found hydrogenic basis function :  4 f   7.400
  | Found ionic basis function :  3 s   9.449
  | Found hydrogenic basis function :  5 g  10.400
  | Will include ionic basis functions of  2.0-fold positive Cl                   ion.
  Species Cl: On-site basis accuracy parameter (for Gram-Schmidt orthonormalisation) not specified.
  Using default value basis_acc =  0.1000000E-03.
  Species Cl                  : Using default innermost maximum threshold i_radial=  2 for radial functions.
  Species Cl                  : Basic radial grid will be enhanced according to radial_multiplier =   2, to contain    91 grid points.
 
  Finished reading input file 'control.in'. Consistency checks are next.
 
  MPI_IN_PLACE appears to work with this MPI implementation.
  | Keeping use_mpi_in_place .true. (see manual).
  Target number of points in a grid batch is not set. Defaulting to  100
  Method for grid partitioning is not set. Defaulting to parallel hash+maxmin partitioning.
  Batch size limit is not set. Defaulting to    200
  By default, will store active basis functions for each batch.
  If in need of memory, prune_basis_once .false. can be used to disable this option.
  communication_type for Hartree potential was not specified.
  Defaulting to calc_hartree .
  Pulay mixer: Number of relevant iterations not set.
  Defaulting to    8 iterations.
  Work space size for distributed Hartree potential not set.
  Defaulting to   0.200000E+03 MB.
  Mixing parameter for spin density mixing has not been set.
  Using charge_mix_param as default:     0.6000.
  Mixing parameter for initial linear spin density mixing has not been set.
  Using default:     0.3000.
  Algorithm-dependent basis array size parameters:
  | n_max_pulay                         :        8
  Presetting      1001 iterations before the initial mixing cycle
  is restarted anyway using the sc_init_iter criterion / keyword.
  Presetting a factor      1.000 between actual scf density residual
  and density convergence criterion sc_accuracy_rho below which sc_init_iter
  takes no effect.
  Calculation of forces was not defined in control.in. No forces will be calculated.
  Geometry relaxation not requested: no relaxation will be performed.
  No accuracy limit for integral partition fn. given. Defaulting to  0.1000E-14.
  No threshold value for u(r) in integrations given. Defaulting to  0.1000E-05.
  No accuracy for occupation numbers given. Defaulting to  0.1000E-07.
  No threshold value for occupation numbers given. Defaulting to  0.0000E+00.
  No accuracy for fermi level given. Defaulting to  0.1000E-19.
  Maximum # of iterations to find E_F not set. Defaulting to  200.
  Switching off ELSI because of 'use_constraint'.
  Will not use alltoall communication since running on < 1024 CPUs.
  partition_type (choice of integration weights) for integrals was not specified.
  | Using a version of the partition function of Stratmann and coworkers ('stratmann_sparse').
  | At each grid point, the set of atoms used to build the partition table is smoothly restricted to
  | only those atoms whose free-atom density would be non-zero at that grid point.
  Partitioning for Hartree potential was not defined. Using partition_type for integrals.
  | Adjusted default value of keyword multip_moments_threshold to:       0.10000000E-11
  | This value may affect high angular momentum components of the Hartree potential in periodic systems.
  No q(lm)/r^(l+1) cutoff set for long-range Hartree potential.
  | Using default value of  0.100000E-09 .
  | Verify using the multipole_threshold keyword.
  Defaulting to new monopole extrapolation.
  Density update method: automatic selection selected.
  Charge integration errors on the 3D integration grid will be compensated
  by explicit normalization and distribution of residual charges.
  Use the "compensate_multipole_errors" flag to change this behaviour.
------------------------------------------------------------


------------------------------------------------------------
          Reading geometry description geometry.in.
------------------------------------------------------------
  Input structure read successfully.
  The structure contains        2 atoms,  and a total of         28.000 electrons.

  Input geometry:
  | No unit cell requested.
  | Atomic structure:
  |       Atom                x [A]            y [A]            z [A]
  |    1: Species Na            0.00000000        0.00000000        0.00000000
  |    2: Species Cl            0.00000000        0.00000000        2.30000000
  | The smallest distance between any two atoms is         2.30000000 AA.
  | The first atom of this pair is atom number                      1 .
  | The second atom of this pair is atom number                     2 .

  Initial moments and charges:
  |  Atom   Moment         Charge        Species
  |     1   0.100000E+01   0.000000E+00   Na
  |     2  -0.100000E+01   0.000000E+00   Cl

  Structure-dependent array size parameters: 
  | Number of distinct atom types in initial rho :        2
  | Maximum number of distinct radial functions  :       17
  | Maximum number of basis functions            :       49
  | Number of Kohn-Sham states (occupied + empty):       24
------------------------------------------------------------

------------------------------------------------------------
          Preparing all fixed parts of the calculation.
------------------------------------------------------------
  Determining machine precision:
    2.225073858507201E-308
  Setting up grids for atomic and cluster calculations.

  Creating wave function, potential, and density for free atoms.

  Species: Na

  List of occupied orbitals and eigenvalues:
    n    l              occ      energy [Ha]    energy [eV]
    1    0           2.0000       -38.039327     -1035.1028
    2    0           2.0000        -2.085710       -56.7551
    3    0           1.0000        -0.100788        -2.7426
    2    1           6.0000        -1.053637       -28.6709


  Species: Cl

  List of occupied orbitals and eigenvalues:
    n    l              occ      energy [Ha]    energy [eV]
    1    0           2.0000      -101.453091     -2760.6791
    2    0           2.0000        -9.289636      -252.7839
    3    0           2.0000        -0.760399       -20.6915
    2    1           6.0000        -7.044018      -191.6775
    3    1           5.0000        -0.315848        -8.5947

  Spin-polarized or charged system:
  Charge density initialized according to selected moments and charges.

  Creating spin-polarized density from free atoms.

  Species: Na
  Charge:   0.000000
  Moment:   1.000000

  List of occupied orbitals and eigenvalues:
    n    l      energy [Ha]    energy [eV]    occupation
  Spin-up
    1    0       -38.031283     -1034.8839     1.00000000
    2    0        -2.078871       -56.5690     1.00000000
    3    0        -0.109410        -2.9772     1.00000000
    2    1        -1.047062       -28.4920     3.00000000
  Spin-down
    1    0       -38.030302     -1034.8572     1.00000000
    2    0        -2.076313       -56.4994     1.00000000
    3    0        -0.049465        -1.3460     0.00000000
    2    1        -1.043894       -28.4058     3.00000000


  Species: Cl
  Charge:   0.000000
  Moment:  -1.000000

  List of occupied orbitals and eigenvalues:
    n    l      energy [Ha]    energy [eV]    occupation
  Spin-up
    1    0      -101.448313     -2760.5491     1.00000000
    2    0        -9.285310      -252.6661     1.00000000
    3    0        -0.740892       -20.1607     1.00000000
    2    1        -7.038545      -191.5286     3.00000000
    3    1        -0.298187        -8.1141     2.00000000
  Spin-down
    1    0      -101.454093     -2760.7063     1.00000000
    2    0        -9.290573      -252.8094     1.00000000
    3    0        -0.776493       -21.1295     1.00000000
    2    1        -7.046063      -191.7331     3.00000000
    3    1        -0.330417        -8.9911     3.00000000

  Creating fixed part of basis set: Ionic, confined, hydrogenic.
 
  Na                   hydrogenic:
 
  List of hydrogenic basis orbitals: 
    n    l      effective z      eigenvalue [eV]  inner max. [A]     outer max. [A]     outer radius [A]   
    2    1         1.200000        -4.8636           1.741724           1.741724           6.442698
    3    0         1.800000        -4.3244           0.217976           3.539282           6.521943
    3    2         3.800000       -21.8293           1.252074           1.252074           5.771446
 
 
  Cl                   ion:

  List of free ionic orbitals and eigenvalues:
    n    l      energy [Ha]    energy [eV]
    1    0      -102.554413     -2790.6476
    2    0       -10.359555      -281.8978
    3    0        -1.672516       -45.5115
    2    1        -8.116241      -220.8542
    3    1        -1.184158       -32.2226


  List of ionic basis orbitals and eigenvalues:
    n    l      energy [Ha]    energy [eV]    outer radius [A]
    3    2        -0.528078       -14.3697       5.590276
    3    0        -1.672511       -45.5113       3.780399

 
  Cl                   hydrogenic:
 
  List of hydrogenic basis orbitals: 
    n    l      effective z      eigenvalue [eV]  inner max. [A]     outer max. [A]     outer radius [A]   
    2    1         1.900000       -12.2741           1.113304           1.113304           5.388967
    4    3         7.400000       -46.5653           1.140860           1.140860           4.886879
    5    4        10.400000       -58.8635           1.273549           1.273549           4.886879
 

  Adding cutoff potential to free-atom effective potential.
  Creating atomic-like basis functions for current effective potential.

  Species Na                  :

  List of atomic basis orbitals and eigenvalues:
    n    l      energy [Ha]    energy [eV]    outer radius [A]
    1    0       -38.039327     -1035.1028       1.017122
    2    0        -2.085710       -56.7551       4.251613
    3    0        -0.099753        -2.7144       6.442698
    2    1        -1.053637       -28.6709       5.496012


  Species Cl                  :

  List of atomic basis orbitals and eigenvalues:
    n    l      energy [Ha]    energy [eV]    outer radius [A]
    1    0      -101.453091     -2760.6791       0.642241
    2    0        -9.289636      -252.7839       2.102298
    3    0        -0.760399       -20.6915       5.194907
    2    1        -7.044018      -191.6775       2.346807
    3    1        -0.315838        -8.5944       5.323488

  Assembling full basis from fixed parts.
  | Species Na :   atomic orbital   1 s accepted.
  | Species Na :   atomic orbital   2 s accepted.
  | Species Na :   atomic orbital   3 s accepted.
  | Species Na :    hydro orbital   3 s accepted.
  | Species Na :   atomic orbital   2 p accepted.
  | Species Na :    hydro orbital   2 p accepted.
  | Species Na :    hydro orbital   3 d accepted.
  | Species Cl :   atomic orbital   1 s accepted.
  | Species Cl :   atomic orbital   2 s accepted.
  | Species Cl :    ionic orbital   3 s accepted.
  | Species Cl :   atomic orbital   3 s accepted.
  | Species Cl :   atomic orbital   2 p accepted.
  | Species Cl :   atomic orbital   3 p accepted.
  | Species Cl :    hydro orbital   2 p accepted.
  | Species Cl :    ionic orbital   3 d accepted.
  | Species Cl :    hydro orbital   4 f accepted.
  | Species Cl :    hydro orbital   5 g accepted.
 
  Basis size parameters after reduction:
  | Total number of radial functions:       17
  | Total number of basis functions :       49
 
  Per-task memory consumption for arrays in subroutine allocate_ext:
  |           5.929660MB.
  Testing on-site integration grid accuracy.
  |  Species  Function  <phi|h_atom|phi> (log., in eV)  <phi|h_atom|phi> (rad., in eV)
           1        1              -1035.1027665556              -1035.1027545230
           1        2                -56.7550687265                -56.7550685684
           1        3                 -2.7194068101                 -2.7195847747
           1        4                  2.2677916264                  2.2666361654
           1        5                -28.6709145544                -28.6709145113
           1        6                  0.0480933924                  0.0478646272
           1        7                 10.1320031789                 10.1319911039
           2        8              -2760.6790794627              -2760.6790229965
           2        9               -252.7838526234               -252.7838517910
           2       10                -20.4406214807                -20.4406212370
           2       11                  9.0541544412                  9.0541524253
           2       12               -191.6774774860               -191.6774772850
           2       13                 -8.5944773086                 -8.5944766853
           2       14                  7.6526828306                  7.6527005864
           2       15                  6.9961761022                  6.9961862573
           2       16                 28.0560112332                 28.0560102255
           2       17                 45.0518812157                 45.0518801141

  Preparing densities etc. for the partition functions (integrals / Hartree potential).

  Preparations completed.
  max(cpu_time)          :      0.408 s.
  Wall clock time (cpu1) :      0.408 s.
------------------------------------------------------------

------------------------------------------------------------
          Begin self-consistency loop: Initialization.

          Date     :  20190817, Time     :  153201.839
------------------------------------------------------------

  Initializing index lists of integration centers etc. from given atomic structure:
  | Number of centers in hartree potential         :         2
  | Number of centers in hartree multipole         :         2
  | Number of centers in electron density summation:         2
  | Number of centers in basis integrals           :         2
  | Number of centers in integrals                 :         2
  | Number of centers in hamiltonian               :         2
  Partitioning the integration grid into batches with parallel hashing+maxmin method.
  | Number of batches:      801
  | Maximal batch size:     197
  | Minimal batch size:      49
  | Average batch size:      71.096
  | Standard deviation of batch sizes:      19.158

  Integration load balanced across     8 MPI tasks.
  Work distribution over tasks is as follows:
  Task     0 has       7087 integration points.
  Task     1 has       7146 integration points.
  Task     2 has       7181 integration points.
  Task     3 has       7145 integration points.
  Task     4 has       7069 integration points.
  Task     5 has       7087 integration points.
  Task     6 has       7143 integration points.
  Task     7 has       7090 integration points.
  Initializing partition tables, free-atom densities, potentials, etc. across the integration grid (initialize_grid_storage).
  | initialize_grid_storage: Actual outermost partition radius vs. multipole_radius_free
  | (-- VB: in principle, multipole_radius_free should be larger, hence this output)
  | Species        1: Confinement radius =              9.999999999999998 AA, multipole_radius_free =             10.004613067852729 AA.
  | Species        1: outer_partition_radius set to             10.004613067852729 AA .
  | Species        2: Confinement radius =              9.999999999999998 AA, multipole_radius_free =             10.052557990781963 AA.
  | Species        2: outer_partition_radius set to             10.052557990781963 AA .
  | The sparse table of interatomic distances needs          0.04 kbyte instead of         0.03 kbyte of memory.
  | Using the partition_type stratmann_smoother will reduce your memory usage.
  | Net number of integration points:    56948
  | of which are non-zero points    :    54942
  Renormalizing the initial density to the exact electron count on the 3D integration grid.
  | Initial density: Formal number of electrons (from input files) :      28.0000000000
  | Integrated number of electrons on 3D grid     :      27.9999991481
  | Charge integration error                      :      -0.0000008519
  | Normalization factor for density and gradient :       1.0000000304
  Renormalizing the free-atom superposition density to the exact electron count on the 3D integration grid.
  | Formal number of electrons (from input files) :      28.0000000000
  | Integrated number of electrons on 3D grid     :      27.9999902181
  | Charge integration error                      :      -0.0000097819
  | Normalization factor for density and gradient :       1.0000003494
  Obtaining max. number of non-zero basis functions in each batch (get_n_compute_maxes).
  | Maximal number of non-zero basis functions:       48 in task     0
  | Maximal number of non-zero basis functions:       48 in task     1
  | Maximal number of non-zero basis functions:       48 in task     2
  | Maximal number of non-zero basis functions:       48 in task     3
  | Maximal number of non-zero basis functions:       48 in task     4
  | Maximal number of non-zero basis functions:       49 in task     5
  | Maximal number of non-zero basis functions:       49 in task     6
  | Maximal number of non-zero basis functions:       49 in task     7
  Selecting the method for density update.
  Loop over occupied states selected for charge density update.
  Allocating        0.018 MB for KS_eigenvector
  Integrating Hamiltonian matrix: batch-based integration.
  Time summed over all CPUs for integration: real work        0.173 s, elapsed        0.178 s
  Integrating overlap matrix.
  Time summed over all CPUs for integration: real work        0.047 s, elapsed        0.050 s

  Updating Kohn-Sham eigenvalues, eigenvectors, occupation numbers, and Fermi level.
  Updating Kohn-Sham eigenvalues and eigenfunctions.
  Transforming overlap matrix and checking for singularities.
  Overlap matrix is nonsingular:
  | Lowest eigenvalue:  0.579484E-01
  Solving real generalised eigenvalue problem by standard LAPACK (fast)
  Updating Kohn-Sham eigenvalues and eigenfunctions.
  Solving real generalised eigenvalue problem by standard LAPACK (fast)
  Locally constrained DFT: Constraint on electron numbers not yet fulfilled.
  Entering inner self-consistency loop.

  Locally constrained DFT: Spin     1 converged after   115 iterations.
  Locally constrained DFT: Spin     2 converged after   181 iterations.
  |
  | Final constraint potentials in different subsystems:
  |   Region             Spin  1             Spin  2
  |        1    -3.5257671372 eV     1.0125695471 eV
  |        2     1.3205594834 eV     0.6141421331 eV
  |
  | Electron count in different subsystems:
  |   Region             Spin  1             Spin  2
  |        1        5.9999999952        4.9999999995
  |        2        8.0000000048        9.0000000005
  |
  | Final average constraint potential:
  |             0.0000000000 Ha             0.0000000008 eV.
  |
  | Overall Fermi level:
  |            -0.2456290481 Ha            -6.6839064718 eV.

  Writing Kohn-Sham eigenvalues.

  Spin-up eigenvalues:

  State    Occupation    Eigenvalue [Ha]    Eigenvalue [eV]
      1       1.00000        -101.421764        -2759.82661
      2       1.00000         -38.171128        -1038.68924
      3       1.00000          -9.259300         -251.95838
      4       1.00000          -7.013081         -190.83564
      5       1.00000          -7.012011         -190.80653
      6       1.00000          -7.012011         -190.80653
      7       1.00000          -2.220569          -60.42477
      8       1.00000          -1.191462          -32.42133
      9       1.00000          -1.187153          -32.30408
     10       1.00000          -1.187153          -32.30408
     11       1.00000          -0.745545          -20.28731
     12       1.00000          -0.319830           -8.70301
     13       1.00000          -0.285123           -7.75858
     14       1.00000          -0.285123           -7.75858
     15       0.00000          -0.223122           -6.07145
     16       0.00000          -0.133186           -3.62416
     17       0.00000          -0.133186           -3.62416
     18       0.00000          -0.106727           -2.90419
     19       0.00000          -0.043052           -1.17150
     20       0.00000           0.189362            5.15279
     21       0.00000           0.189362            5.15279
     22       0.00000           0.199485            5.42827
     23       0.00000           0.199486            5.42828
     24       0.00000           0.247097            6.72384

  Spin-down eigenvalues:

  State    Occupation    Eigenvalue [Ha]    Eigenvalue [eV]
      1       1.00000        -101.453466        -2760.68926
      2       1.00000         -38.003369        -1034.12428
      3       1.00000          -9.290203         -252.79929
      4       1.00000          -7.046352         -191.74100
      5       1.00000          -7.045298         -191.71230
      6       1.00000          -7.045298         -191.71230
      7       1.00000          -2.050343          -55.79268
      8       1.00000          -1.022280          -27.81767
      9       1.00000          -1.017340          -27.68323
     10       1.00000          -1.017340          -27.68323
     11       1.00000          -0.779101          -21.20042
     12       1.00000          -0.341849           -9.30218
     13       1.00000          -0.330021           -8.98033
     14       1.00000          -0.330021           -8.98033
     15       0.00000          -0.014469           -0.39372
     16       0.00000           0.067793            1.84474
     17       0.00000           0.067793            1.84474
     18       0.00000           0.093896            2.55505
     19       0.00000           0.158859            4.32278
     20       0.00000           0.235266            6.40191
     21       0.00000           0.235266            6.40191
     22       0.00000           0.238721            6.49594
     23       0.00000           0.238722            6.49594
     24       0.00000           0.244995            6.66666

  Current spin moment of the entire structure :
  | N = N_up - N_down :    0.00
  | S                 :    0.00
  | J                 :    1.00

  Highest occupied state (VBM) at     -7.75857914 eV
  | Occupation number:      1.00000000
  | Spin channel:        1

  Lowest unoccupied state (CBM) at    -6.07145038 eV
  | Occupation number:      0.00000000
  | Spin channel:        1

  Overall HOMO-LUMO gap:      1.68712876 eV.
  Calculating total energy contributions from superposition of free atom densities.

  Total energy components:
  | Sum of eigenvalues            :        -354.08353305 Ha       -9635.10316288 eV
  | XC energy correction          :         -42.47648329 Ha       -1155.84391889 eV
  | XC potential correction       :          54.85659836 Ha        1492.72399044 eV
  | Free-atom electrostatic energy:        -283.12735504 Ha       -7704.28732040 eV
  | Hartree energy correction     :           0.00000000 Ha           0.00000000 eV
  | Entropy correction            :          -0.00000000 Ha          -0.00000000 eV
  | ---------------------------
  | Total energy                  :        -624.83077301 Ha      -17002.51041173 eV
  | Total energy, T -> 0          :        -624.83077301 Ha      -17002.51041173 eV  <-- do not rely on this value for anything but (periodic) metals
  | Electronic free energy        :        -624.83077301 Ha      -17002.51041173 eV

  Derived energy quantities:
  | Kinetic energy                :         626.88314993 Ha       17058.35842929 eV
  | Electrostatic energy          :       -1209.23743965 Ha      -32905.02492212 eV
  | Energy correction for multipole
  | error in Hartree potential    :           0.00000000 Ha           0.00000000 eV
  | Sum of eigenvalues per atom                           :       -4817.55158144 eV
  | Total energy (T->0) per atom                          :       -8501.25520586 eV  <-- do not rely on this value for anything but (periodic) metals
  | Electronic free energy per atom                       :       -8501.25520586 eV
  Initialize hartree_potential_storage
  Max. number of atoms included in rho_multipole:            2

  End scf initialization - timings             :  max(cpu_time)    wall_clock(cpu1)
  | Time for scf. initialization               :        0.152 s           0.154 s
  | Boundary condition initialization          :        0.000 s           0.000 s
  | Integration                                :        0.029 s           0.029 s
  | Solution of K.-S. eqns.                    :        0.081 s           0.083 s
  | Grid partitioning                          :        0.015 s           0.015 s
  | Preloading free-atom quantities on grid    :        0.013 s           0.012 s
  | Free-atom superposition energy             :        0.006 s           0.006 s
  | Total energy evaluation                    :        0.000 s           0.000 s

  Partial memory accounting:
  | Current value for overall tracked memory usage:
  |   Minimum:        0.065 MB (on task 0)
  |   Maximum:        0.065 MB (on task 0)
  |   Average:        0.065 MB
  | Peak value for overall tracked memory usage:
  |   Minimum:        0.426 MB (on task 0 after allocating wave)
  |   Maximum:        0.434 MB (on task 5 after allocating wave)
  |   Average:        0.429 MB
  | Largest tracked array allocation so far:
  |   Minimum:        0.144 MB (H_times_psi on task 1)
  |   Maximum:        0.203 MB (all_coords on task 4)
  |   Average:        0.165 MB
  Note:  These values currently only include a subset of arrays which are explicitly tracked.
  The "true" memory usage will be greater.
------------------------------------------------------------

------------------------------------------------------------
          Begin self-consistency iteration #    1

  Date     :  20190817, Time     :  153201.993
------------------------------------------------------------
  Evaluating new KS density.
  Integration grid: deviation in total charge (<rho> - N_e) =   1.421085E-14
  | <rho_up-rho_dn> = N_up-N_dn =     -0.0000; <|rho_up-rho_dn|> =      0.9536
  Linear mixing of updated and previous charge densities.
  Renormalizing the density to the exact electron count on the 3D integration grid.
  | Formal number of electrons (from input files) :      28.0000000000
  | Integrated number of electrons on 3D grid     :      28.0000000000
  | Charge integration error                      :      -0.0000000000
  | Normalization factor for density and gradient :       1.0000000000

  Evaluating partitioned Hartree potential by multipole expansion.
  | Original multipole sum: apparent total charge =  -0.324444E-13
  | Sum of charges compensated after spline to logarithmic grids =  -0.979181E-05
  | Analytical far-field extrapolation by fixed multipoles:
  | Hartree multipole sum: apparent total charge =  -0.322722E-13
  Summing up the Hartree potential.
  Time summed over all CPUs for potential: real work        0.067 s, elapsed        0.070 s
  | RMS charge density error from multipole expansion :   0.190184E-03

  Integrating Hamiltonian matrix: batch-based integration.
  Time summed over all CPUs for integration: real work        0.169 s, elapsed        0.175 s

  Updating Kohn-Sham eigenvalues, eigenvectors, occupation numbers, and Fermi level.
  Updating Kohn-Sham eigenvalues and eigenfunctions.
  Solving real generalised eigenvalue problem by standard LAPACK (fast)
  Updating Kohn-Sham eigenvalues and eigenfunctions.
  Solving real generalised eigenvalue problem by standard LAPACK (fast)
  Locally constrained DFT: Constraint on electron numbers not yet fulfilled.
  Entering inner self-consistency loop.

  Locally constrained DFT: Spin     1 converged after   110 iterations.
  Locally constrained DFT: Spin     2 converged after   123 iterations.
  |
  | Final constraint potentials in different subsystems:
  |   Region             Spin  1             Spin  2
  |        1    -2.4793545485 eV     0.4031127413 eV
  |        2     1.6893684398 eV    -0.0727093266 eV
  |
  | Electron count in different subsystems:
  |   Region             Spin  1             Spin  2
  |        1        5.9999999986        4.9999999988
  |        2        8.0000000014        9.0000000012
  |
  | Final average constraint potential:
  |             0.0000000000 Ha             0.0000000002 eV.
  |
  | Overall Fermi level:
  |            -0.1990496528 Ha            -5.4164166377 eV.

  Writing Kohn-Sham eigenvalues.

  Spin-up eigenvalues:

  State    Occupation    Eigenvalue [Ha]    Eigenvalue [eV]
      1       1.00000        -101.315452        -2756.93372
      2       1.00000         -38.119113        -1037.27383
      3       1.00000          -9.164271         -249.37250
      4       1.00000          -6.917551         -188.23615
      5       1.00000          -6.915861         -188.19014
      6       1.00000          -6.915861         -188.19014
      7       1.00000          -2.171572          -59.09147
      8       1.00000          -1.141611          -31.06480
      9       1.00000          -1.138733          -30.98651
     10       1.00000          -1.138733          -30.98651
     11       1.00000          -0.673587          -18.32923
     12       1.00000          -0.257770           -7.01428
     13       1.00000          -0.224668           -6.11353
     14       1.00000          -0.224668           -6.11353
     15       0.00000          -0.175633           -4.77923
     16       0.00000          -0.085308           -2.32134
     17       0.00000          -0.085308           -2.32134
     18       0.00000          -0.057492           -1.56444
     19       0.00000           0.001641            0.04466
     20       0.00000           0.239885            6.52760
     21       0.00000           0.239885            6.52760
     22       0.00000           0.248325            6.75728
     23       0.00000           0.248326            6.75728
     24       0.00000           0.293385            7.98342

  Spin-down eigenvalues:

  State    Occupation    Eigenvalue [Ha]    Eigenvalue [eV]
      1       1.00000        -101.384958        -2758.82506
      2       1.00000         -38.012134        -1034.36280
      3       1.00000          -9.233082         -251.24493
      4       1.00000          -6.988725         -190.17288
      5       1.00000          -6.986446         -190.11086
      6       1.00000          -6.986446         -190.11086
      7       1.00000          -2.062443          -56.12194
      8       1.00000          -1.032927          -28.10736
      9       1.00000          -1.029831          -28.02314
     10       1.00000          -1.029831          -28.02314
     11       1.00000          -0.746467          -20.31241
     12       1.00000          -0.316954           -8.62477
     13       1.00000          -0.302670           -8.23606
     14       1.00000          -0.302670           -8.23606
     15       0.00000          -0.033896           -0.92236
     16       0.00000           0.052318            1.42363
     17       0.00000           0.052318            1.42363
     18       0.00000           0.079365            2.15963
     19       0.00000           0.140954            3.83555
     20       0.00000           0.248122            6.75174
     21       0.00000           0.248122            6.75174
     22       0.00000           0.254368            6.92170
     23       0.00000           0.257271            7.00071
     24       0.00000           0.257271            7.00071

  Current spin moment of the entire structure :
  | N = N_up - N_down :    0.00
  | S                 :    0.00
  | J                 :    1.00

  Highest occupied state (VBM) at     -6.11352914 eV
  | Occupation number:      1.00000000
  | Spin channel:        1

  Lowest unoccupied state (CBM) at    -4.77922767 eV
  | Occupation number:      0.00000000
  | Spin channel:        1

  Overall HOMO-LUMO gap:      1.33430148 eV.

  Total energy components:
  | Sum of eigenvalues            :        -352.73503291 Ha       -9598.40860722 eV
  | XC energy correction          :         -42.54326632 Ha       -1157.66117763 eV
  | XC potential correction       :          54.94440582 Ha        1495.11335284 eV
  | Free-atom electrostatic energy:        -283.12735504 Ha       -7704.28732040 eV
  | Hartree energy correction     :          -1.35578294 Ha         -36.89273080 eV
  | Entropy correction            :          -0.00000000 Ha          -0.00000000 eV
  | ---------------------------
  | Total energy                  :        -624.81703139 Ha      -17002.13648321 eV
  | Total energy, T -> 0          :        -624.81703139 Ha      -17002.13648321 eV  <-- do not rely on this value for anything but (periodic) metals
  | Electronic free energy        :        -624.81703139 Ha      -17002.13648321 eV

  Derived energy quantities:
  | Kinetic energy                :         627.36923849 Ha       17071.58557210 eV
  | Electrostatic energy          :       -1209.64300356 Ha      -32916.06087767 eV
  | Energy correction for multipole
  | error in Hartree potential    :          -0.00013810 Ha          -0.00375782 eV
  | Sum of eigenvalues per atom                           :       -4799.20430361 eV
  | Total energy (T->0) per atom                          :       -8501.06824160 eV  <-- do not rely on this value for anything but (periodic) metals
  | Electronic free energy per atom                       :       -8501.06824160 eV

  Self-consistency convergence accuracy:
  | Change of charge/spin density :  0.8288E-01  0.9125E-01
  | Change of sum of eigenvalues  :  0.3669E+02 eV
  | Change of total energy        :  0.3739E+00 eV

  End self-consistency iteration #     1       :  max(cpu_time)    wall_clock(cpu1)
  | Time for this iteration                    :        0.114 s           0.114 s
  | Charge density update                      :        0.017 s           0.017 s
  | Density mixing                             :        0.001 s           0.001 s
  | Hartree multipole update                   :        0.002 s           0.002 s
  | Hartree multipole summation                :        0.009 s           0.010 s
  | Integration                                :        0.022 s           0.022 s
  | Solution of K.-S. eqns.                    :        0.061 s           0.061 s
  | Total energy evaluation                    :        0.000 s           0.000 s

  Partial memory accounting:
  | Current value for overall tracked memory usage:
  |   Minimum:        0.065 MB (on task 0)
  |   Maximum:        0.065 MB (on task 0)
  |   Average:        0.065 MB
  | Peak value for overall tracked memory usage:
  |   Minimum:        0.444 MB (on task 0 after allocating wave)
  |   Maximum:        0.452 MB (on task 5 after allocating wave)
  |   Average:        0.447 MB
  | Largest tracked array allocation so far:
  |   Minimum:        0.216 MB (gradient_basis_wave on task 0)
  |   Maximum:        0.221 MB (gradient_basis_wave on task 5)
  |   Average:        0.218 MB
  Note:  These values currently only include a subset of arrays which are explicitly tracked.
  The "true" memory usage will be greater.
------------------------------------------------------------

------------------------------------------------------------
          Begin self-consistency iteration #    2

  Date     :  20190817, Time     :  153202.107
------------------------------------------------------------
  Evaluating new KS density.
  Integration grid: deviation in total charge (<rho> - N_e) =   7.105427E-15
  | <rho_up-rho_dn> = N_up-N_dn =      0.0000; <|rho_up-rho_dn|> =      1.0131
  Linear mixing of updated and previous charge densities.
  Renormalizing the density to the exact electron count on the 3D integration grid.
  | Formal number of electrons (from input files) :      28.0000000000
  | Integrated number of electrons on 3D grid     :      28.0000000000
  | Charge integration error                      :       0.0000000000
  | Normalization factor for density and gradient :       1.0000000000

  Evaluating partitioned Hartree potential by multipole expansion.
  | Original multipole sum: apparent total charge =   0.100851E-13
  | Sum of charges compensated after spline to logarithmic grids =  -0.898256E-05
  | Analytical far-field extrapolation by fixed multipoles:
  | Hartree multipole sum: apparent total charge =   0.100359E-13
  Summing up the Hartree potential.
  Time summed over all CPUs for potential: real work        0.067 s, elapsed        0.067 s
  | RMS charge density error from multipole expansion :   0.321714E-03

  Integrating Hamiltonian matrix: batch-based integration.
  Time summed over all CPUs for integration: real work        0.168 s, elapsed        0.174 s

  Updating Kohn-Sham eigenvalues, eigenvectors, occupation numbers, and Fermi level.
  Updating Kohn-Sham eigenvalues and eigenfunctions.
  Solving real generalised eigenvalue problem by standard LAPACK (fast)
  Updating Kohn-Sham eigenvalues and eigenfunctions.
  Solving real generalised eigenvalue problem by standard LAPACK (fast)
  Locally constrained DFT: Constraint on electron numbers not yet fulfilled.
  Entering inner self-consistency loop.

  Locally constrained DFT: Spin     1 converged after   125 iterations.
  Locally constrained DFT: Spin     2 converged after   114 iterations.
  |
  | Final constraint potentials in different subsystems:
  |   Region             Spin  1             Spin  2
  |        1    -2.4160774428 eV     0.5209786180 eV
  |        2     1.4861176696 eV     0.0002922436 eV
  |
  | Electron count in different subsystems:
  |   Region             Spin  1             Spin  2
  |        1        5.9999999952        4.9999999981
  |        2        8.0000000048        9.0000000019
  |
  | Final average constraint potential:
  |             0.0000000000 Ha             0.0000000006 eV.
  |
  | Overall Fermi level:
  |            -0.1941793159 Ha            -5.2838880281 eV.

  Current spin moment of the entire structure :
  | N = N_up - N_down :    0.00
  | S                 :    0.00
  | J                 :    1.00

  Highest occupied state (VBM) at     -5.85273361 eV
  | Occupation number:      1.00000000
  | Spin channel:        1

  Lowest unoccupied state (CBM) at    -4.63400663 eV
  | Occupation number:      0.00000000
  | Spin channel:        1

  Overall HOMO-LUMO gap:      1.21872699 eV.

  Checking to see if s.c.f. parameters should be adjusted.

  Total energy components:
  | Sum of eigenvalues            :        -352.33038159 Ha       -9587.39748445 eV
  | XC energy correction          :         -42.56281347 Ha       -1158.19308272 eV
  | XC potential correction       :          54.97017712 Ha        1495.81462560 eV
  | Free-atom electrostatic energy:        -283.12735504 Ha       -7704.28732040 eV
  | Hartree energy correction     :          -1.76478007 Ha         -48.02210892 eV
  | Entropy correction            :          -0.00000000 Ha          -0.00000000 eV
  | ---------------------------
  | Total energy                  :        -624.81515304 Ha      -17002.08537088 eV
  | Total energy, T -> 0          :        -624.81515304 Ha      -17002.08537088 eV  <-- do not rely on this value for anything but (periodic) metals
  | Electronic free energy        :        -624.81515304 Ha      -17002.08537088 eV

  Derived energy quantities:
  | Kinetic energy                :         627.43485620 Ha       17073.37112086 eV
  | Electrostatic energy          :       -1209.68719578 Ha      -32917.26340903 eV
  | Energy correction for multipole
  | error in Hartree potential    :          -0.00026655 Ha          -0.00725314 eV
  | Sum of eigenvalues per atom                           :       -4793.69874223 eV
  | Total energy (T->0) per atom                          :       -8501.04268544 eV  <-- do not rely on this value for anything but (periodic) metals
  | Electronic free energy per atom                       :       -8501.04268544 eV

  Self-consistency convergence accuracy:
  | Change of charge/spin density :  0.3400E-01  0.6120E-01
  | Change of sum of eigenvalues  :  0.1101E+02 eV
  | Change of total energy        :  0.5111E-01 eV

  End self-consistency iteration #     2       :  max(cpu_time)    wall_clock(cpu1)
  | Time for this iteration                    :        0.113 s           0.113 s
  | Charge density update                      :        0.016 s           0.016 s
  | Density mixing                             :        0.001 s           0.001 s
  | Hartree multipole update                   :        0.002 s           0.002 s
  | Hartree multipole summation                :        0.009 s           0.009 s
  | Integration                                :        0.022 s           0.022 s
  | Solution of K.-S. eqns.                    :        0.063 s           0.063 s
  | Total energy evaluation                    :        0.000 s           0.000 s

  Partial memory accounting:
  | Current value for overall tracked memory usage:
  |   Minimum:        0.065 MB (on task 0)
  |   Maximum:        0.065 MB (on task 0)
  |   Average:        0.065 MB
  | Peak value for overall tracked memory usage:
  |   Minimum:        0.444 MB (on task 0 after allocating wave)
  |   Maximum:        0.452 MB (on task 5 after allocating wave)
  |   Average:        0.447 MB
  | Largest tracked array allocation so far:
  |   Minimum:        0.216 MB (gradient_basis_wave on task 0)
  |   Maximum:        0.221 MB (gradient_basis_wave on task 5)
  |   Average:        0.218 MB
  Note:  These values currently only include a subset of arrays which are explicitly tracked.
  The "true" memory usage will be greater.
------------------------------------------------------------

------------------------------------------------------------
          Begin self-consistency iteration #    3

  Date     :  20190817, Time     :  153202.220
------------------------------------------------------------
  Evaluating new KS density.
  Integration grid: deviation in total charge (<rho> - N_e) =  -2.131628E-14
  | <rho_up-rho_dn> = N_up-N_dn =     -0.0000; <|rho_up-rho_dn|> =      1.0357
  Linear mixing of updated and previous charge densities.
  Renormalizing the density to the exact electron count on the 3D integration grid.
  | Formal number of electrons (from input files) :      28.0000000000
  | Integrated number of electrons on 3D grid     :      28.0000000000
  | Charge integration error                      :       0.0000000000
  | Normalization factor for density and gradient :       1.0000000000

  Evaluating partitioned Hartree potential by multipole expansion.
  | Original multipole sum: apparent total charge =   0.910854E-13
  | Sum of charges compensated after spline to logarithmic grids =  -0.842001E-05
  | Analytical far-field extrapolation by fixed multipoles:
  | Hartree multipole sum: apparent total charge =   0.913806E-13
  Summing up the Hartree potential.
  Time summed over all CPUs for potential: real work        0.066 s, elapsed        0.068 s
  | RMS charge density error from multipole expansion :   0.431714E-03

  Integrating Hamiltonian matrix: batch-based integration.
  Time summed over all CPUs for integration: real work        0.166 s, elapsed        0.172 s

  Updating Kohn-Sham eigenvalues, eigenvectors, occupation numbers, and Fermi level.
  Updating Kohn-Sham eigenvalues and eigenfunctions.
  Solving real generalised eigenvalue problem by standard LAPACK (fast)
  Updating Kohn-Sham eigenvalues and eigenfunctions.
  Solving real generalised eigenvalue problem by standard LAPACK (fast)
  Locally constrained DFT: Constraint on electron numbers not yet fulfilled.
  Entering inner self-consistency loop.

  Locally constrained DFT: Spin     1 converged after   188 iterations.
  Locally constrained DFT: Spin     2 converged after   110 iterations.
  |
  | Final constraint potentials in different subsystems:
  |   Region             Spin  1             Spin  2
  |        1    -2.3072152584 eV     0.4871258229 eV
  |        2     1.4876511275 eV    -0.0548385081 eV
  |
  | Electron count in different subsystems:
  |   Region             Spin  1             Spin  2
  |        1        6.0000000021        4.9999999944
  |        2        7.9999999979        9.0000000056
  |
  | Final average constraint potential:
  |            -0.0000000000 Ha            -0.0000000004 eV.
  |
  | Overall Fermi level:
  |            -0.1883334316 Ha            -5.1248134205 eV.

  Current spin moment of the entire structure :
  | N = N_up - N_down :    0.00
  | S                 :    0.00
  | J                 :    1.00

  Highest occupied state (VBM) at     -5.64586336 eV
  | Occupation number:      1.00000000
  | Spin channel:        1

  Lowest unoccupied state (CBM) at    -4.46508562 eV
  | Occupation number:      0.00000000
  | Spin channel:        1

  Overall HOMO-LUMO gap:      1.18077774 eV.

  Total energy components:
  | Sum of eigenvalues            :        -352.18519828 Ha       -9583.44684554 eV
  | XC energy correction          :         -42.56782288 Ha       -1158.32939562 eV
  | XC potential correction       :          54.97684098 Ha        1495.99595844 eV
  | Free-atom electrostatic energy:        -283.12735504 Ha       -7704.28732040 eV
  | Hartree energy correction     :          -1.91130748 Ha         -52.00932275 eV
  | Entropy correction            :          -0.00000000 Ha          -0.00000000 eV
  | ---------------------------
  | Total energy                  :        -624.81484269 Ha      -17002.07692586 eV
  | Total energy, T -> 0          :        -624.81484269 Ha      -17002.07692586 eV  <-- do not rely on this value for anything but (periodic) metals
  | Electronic free energy        :        -624.81484269 Ha      -17002.07692586 eV

  Derived energy quantities:
  | Kinetic energy                :         627.40256147 Ha       17072.49233633 eV
  | Electrostatic energy          :       -1209.64958128 Ha      -32916.23986657 eV
  | Energy correction for multipole
  | error in Hartree potential    :          -0.00038067 Ha          -0.01035844 eV
  | Sum of eigenvalues per atom                           :       -4791.72342277 eV
  | Total energy (T->0) per atom                          :       -8501.03846293 eV  <-- do not rely on this value for anything but (periodic) metals
  | Electronic free energy per atom                       :       -8501.03846293 eV

  Self-consistency convergence accuracy:
  | Change of charge/spin density :  0.2431E-01  0.4259E-01
  | Change of sum of eigenvalues  :  0.3951E+01 eV
  | Change of total energy        :  0.8445E-02 eV

  End self-consistency iteration #     3       :  max(cpu_time)    wall_clock(cpu1)
  | Time for this iteration                    :        0.126 s           0.127 s
  | Charge density update                      :        0.015 s           0.015 s
  | Density mixing                             :        0.002 s           0.002 s
  | Hartree multipole update                   :        0.002 s           0.002 s
  | Hartree multipole summation                :        0.009 s           0.009 s
  | Integration                                :        0.022 s           0.021 s
  | Solution of K.-S. eqns.                    :        0.077 s           0.077 s
  | Total energy evaluation                    :        0.000 s           0.000 s

  Partial memory accounting:
  | Current value for overall tracked memory usage:
  |   Minimum:        0.065 MB (on task 0)
  |   Maximum:        0.065 MB (on task 0)
  |   Average:        0.065 MB
  | Peak value for overall tracked memory usage:
  |   Minimum:        0.444 MB (on task 0 after allocating wave)
  |   Maximum:        0.452 MB (on task 5 after allocating wave)
  |   Average:        0.447 MB
  | Largest tracked array allocation so far:
  |   Minimum:        0.216 MB (gradient_basis_wave on task 0)
  |   Maximum:        0.221 MB (gradient_basis_wave on task 5)
  |   Average:        0.218 MB
  Note:  These values currently only include a subset of arrays which are explicitly tracked.
  The "true" memory usage will be greater.
------------------------------------------------------------

------------------------------------------------------------
          Begin self-consistency iteration #    4

  Date     :  20190817, Time     :  153202.347
------------------------------------------------------------
  Evaluating new KS density.
  Integration grid: deviation in total charge (<rho> - N_e) =  -1.740830E-13
  | <rho_up-rho_dn> = N_up-N_dn =     -0.0000; <|rho_up-rho_dn|> =      1.0421
  Linear mixing of updated and previous charge densities.
  Renormalizing the density to the exact electron count on the 3D integration grid.
  | Formal number of electrons (from input files) :      28.0000000000
  | Integrated number of electrons on 3D grid     :      28.0000000000
  | Charge integration error                      :      -0.0000000000
  | Normalization factor for density and gradient :       1.0000000000

  Evaluating partitioned Hartree potential by multipole expansion.
  | Original multipole sum: apparent total charge =   0.868792E-13
  | Sum of charges compensated after spline to logarithmic grids =  -0.802669E-05
  | Analytical far-field extrapolation by fixed multipoles:
  | Hartree multipole sum: apparent total charge =   0.867316E-13
  Summing up the Hartree potential.
  Time summed over all CPUs for potential: real work        0.068 s, elapsed        0.072 s
  | RMS charge density error from multipole expansion :   0.514040E-03

  Integrating Hamiltonian matrix: batch-based integration.
  Time summed over all CPUs for integration: real work        0.169 s, elapsed        0.175 s

  Updating Kohn-Sham eigenvalues, eigenvectors, occupation numbers, and Fermi level.
  Updating Kohn-Sham eigenvalues and eigenfunctions.
  Solving real generalised eigenvalue problem by standard LAPACK (fast)
  Updating Kohn-Sham eigenvalues and eigenfunctions.
  Solving real generalised eigenvalue problem by standard LAPACK (fast)
  Locally constrained DFT: Constraint on electron numbers not yet fulfilled.
  Entering inner self-consistency loop.

  Locally constrained DFT: Spin     1 converged after   279 iterations.
  Locally constrained DFT: Spin     2 converged after    99 iterations.
  |
  | Final constraint potentials in different subsystems:
  |   Region             Spin  1             Spin  2
  |        1    -2.2502579710 eV     0.4658010038 eV
  |        2     1.4948035692 eV    -0.0873206375 eV
  |
  | Electron count in different subsystems:
  |   Region             Spin  1             Spin  2
  |        1        6.0000000021        4.9999999980
  |        2        7.9999999979        9.0000000020
  |
  | Final average constraint potential:
  |            -0.0000000000 Ha            -0.0000000003 eV.
  |
  | Overall Fermi level:
  |            -0.1848599915 Ha            -5.0302963081 eV.

  Current spin moment of the entire structure :
  | N = N_up - N_down :    0.00
  | S                 :    0.00
  | J                 :    1.00

  Highest occupied state (VBM) at     -5.53308635 eV
  | Occupation number:      1.00000000
  | Spin channel:        1

  Lowest unoccupied state (CBM) at    -4.36486290 eV
  | Occupation number:      0.00000000
  | Spin channel:        1

  Overall HOMO-LUMO gap:      1.16822345 eV.

  Total energy components:
  | Sum of eigenvalues            :        -352.12606423 Ha       -9581.83772614 eV
  | XC energy correction          :         -42.56888288 Ha       -1158.35823983 eV
  | XC potential correction       :          54.97830460 Ha        1496.03578564 eV
  | Free-atom electrostatic energy:        -283.12735504 Ha       -7704.28732040 eV
  | Hartree energy correction     :          -1.97079830 Ha         -53.62815024 eV
  | Entropy correction            :          -0.00000000 Ha          -0.00000000 eV
  | ---------------------------
  | Total energy                  :        -624.81479584 Ha      -17002.07565097 eV
  | Total energy, T -> 0          :        -624.81479584 Ha      -17002.07565097 eV  <-- do not rely on this value for anything but (periodic) metals
  | Electronic free energy        :        -624.81479584 Ha      -17002.07565097 eV

  Derived energy quantities:
  | Kinetic energy                :         627.35905164 Ha       17071.30837385 eV
  | Electrostatic energy          :       -1209.60496461 Ha      -32915.02578498 eV
  | Energy correction for multipole
  | error in Hartree potential    :          -0.00046690 Ha          -0.01270501 eV
  | Sum of eigenvalues per atom                           :       -4790.91886307 eV
  | Total energy (T->0) per atom                          :       -8501.03782548 eV  <-- do not rely on this value for anything but (periodic) metals
  | Electronic free energy per atom                       :       -8501.03782548 eV

  Self-consistency convergence accuracy:
  | Change of charge/spin density :  0.1819E-01  0.3045E-01
  | Change of sum of eigenvalues  :  0.1609E+01 eV
  | Change of total energy        :  0.1275E-02 eV

  End self-consistency iteration #     4       :  max(cpu_time)    wall_clock(cpu1)
  | Time for this iteration                    :        0.150 s           0.150 s
  | Charge density update                      :        0.015 s           0.015 s
  | Density mixing                             :        0.002 s           0.002 s
  | Hartree multipole update                   :        0.002 s           0.002 s
  | Hartree multipole summation                :        0.009 s           0.009 s
  | Integration                                :        0.022 s           0.022 s
  | Solution of K.-S. eqns.                    :        0.099 s           0.099 s
  | Total energy evaluation                    :        0.000 s           0.000 s

  Partial memory accounting:
  | Current value for overall tracked memory usage:
  |   Minimum:        0.065 MB (on task 0)
  |   Maximum:        0.065 MB (on task 0)
  |   Average:        0.065 MB
  | Peak value for overall tracked memory usage:
  |   Minimum:        0.444 MB (on task 0 after allocating wave)
  |   Maximum:        0.452 MB (on task 5 after allocating wave)
  |   Average:        0.447 MB
  | Largest tracked array allocation so far:
  |   Minimum:        0.216 MB (gradient_basis_wave on task 0)
  |   Maximum:        0.221 MB (gradient_basis_wave on task 5)
  |   Average:        0.218 MB
  Note:  These values currently only include a subset of arrays which are explicitly tracked.
  The "true" memory usage will be greater.
------------------------------------------------------------

------------------------------------------------------------
          Begin self-consistency iteration #    5

  Date     :  20190817, Time     :  153202.497
------------------------------------------------------------
  Evaluating new KS density.
  Integration grid: deviation in total charge (<rho> - N_e) =  -1.161737E-12
  | <rho_up-rho_dn> = N_up-N_dn =     -0.0000; <|rho_up-rho_dn|> =      1.0435
  Linear mixing of updated and previous charge densities.
  Renormalizing the density to the exact electron count on the 3D integration grid.
  | Formal number of electrons (from input files) :      28.0000000000
  | Integrated number of electrons on 3D grid     :      28.0000000000
  | Charge integration error                      :      -0.0000000000
  | Normalization factor for density and gradient :       1.0000000000

  Evaluating partitioned Hartree potential by multipole expansion.
  | Original multipole sum: apparent total charge =   0.661679E-13
  | Sum of charges compensated after spline to logarithmic grids =  -0.775073E-05
  | Analytical far-field extrapolation by fixed multipoles:
  | Hartree multipole sum: apparent total charge =   0.664139E-13
  Summing up the Hartree potential.
  Time summed over all CPUs for potential: real work        0.068 s, elapsed        0.072 s
  | RMS charge density error from multipole expansion :   0.573129E-03

  Integrating Hamiltonian matrix: batch-based integration.
  Time summed over all CPUs for integration: real work        0.171 s, elapsed        0.175 s

  Updating Kohn-Sham eigenvalues, eigenvectors, occupation numbers, and Fermi level.
  Updating Kohn-Sham eigenvalues and eigenfunctions.
  Solving real generalised eigenvalue problem by standard LAPACK (fast)
  Updating Kohn-Sham eigenvalues and eigenfunctions.
  Solving real generalised eigenvalue problem by standard LAPACK (fast)
  Locally constrained DFT: Constraint on electron numbers not yet fulfilled.
  Entering inner self-consistency loop.

  Locally constrained DFT: Spin     1 converged after    72 iterations.
  Locally constrained DFT: Spin     2 converged after    98 iterations.
  |
  | Final constraint potentials in different subsystems:
  |   Region             Spin  1             Spin  2
  |        1    -2.2178502843 eV     0.4530063110 eV
  |        2     1.5001982865 eV    -0.1066129027 eV
  |
  | Electron count in different subsystems:
  |   Region             Spin  1             Spin  2
  |        1        6.0000000039        4.9999999967
  |        2        7.9999999961        9.0000000033
  |
  | Final average constraint potential:
  |            -0.0000000000 Ha            -0.0000000006 eV.
  |
  | Overall Fermi level:
  |            -0.1826497094 Ha            -4.9701514718 eV.

  Current spin moment of the entire structure :
  | N = N_up - N_down :    0.00
  | S                 :    0.00
  | J                 :    1.00

  Highest occupied state (VBM) at     -5.46607141 eV
  | Occupation number:      1.00000000
  | Spin channel:        1

  Lowest unoccupied state (CBM) at    -4.30187308 eV
  | Occupation number:      0.00000000
  | Spin channel:        1

  Overall HOMO-LUMO gap:      1.16419833 eV.

  Total energy components:
  | Sum of eigenvalues            :        -352.09715399 Ha       -9581.05103845 eV
  | XC energy correction          :         -42.56902339 Ha       -1158.36206338 eV
  | XC potential correction       :          54.97854691 Ha        1496.04237912 eV
  | Free-atom electrostatic energy:        -283.12735504 Ha       -7704.28732040 eV
  | Hartree energy correction     :          -1.99981579 Ha         -54.41775652 eV
  | Entropy correction            :          -0.00000000 Ha          -0.00000000 eV
  | ---------------------------
  | Total energy                  :        -624.81480131 Ha      -17002.07579962 eV
  | Total energy, T -> 0          :        -624.81480131 Ha      -17002.07579962 eV  <-- do not rely on this value for anything but (periodic) metals
  | Electronic free energy        :        -624.81480131 Ha      -17002.07579962 eV

  Derived energy quantities:
  | Kinetic energy                :         627.32426098 Ha       17070.36167158 eV
  | Electrostatic energy          :       -1209.57003889 Ha      -32914.07540782 eV
  | Energy correction for multipole
  | error in Hartree potential    :          -0.00052848 Ha          -0.01438067 eV
  | Sum of eigenvalues per atom                           :       -4790.52551923 eV
  | Total energy (T->0) per atom                          :       -8501.03789981 eV  <-- do not rely on this value for anything but (periodic) metals
  | Electronic free energy per atom                       :       -8501.03789981 eV

  Self-consistency convergence accuracy:
  | Change of charge/spin density :  0.1300E-01  0.2207E-01
  | Change of sum of eigenvalues  :  0.7867E+00 eV
  | Change of total energy        : -0.1487E-03 eV

  End self-consistency iteration #     5       :  max(cpu_time)    wall_clock(cpu1)
  | Time for this iteration                    :        0.097 s           0.098 s
  | Charge density update                      :        0.016 s           0.016 s
  | Density mixing                             :        0.001 s           0.002 s
  | Hartree multipole update                   :        0.002 s           0.002 s
  | Hartree multipole summation                :        0.009 s           0.009 s
  | Integration                                :        0.022 s           0.023 s
  | Solution of K.-S. eqns.                    :        0.046 s           0.045 s
  | Total energy evaluation                    :        0.000 s           0.001 s

  Partial memory accounting:
  | Current value for overall tracked memory usage:
  |   Minimum:        0.065 MB (on task 0)
  |   Maximum:        0.065 MB (on task 0)
  |   Average:        0.065 MB
  | Peak value for overall tracked memory usage:
  |   Minimum:        0.444 MB (on task 0 after allocating wave)
  |   Maximum:        0.452 MB (on task 5 after allocating wave)
  |   Average:        0.447 MB
  | Largest tracked array allocation so far:
  |   Minimum:        0.216 MB (gradient_basis_wave on task 0)
  |   Maximum:        0.221 MB (gradient_basis_wave on task 5)
  |   Average:        0.218 MB
  Note:  These values currently only include a subset of arrays which are explicitly tracked.
  The "true" memory usage will be greater.
------------------------------------------------------------

------------------------------------------------------------
          Begin self-consistency iteration #    6

  Date     :  20190817, Time     :  153202.595
------------------------------------------------------------
  Evaluating new KS density.
  Integration grid: deviation in total charge (<rho> - N_e) =  -2.316369E-12
  | <rho_up-rho_dn> = N_up-N_dn =     -0.0000; <|rho_up-rho_dn|> =      1.0435
  Linear mixing of updated and previous charge densities.
  Renormalizing the density to the exact electron count on the 3D integration grid.
  | Formal number of electrons (from input files) :      28.0000000000
  | Integrated number of electrons on 3D grid     :      28.0000000000
  | Charge integration error                      :      -0.0000000000
  | Normalization factor for density and gradient :       1.0000000000

  Evaluating partitioned Hartree potential by multipole expansion.
  | Original multipole sum: apparent total charge =  -0.531311E-14
  | Sum of charges compensated after spline to logarithmic grids =  -0.755679E-05
  | Analytical far-field extrapolation by fixed multipoles:
  | Hartree multipole sum: apparent total charge =  -0.496874E-14
  Summing up the Hartree potential.
  Time summed over all CPUs for potential: real work        0.068 s, elapsed        0.069 s
  | RMS charge density error from multipole expansion :   0.614814E-03

  Integrating Hamiltonian matrix: batch-based integration.
  Time summed over all CPUs for integration: real work        0.172 s, elapsed        0.179 s

  Updating Kohn-Sham eigenvalues, eigenvectors, occupation numbers, and Fermi level.
  Updating Kohn-Sham eigenvalues and eigenfunctions.
  Solving real generalised eigenvalue problem by standard LAPACK (fast)
  Updating Kohn-Sham eigenvalues and eigenfunctions.
  Solving real generalised eigenvalue problem by standard LAPACK (fast)
  Locally constrained DFT: Constraint on electron numbers not yet fulfilled.
  Entering inner self-consistency loop.

  Locally constrained DFT: Spin     1 converged after   102 iterations.
  Locally constrained DFT: Spin     2 converged after   123 iterations.
  |
  | Final constraint potentials in different subsystems:
  |   Region             Spin  1             Spin  2
  |        1    -2.1978426244 eV     0.4449263930 eV
  |        2     1.5038570755 eV    -0.1187147592 eV
  |
  | Electron count in different subsystems:
  |   Region             Spin  1             Spin  2
  |        1        5.9999999970        4.9999999988
  |        2        8.0000000030        9.0000000012
  |
  | Final average constraint potential:
  |             0.0000000000 Ha             0.0000000004 eV.
  |
  | Overall Fermi level:
  |            -0.1811753464 Ha            -4.9300320130 eV.

[...]
  Pulay mixing of updated and previous charge densities.
  Renormalizing the density to the exact electron count on the 3D integration grid.
  | Formal number of electrons (from input files) :      28.0000000000
  | Integrated number of electrons on 3D grid     :      28.0000000000
  | Charge integration error                      :      -0.0000000000
  | Normalization factor for density and gradient :       1.0000000000

  Evaluating partitioned Hartree potential by multipole expansion.
  | Original multipole sum: apparent total charge =   0.101146E-12
  | Sum of charges compensated after spline to logarithmic grids =  -0.709272E-05
  | Analytical far-field extrapolation by fixed multipoles:
  | Hartree multipole sum: apparent total charge =   0.102277E-12
  Summing up the Hartree potential.
  Time summed over all CPUs for potential: real work        0.067 s, elapsed        0.068 s
  | RMS charge density error from multipole expansion :   0.711031E-03

  Integrating Hamiltonian matrix: batch-based integration.
  Time summed over all CPUs for integration: real work        0.174 s, elapsed        0.192 s

  Updating Kohn-Sham eigenvalues, eigenvectors, occupation numbers, and Fermi level.
  Updating Kohn-Sham eigenvalues and eigenfunctions.
  Solving real generalised eigenvalue problem by standard LAPACK (fast)
  Updating Kohn-Sham eigenvalues and eigenfunctions.
  Solving real generalised eigenvalue problem by standard LAPACK (fast)
  Locally constrained DFT: Constraint on electron numbers not yet fulfilled.
  Entering inner self-consistency loop.

  Locally constrained DFT: Spin     1 converged after    41 iterations.
  Locally constrained DFT: Spin     2 converged after    10 iterations.
  |
  | Final constraint potentials in different subsystems:
  |   Region             Spin  1             Spin  2
  |        1    -2.1577916462 eV     0.4275393059 eV
  |        2     1.5118661069 eV    -0.1428750565 eV
  |
  | Electron count in different subsystems:
  |   Region             Spin  1             Spin  2
  |        1        5.9999999992        4.9999999969
  |        2        8.0000000008        9.0000000031
  |
  | Final average constraint potential:
  |             0.0000000000 Ha             0.0000000000 eV.
  |
  | Overall Fermi level:
  |            -0.1779000722 Ha            -4.8409072681 eV.

  Current spin moment of the entire structure :
  | N = N_up - N_down :    0.00
  | S                 :    0.00
  | J                 :    1.00

  Highest occupied state (VBM) at     -5.34115219 eV
  | Occupation number:      1.00000000
  | Spin channel:        1

  Lowest unoccupied state (CBM) at    -4.16319259 eV
  | Occupation number:      0.00000000
  | Spin channel:        1

  Overall HOMO-LUMO gap:      1.17795959 eV.

  Total energy components:
  | Sum of eigenvalues            :        -352.04653951 Ha       -9579.67374862 eV
  | XC energy correction          :         -42.56924794 Ha       -1158.36817359 eV
  | XC potential correction       :          54.97897434 Ha        1496.05401010 eV
  | Free-atom electrostatic energy:        -283.12735504 Ha       -7704.28732040 eV
  | Hartree energy correction     :          -2.05068390 Ha         -55.80194812 eV
  | Entropy correction            :          -0.00000000 Ha          -0.00000000 eV
  | ---------------------------
  | Total energy                  :        -624.81485206 Ha      -17002.07718062 eV
  | Total energy, T -> 0          :        -624.81485206 Ha      -17002.07718062 eV  <-- do not rely on this value for anything but (periodic) metals
  | Electronic free energy        :        -624.81485206 Ha      -17002.07718062 eV

  Derived energy quantities:
  | Kinetic energy                :         627.25310865 Ha       17068.42551829 eV
  | Electrostatic energy          :       -1209.49871277 Ha      -32912.13452532 eV
  | Energy correction for multipole
  | error in Hartree potential    :          -0.00066733 Ha          -0.01815908 eV
  | Sum of eigenvalues per atom                           :       -4789.83687431 eV
  | Total energy (T->0) per atom                          :       -8501.03859031 eV  <-- do not rely on this value for anything but (periodic) metals
  | Electronic free energy per atom                       :       -8501.03859031 eV

  Self-consistency convergence accuracy:
  | Change of charge/spin density :  0.1268E-06  0.1587E-06
  | Change of sum of eigenvalues  : -0.5994E-04 eV
  | Change of total energy        :  0.1696E-07 eV

  Writing Kohn-Sham eigenvalues.

  Spin-up eigenvalues:

  State    Occupation    Eigenvalue [Ha]    Eigenvalue [eV]
      1       1.00000        -101.297689        -2756.45036
      2       1.00000         -38.093949        -1036.58909
      3       1.00000          -9.140224         -248.71814
      4       1.00000          -6.895406         -187.63355
      5       1.00000          -6.892413         -187.55211
      6       1.00000          -6.892413         -187.55211
      7       1.00000          -2.152931          -58.58422
      8       1.00000          -1.121567          -30.51940
      9       1.00000          -1.120348          -30.48623
     10       1.00000          -1.120348          -30.48623
     11       1.00000          -0.639677          -17.40651
     12       1.00000          -0.227897           -6.20138
     13       1.00000          -0.196284           -5.34115
     14       1.00000          -0.196284           -5.34115
     15       0.00000          -0.152995           -4.16319
     16       0.00000          -0.062391           -1.69774
     17       0.00000          -0.062391           -1.69774
     18       0.00000          -0.034190           -0.93036
     19       0.00000           0.020517            0.55829
     20       0.00000           0.261687            7.12087
     21       0.00000           0.261687            7.12087
     22       0.00000           0.269850            7.34299
     23       0.00000           0.269850            7.34299
     24       0.00000           0.314551            8.55938

  Spin-down eigenvalues:

  State    Occupation    Eigenvalue [Ha]    Eigenvalue [eV]
      1       1.00000        -101.360934        -2758.17136
      2       1.00000         -37.997690        -1033.96976
      3       1.00000          -9.203048         -250.42769
      4       1.00000          -6.960977         -189.41782
      5       1.00000          -6.955435         -189.26703
      6       1.00000          -6.955435         -189.26703
      7       1.00000          -2.054877          -55.91605
      8       1.00000          -1.023532          -27.85172
      9       1.00000          -1.022447          -27.82220
     10       1.00000          -1.022447          -27.82220
     11       1.00000          -0.702893          -19.12669
     12       1.00000          -0.281427           -7.65801
     13       1.00000          -0.258983           -7.04728
     14       1.00000          -0.258983           -7.04728
     15       0.00000          -0.040258           -1.09546
     16       0.00000           0.053689            1.46096
     17       0.00000           0.053689            1.46096
     18       0.00000           0.084425            2.29733
     19       0.00000           0.139358            3.79213
     20       0.00000           0.276941            7.53595
     21       0.00000           0.276941            7.53595
     22       0.00000           0.279745            7.61224
     23       0.00000           0.293875            7.99675
     24       0.00000           0.293875            7.99675

  Current spin moment of the entire structure :
  | N = N_up - N_down :    0.00
  | S                 :    0.00
  | J                 :    1.00

  Highest occupied state (VBM) at     -5.34115219 eV
  | Occupation number:      1.00000000
  | Spin channel:        1

  Lowest unoccupied state (CBM) at    -4.16319259 eV
  | Occupation number:      0.00000000
  | Spin channel:        1

  Overall HOMO-LUMO gap:      1.17795959 eV.

  Self-consistency cycle converged.

  End self-consistency iteration #    18       :  max(cpu_time)    wall_clock(cpu1)
  | Time for this iteration                    :        0.069 s           0.070 s
  | Charge density update                      :        0.015 s           0.016 s
  | Density mixing                             :        0.003 s           0.003 s
  | Hartree multipole update                   :        0.002 s           0.002 s
  | Hartree multipole summation                :        0.009 s           0.009 s
  | Integration                                :        0.024 s           0.024 s
  | Solution of K.-S. eqns.                    :        0.014 s           0.015 s
  | Total energy evaluation                    :        0.000 s           0.000 s

  Partial memory accounting:
  | Current value for overall tracked memory usage:
  |   Minimum:        0.066 MB (on task 0)
  |   Maximum:        0.066 MB (on task 0)
  |   Average:        0.066 MB
  | Peak value for overall tracked memory usage:
  |   Minimum:        0.445 MB (on task 0 after allocating wave)
  |   Maximum:        0.453 MB (on task 5 after allocating wave)
  |   Average:        0.448 MB
  | Largest tracked array allocation so far:
  |   Minimum:        0.216 MB (gradient_basis_wave on task 0)
  |   Maximum:        0.221 MB (gradient_basis_wave on task 5)
  |   Average:        0.218 MB
  Note:  These values currently only include a subset of arrays which are explicitly tracked.
  The "true" memory usage will be greater.
------------------------------------------------------------
  Obtaining max. number of non-zero basis functions in each batch .
  Evaluating KS electron density on previously omitted grid points.

  Energy and forces in a compact form:
  | Total energy uncorrected      :         -0.170020771806176E+05 eV
  | Total energy corrected        :         -0.170020771806176E+05 eV  <-- do not rely on this value for anything but (periodic) metals
  | Electronic free energy        :         -0.170020771806176E+05 eV

  ------------------------------------ 
  Start decomposition of the XC Energy 
  ------------------------------------ 
  X and C from original XC functional choice 
  Hartree-Fock Energy :          0.000000000 Ha              0.000000000 eV
  X Energy            :        -41.531417782 Ha          -1130.127378098 eV
  C Energy            :         -1.037830158 Ha            -28.240795489 eV
  Total XC Energy     :        -42.569247941 Ha          -1158.368173586 eV
  ------------------------------------ 
  LDA X and C from self-consistent density 
  X Energy LDA        :        -38.373045212 Ha          -1044.183687691 eV
  C Energy LDA        :         -2.147348729 Ha            -58.432331915 eV
  ------------------------------------ 
  End decomposition of the XC Energy 
  ------------------------------------ 

------------------------------------------------------------

  ------------------------------------------------------------
                   Starting Mulliken Analysis
  ------------------------------------------------------------

  Performing Mulliken charge analysis on all atoms.
  Full analysis will be written to separate file 'Mulliken.out'.
  Summary of the per-atom charge analysis:
  |
  |  atom       electrons          charge             l=0             l=1             l=2             l=3             l=4
  |     1       11.000000        0.000000        4.523152        6.372821        0.104027
  |     2       17.000000       -0.000000        5.789958       11.208970        0.001908       -0.000194       -0.000642
  |
  | Total       28.000000        0.000000
 
  Summary of the per-atom spin analysis:
  |
  |  atom   spin      l=0         l=1         l=2         l=3         l=4
  |     1    1.000000    0.524535    0.383265    0.092201
  |     2   -1.000000   -0.242854   -0.746176   -0.006829   -0.002486   -0.001654
  |
  | Total   -0.000000
 
  Writing Mulliken decomposition to disk ...

  Mulliken analysis                                       :  max(cpu_time)    wall_clock(cpu1)
  | Time for Mulliken analysis                            :          0.002               0.003
  | Total time for Mulliken analysis                      :          0.002               0.003
------------------------------------------------------------
  Performing Hirshfeld analysis of fragment charges and moments.
  ----------------------------------------------------------------------
  | Atom     1: Na
  |   Hirshfeld charge        :      0.29931289
  |   Free atom volume        :    121.25248376
  |   Hirshfeld volume        :     65.02868021
  |   Hirshfeld spin moment   :      0.41070968
  |   Hirshfeld dipole vector :     -0.00000000       0.00000000      -0.45695555
  |   Hirshfeld dipole moment :      0.45695555
  |   Hirshfeld second moments:      0.86392696       0.00000000       0.00000000
  |                                  0.00000000       0.86392696       0.00000000
  |                                  0.00000000       0.00000000       0.71220110
  ----------------------------------------------------------------------
  | Atom     2: Cl
  |   Hirshfeld charge        :     -0.29933041
  |   Free atom volume        :     66.21538256
  |   Hirshfeld volume        :     71.06167196
  |   Hirshfeld spin moment   :     -0.41070875
  |   Hirshfeld dipole vector :      0.00000000       0.00000000       0.12129341
  |   Hirshfeld dipole moment :      0.12129341
  |   Hirshfeld second moments:     -0.19422313       0.00000000       0.00000000
  |                                  0.00000000      -0.19422313       0.00000000
  |                                  0.00000000       0.00000000      -0.12515783
  ----------------------------------------------------------------------

  |------------------------------------------------------
  | Final ELSI Output
  |------------------------------------------------------
  |
  | Physical Properties
  |   Number of electrons       :        0.28000000E+02
  |   Number of states          :                    24
  |
  | Matrix Properties
  |   Matrix format             :           BLACS_DENSE
  |   Number of basis functions :                    49
  |
  | Computational Details
  |   Parallel mode             :           SINGLE_PROC
  |   Solver requested          :                LAPACK
  |   Number of ELSI calls      :                     0
  |
  |------------------------------------------------------
  | ELSI Project (c)  elsi-interchange.org
  |------------------------------------------------------

------------------------------------------------------------------------------
  Final output of selected total energy values:

  The following output summarizes some interesting total energy values
  at the end of a run (AFTER all relaxation, molecular dynamics, etc.).

  | Total energy of the DFT / Hartree-Fock s.c.f. calculation      :         -17002.077180618 eV
  | Final zero-broadening corrected energy (caution - metals only) :         -17002.077180618 eV
  | For reference only, the value of 1 Hartree used in FHI-aims is :             27.211384500 eV

  Before relying on these values, please be sure to understand exactly which
  total energy value is referred to by a given number. Different objects may
  all carry the same name 'total energy'. Definitions:

  Total energy of the DFT / Hartree-Fock s.c.f. calculation:
  | Note that this energy does not include ANY quantities calculated after the
  | s.c.f. cycle, in particular not ANY RPA, MP2, etc. many-body perturbation terms.

  Final zero-broadening corrected energy:
  | For metallic systems only, a broadening of the occupation numbers at the Fermi
  | level can be extrapolated back to zero broadening by an electron-gas inspired
  | formula. For all systems that are not real metals, this value can be
  | meaningless and should be avoided.

------------------------------------------------------------------------------
  Methods described in the following list of references were used in this FHI-aims run.
  If you publish the results, please make sure to cite these reference if they apply.
  FHI-aims is an academic code, and for our developers (often, Ph.D. students
  and postdocs), scientific credit in the community is essential.
  Thank you for helping us!

  For any use of FHI-aims, please cite:

    Volker Blum, Ralf Gehrke, Felix Hanke, Paula Havu, Ville Havu,
    Xinguo Ren, Karsten Reuter, and Matthias Scheffler
    'Ab initio molecular simulations with numeric atom-centered orbitals'
    Computer Physics Communications 180, 2175-2196 (2009)
    http://dx.doi.org/10.1016/j.cpc.2009.06.022


  For the real-space grid partitioning and parallelization used in this calculation, please cite:

    Ville Havu, Volker Blum, Paula Havu, and Matthias Scheffler,
    'Efficient O(N) integration for all-electron electronic structure calculation'
    'using numerically tabulated basis functions'
    Journal of Computational Physics 228, 8367-8379 (2009).
    http://dx.doi.org/10.1016/j.jcp.2009.08.008

  Of course, there are many other important community references, e.g., those cited in the
  above references. Our list is limited to references that describe implementations in the
  FHI-aims code. The reason is purely practical (length of this list) - please credit others as well.

------------------------------------------------------------
          Leaving FHI-aims.
          Date     :  20190817, Time     :  153203.916

          Computational steps:
          | Number of self-consistency cycles          :           18
          | Number of SCF (re)initializations          :            1

          Detailed time accounting                     :  max(cpu_time)    wall_clock(cpu1)
          | Total time                                 :        2.529 s           2.535 s
          | Preparation time                           :        0.408 s           0.408 s
          | Boundary condition initalization           :        0.000 s           0.000 s
          | Grid partitioning                          :        0.015 s           0.015 s
          | Preloading free-atom quantities on grid    :        0.013 s           0.012 s
          | Free-atom superposition energy             :        0.006 s           0.006 s
          | Total time for integrations                :        0.432 s           0.432 s
          | Total time for solution of K.-S. equations :        1.043 s           1.044 s
          | Total time for density update              :        0.281 s           0.282 s
          | Total time for mixing                      :        0.044 s           0.047 s
          | Total time for Hartree multipole update    :        0.041 s           0.038 s
          | Total time for Hartree multipole sum       :        0.161 s           0.162 s
          | Total time for total energy evaluation     :        0.003 s           0.002 s
          | Total time for scaled ZORA corrections     :        0.000 s           0.000 s
          | Total time for Mulliken analysis           :        0.002 s           0.003 s

          Partial memory accounting:
          | Residual value for overall tracked memory usage across tasks:     0.000000 MB (should be 0.000000 MB)
          | Peak values for overall tracked memory usage:
          |   Minimum:        0.445 MB (on task 0 after allocating wave)
          |   Maximum:        0.453 MB (on task 5 after allocating wave)
          |   Average:        0.448 MB
          | Largest tracked array allocation:
          |   Minimum:        0.216 MB (gradient_basis_wave on task 0)
          |   Maximum:        0.221 MB (gradient_basis_wave on task 5)
          |   Average:        0.218 MB
          Note:  These values currently only include a subset of arrays which are explicitly tracked.
          The "true" memory usage will be greater.

          Have a nice day.
------------------------------------------------------------
