  MPI-parallelism will be employed.
------------------------------------------------------------
          Invoking FHI-aims ...

          When using FHI-aims, please cite the following reference:

          Volker Blum, Ralf Gehrke, Felix Hanke, Paula Havu,
          Ville Havu, Xinguo Ren, Karsten Reuter, and Matthias Scheffler,
          'Ab Initio Molecular Simulations with Numeric Atom-Centered Orbitals',
          Computer Physics Communications 180, 2175-2196 (2009)

          For any questions about FHI-aims, please visit the aimsclub website
          with its forums and wiki. Contributions to both the forums and the
          wiki are warmly encouraged - they are for you, and everyone is welcome there.

------------------------------------------------------------



  Date     :  20190817, Time     :  153122.818
  Time zero on CPU 1             :   0.324810000000000E-01  s.
  Internal wall clock time zero  :           335287882.818  s.

  FHI-aims created a unique identifier for this run for later identification
  aims_uuid : 6E7DADE3-A1F4-4126-A15C-EAF82E29C1D4

  Build configuration of the current instance of FHI-aims
  -------------------------------------------------------
  FHI-aims version      : 190813
  Commit number         : 3da7baeb3
  CMake host system     : Linux-4.4.180-94.97-default
  CMake version         : 3.5.2
  Fortran compiler      : /mpcdf/soft/SLE_12_SP3/packages/x86_64/intel_parallel_studio/2018.4/compilers_and_libraries_2018.5.274/linux/mpi/bin64/mpiifort (Intel) version 18.0.5.20180823
  Fortran compiler flags: -O3 -ip -fp-model precise
  C compiler            : /mpcdf/soft/SLE_12_SP3/packages/skylake/intel/18.0.5/bin/icc (Intel) version 18.0.5.20180823
  C compiler flags      : -O3 -ip -fp-model precise
  Architecture          :
  Using MPI
  Using Scalapack
  Using C files
  Using SPGlib
  Using i-PI
  Linking against: /mpcdf/soft/SLE_12_SP3/packages/x86_64/anaconda/3.5.1.0/lib/libmkl_intel_lp64.so
                   /mpcdf/soft/SLE_12_SP3/packages/x86_64/anaconda/3.5.1.0/lib/libmkl_sequential.so
                   /mpcdf/soft/SLE_12_SP3/packages/x86_64/anaconda/3.5.1.0/lib/libmkl_core.so
                   /mpcdf/soft/SLE_12_SP3/packages/x86_64/anaconda/3.5.1.0/lib/libmkl_blacs_intelmpi_lp64.so
                   /mpcdf/soft/SLE_12_SP3/packages/x86_64/anaconda/3.5.1.0/lib/libmkl_scalapack_lp64.so

  Using        8 parallel tasks.
  Task        0 on host co1631 reporting.
  Task        1 on host co1631 reporting.
  Task        2 on host co1631 reporting.
  Task        3 on host co1631 reporting.
  Task        4 on host co1631 reporting.
  Task        5 on host co1631 reporting.
  Task        6 on host co1631 reporting.
  Task        7 on host co1631 reporting.

  Performing system and environment tests:
  | Environment variable OMP_NUM_THREADS correctly set to 1.
  | Maximum stacksize for task 0: unlimited
  | Maximum stacksize for task 1: unlimited
  | Maximum stacksize for task 2: unlimited
  | Maximum stacksize for task 3: unlimited
  | Maximum stacksize for task 4: unlimited
  | Maximum stacksize for task 5: unlimited
  | Maximum stacksize for task 6: unlimited
  | Maximum stacksize for task 7: unlimited
  | Current stacksize for task 0: unlimited
  | Current stacksize for task 1: unlimited
  | Current stacksize for task 2: unlimited
  | Current stacksize for task 3: unlimited
  | Current stacksize for task 4: unlimited
  | Current stacksize for task 5: unlimited
  | Current stacksize for task 6: unlimited
  | Current stacksize for task 7: unlimited
  | Checking for scalapack...
  | Testing pdtran()...
  | All pdtran() tests passed.

  Obtaining array dimensions for all initial allocations:
  
  -----------------------------------------------------------------------
  Parsing control.in (first pass over file, find array dimensions only).
  The contents of control.in will be repeated verbatim below
  unless switched off by setting 'verbatim_writeout .false.' .
  in the first line of control.in .
  -----------------------------------------------------------------------
  
  #
  # A test set up for M06-L, calculate forces and TPSS post-processing
  # This is designed to mimic the distributed test in the MFM package, v1.9, for the M06 functionals
  #------------------------------------------
    #
    #  Physical model settings
    #
      xc               m06-l
      charge           0
      spin             collinear
      fixed_spin_moment 1.0
      relativistic     none
  
      sc_accuracy_rho  1E-6
      sc_accuracy_eev  1E-6
      sc_accuracy_etot 1E-8
      sc_iter_limit    100
  
      compute_forces .true.
  
      total_energy_method tpss
  
  ################################################################################
  #
  #  FHI-aims code project
  #
  #  Suggested "6-31+G**" for H atom (to be pasted into control.in file)
  #
  ################################################################################
    species        H
  #     global species definitions
      nucleus             1
      mass                1.00794
  #
      l_hartree           6
  #
      cut_pot             4.0  2.0  1.0
      basis_dep_cutoff    0e-0
  #
      radial_base         24 7.0
      radial_multiplier   6
      angular_grids       specified
        division   0.1930   50
        division   0.3175  110
        division   0.4293  194
        division   0.5066  302
        division   0.5626  434
        division   0.5922  590
  #      division   0.6227  974
  #      division   0.6868 1202
        outer_grid  770
  #      outer_grid  434
  ################################################################################
  #
  #  Definition of "minimal" basis
  #
  ################################################################################
  #     valence basis states
      valence      1  s   1.
  #     ion occupancy
      ion_occ      1  s   0.5
  ################################################################################
  #
  #   For exact comparison with all GTO-based codes, one or more of
  #   the following flags are needed:
  #
      include_min_basis   .false.
  #    pure_gauss          .true.
  #
  # H 6-31+G**
   gaussian 0 3
        18.7311370            0.03349460
         2.8253937            0.23472695
         0.6401217            0.81375733
   gaussian 0 1 0.1612778
   gaussian 1 1 1.1000000
  
  
  ################################################################################
  #
  #  FHI-aims code project
  # Igor Ying Zhang and Xinguo Ren, Fritz Haber Institute Berlin, 2012
  #
  #  "6-31G**" for C atom (to be pasted into control.in file)
  #
  ################################################################################
    species        C
  #     global species definitions
      nucleus             6
      mass                12.0107
  #
      l_hartree           6
  #
      cut_pot             4.0  2.0  1.0
      basis_dep_cutoff    0e-0
  #
      radial_base         34 7.0
      radial_multiplier   6
      angular_grids       specified
        division   0.2187   50
        division   0.4416  110
        division   0.6335  194
        division   0.7727  302
        division   0.8772  434
        division   0.9334  590
  #      division   0.9924  770
  #      division   1.0230  974
  #      division   1.5020 1202
  #     outer_grid  974
        outer_grid  770
  #      outer_grid  434
  ################################################################################
  #
  #  Definition of "minimal" basis
  #
  ################################################################################
  #     valence basis states
      valence      2  s   2.
      valence      2  p   2.
  #     ion occupancy
      ion_occ      2  s   1.
      ion_occ      2  p   1.
  ################################################################################
  #
  #   For exact comparison with all GTO-based codes, one or more of
  #   the following flags are needed:
  #
      include_min_basis   .false.
  #    pure_gauss          .true.
  #
  
  
  # C 6-311PD_biggest
   gaussian 0 6
   3047.5249000              0.0018347
    457.3695100              0.0140373
    103.9486900              0.0688426
     29.2101550              0.2321844
      9.2866630              0.4679413
      3.1639270              0.3623120
   gaussian 0 3
      7.8682724             -0.1193324
      1.8812885             -0.1608542
      0.5442493              1.1434564
   gaussian 1 3
      7.8682724              0.0689991
      1.8812885              0.3164240
      0.5442493              0.7443083
   gaussian 0 1 0.1687144
   gaussian 1 1 0.1687144
   gaussian 0 1 0.0438000
   gaussian 1 1 0.0438000
   gaussian 2 1 0.8000000
  
  -----------------------------------------------------------------------
  Completed first pass over input file control.in .
  -----------------------------------------------------------------------
  
  
  -----------------------------------------------------------------------
  Parsing geometry.in (first pass over file, find array dimensions only).
  The contents of geometry.in will be repeated verbatim below
  unless switched off by setting 'verbatim_writeout .false.' .
  in the first line of geometry.in .
  -----------------------------------------------------------------------
  
  atom 0.000000 0.000000 0.000000 C
  initial_moment 1
  atom 0.000000 1.078000 0.000000 H
  atom 0.933000 -0.53900 0.000000 H
  atom -0.93300 -0.53900 0.000000 H
  
  -----------------------------------------------------------------------
  Completed first pass over input file geometry.in .
  -----------------------------------------------------------------------
  

  Basic array size parameters:
  | Number of species                 :        2
  | Number of atoms                   :        4
  | Max. basis fn. angular momentum   :        2
  | Max. atomic/ionic basis occupied n:        2
  | Max. number of basis fn. types    :        1
  | Max. radial fns per species/type  :        9
  | Max. logarithmic grid size        :     1277
  | Max. radial integration grid size :      209
  | Max. angular integration grid size:      770
  | Max. angular grid division number :        8
  | Radial grid for Hartree potential :     1277
  | Number of spin channels           :        2

------------------------------------------------------------
          Reading file control.in.
------------------------------------------------------------
  XC: Using M06-L gradient-corrected functionals.
  Charge =   0.000000E+00: Neutral system requested explicitly.
  Spin treatment: Spin density functional theory - collinear spins.
  Fixed spin moment calculation, N_up - N_down =      1.00000000
  Non-relativistic treatment of kinetic energy.
  Convergence accuracy of self-consistent charge density:  0.1000E-05
  Convergence accuracy of sum of eigenvalues:  0.1000E-05
  Convergence accuracy of total energy:  0.1000E-07
  Maximum number of s.-c. iterations  :   100
  Forces will be computed.
  Meta-gga TPSS energy calculation will be started after the DFT/HF calculation.
 
  Reading configuration options for species H                   .
  | Found nuclear charge :   1.0000
  | Found atomic mass :    1.00794000000000      amu
  | Found l_max for Hartree potential  :   6
  | Found cutoff potl. onset [A], width [A], scale factor :    4.00000    2.00000    1.00000
  | Threshold for basis-dependent cutoff potential is   0.000000E+00
  | Found data for basic radial integration grid :    24 points, outermost radius =    7.000 A
  | Found multiplier for basic radial grid :   6
  | Found angular grid specification: user-specified.
  | Specified grid contains     7 separate shells.
  | Check grid settings after all constraints further below.
  | Found free-atom valence shell :  1 s   1.000
  | No ionic wave fns used. Skipping ion_occ.
  | Found request to include minimal basis fns. :     F
  | Found contracted cartesian Gaussian basis function :  L = 0 ,   3 elementary Gaussians:
  |   alpha = 0.187311E+02 weight = 0.334946E-01
  |   alpha = 0.282539E+01 weight = 0.234727E+00
  |   alpha = 0.640122E+00 weight = 0.813757E+00
  |   In terms of angular momentum, this radial function adds: 
  |     1 s-type basis function
  | Found primitive cartesian Gaussian basis function :  0 0.161278E+00
  |   In terms of angular momentum, this radial function adds: 
  |     1 s-type basis function
  | Found primitive cartesian Gaussian basis function :  1 0.110000E+01
  |   In terms of angular momentum, this radial function adds: 
  |     3 p-type basis functions
  Species H                   : Missing cutoff potential type.
  Defaulting to exp(1/x)/(1-x)^2 type cutoff potential.
  Species H : No 'logarithmic' tag. Using default grid for free atom:
  | Default logarithmic grid data [bohr] : 0.1000E-03 0.1000E+03 0.1012E+01
  Species H : On-site basis accuracy parameter (for Gram-Schmidt orthonormalisation) not specified.
  Using default value basis_acc =  0.1000000E-03.
  Species H                   : Using default innermost maximum threshold i_radial=  2 for radial functions.
  Species H                   : Default cutoff onset for free atom density etc. : 0.40000000E+01 AA.
  * Species H                   : Warning - free-atom cutoff radius not yet verified for Gaussians.
  Species H                   : Basic radial grid will be enhanced according to radial_multiplier =   6, to contain   149 grid points.
 
  Reading configuration options for species C                   .
  | Found nuclear charge :   6.0000
  | Found atomic mass :    12.0107000000000      amu
  | Found l_max for Hartree potential  :   6
  | Found cutoff potl. onset [A], width [A], scale factor :    4.00000    2.00000    1.00000
  | Threshold for basis-dependent cutoff potential is   0.000000E+00
  | Found data for basic radial integration grid :    34 points, outermost radius =    7.000 A
  | Found multiplier for basic radial grid :   6
  | Found angular grid specification: user-specified.
  | Specified grid contains     7 separate shells.
  | Check grid settings after all constraints further below.
  | Found free-atom valence shell :  2 s   2.000
  | Found free-atom valence shell :  2 p   2.000
  | No ionic wave fns used. Skipping ion_occ.
  | No ionic wave fns used. Skipping ion_occ.
  | Found request to include minimal basis fns. :     F
  | Found contracted cartesian Gaussian basis function :  L = 0 ,   6 elementary Gaussians:
  |   alpha = 0.304752E+04 weight = 0.183470E-02
  |   alpha = 0.457370E+03 weight = 0.140373E-01
  |   alpha = 0.103949E+03 weight = 0.688426E-01
  |   alpha = 0.292102E+02 weight = 0.232184E+00
  |   alpha = 0.928666E+01 weight = 0.467941E+00
  |   alpha = 0.316393E+01 weight = 0.362312E+00
  |   In terms of angular momentum, this radial function adds: 
  |     1 s-type basis function
  | Found contracted cartesian Gaussian basis function :  L = 0 ,   3 elementary Gaussians:
  |   alpha = 0.786827E+01 weight = -.119332E+00
  |   alpha = 0.188129E+01 weight = -.160854E+00
  |   alpha = 0.544249E+00 weight = 0.114346E+01
  |   In terms of angular momentum, this radial function adds: 
  |     1 s-type basis function
  | Found contracted cartesian Gaussian basis function :  L = 1 ,   3 elementary Gaussians:
  |   alpha = 0.786827E+01 weight = 0.689991E-01
  |   alpha = 0.188129E+01 weight = 0.316424E+00
  |   alpha = 0.544249E+00 weight = 0.744308E+00
  |   In terms of angular momentum, this radial function adds: 
  |     3 p-type basis functions
  | Found primitive cartesian Gaussian basis function :  0 0.168714E+00
  |   In terms of angular momentum, this radial function adds: 
  |     1 s-type basis function
  | Found primitive cartesian Gaussian basis function :  1 0.168714E+00
  |   In terms of angular momentum, this radial function adds: 
  |     3 p-type basis functions
  | Found primitive cartesian Gaussian basis function :  0 0.438000E-01
  |   In terms of angular momentum, this radial function adds: 
  |     1 s-type basis function
  | Found primitive cartesian Gaussian basis function :  1 0.438000E-01
  |   In terms of angular momentum, this radial function adds: 
  |     3 p-type basis functions
  | Found primitive cartesian Gaussian basis function :  2 0.800000E+00
  |   In terms of angular momentum, this radial function adds: 
  |     5 d-type basis functions
  |     1 s-type basis function
  Species C                   : Missing cutoff potential type.
  Defaulting to exp(1/x)/(1-x)^2 type cutoff potential.
  Species C : No 'logarithmic' tag. Using default grid for free atom:
  | Default logarithmic grid data [bohr] : 0.1000E-03 0.1000E+03 0.1012E+01
  Species C : On-site basis accuracy parameter (for Gram-Schmidt orthonormalisation) not specified.
  Using default value basis_acc =  0.1000000E-03.
  Species C                   : Using default innermost maximum threshold i_radial=  2 for radial functions.
  Species C                   : Default cutoff onset for free atom density etc. : 0.40000000E+01 AA.
  * Species C                   : Warning - free-atom cutoff radius not yet verified for Gaussians.
  Species C                   : Basic radial grid will be enhanced according to radial_multiplier =   6, to contain   209 grid points.
 
  Finished reading input file 'control.in'. Consistency checks are next.
 
  MPI_IN_PLACE appears to work with this MPI implementation.
  | Keeping use_mpi_in_place .true. (see manual).
  Target number of points in a grid batch is not set. Defaulting to  100
  Method for grid partitioning is not set. Defaulting to parallel hash+maxmin partitioning.
  Batch size limit is not set. Defaulting to    200
  By default, will store active basis functions for each batch.
  If in need of memory, prune_basis_once .false. can be used to disable this option.
  communication_type for Hartree potential was not specified.
  Defaulting to calc_hartree .
  Defaulting to Pulay charge density mixer.
  Pulay mixer: Number of relevant iterations not set.
  Defaulting to    8 iterations.
  Pulay mixer: Number of initial linear mixing iterations not set.
  Defaulting to    0 iterations.
  Work space size for distributed Hartree potential not set.
  Defaulting to   0.200000E+03 MB.
  Mixing parameter for charge density mixing has not been set.
  Using default: charge_mix_param =     0.0500.
  The mixing parameter will be adjusted in iteration number     2 of the first full s.c.f. cycle only.
  Mixing parameter for spin density mixing has not been set.
  Using charge_mix_param as default:     0.0500.
  Algorithm-dependent basis array size parameters:
  | n_max_pulay                         :        8
  Presetting      1001 iterations before the initial mixing cycle
  is restarted anyway using the sc_init_iter criterion / keyword.
  Presetting a factor      1.000 between actual scf density residual
  and density convergence criterion sc_accuracy_rho below which sc_init_iter
  takes no effect.
  Geometry relaxation not requested: no relaxation will be performed.
  Force calculation: scf convergence accuracy of forces not set.
  Defaulting to 'sc_accuracy_forces not_checked'.
  Handling of forces: Unphysical translation and rotation will be removed from forces.
  No accuracy limit for integral partition fn. given. Defaulting to  0.1000E-14.
  No threshold value for u(r) in integrations given. Defaulting to  0.1000E-05.
  No occupation type (smearing scheme) given. Defaulting to Gaussian broadening, width =  0.1000E-01 eV.
  The width will be adjusted in iteration number     2 of the first full s.c.f. cycle only.
  S.C.F. convergence parameters will be adjusted in iteration number     2 of the first full s.c.f. cycle only.
  No accuracy for occupation numbers given. Defaulting to  0.1000E-12.
  No threshold value for occupation numbers given. Defaulting to  0.0000E+00.
  No accuracy for fermi level given. Defaulting to  0.1000E-19.
  Maximum # of iterations to find E_F not set. Defaulting to  200.
  Preferred method for the eigenvalue solver ('KS_method') not specified in 'control.in'.
  Calling BLACS routine to test compilation state
  Since ScaLAPACK support is enabled, defaulting to ELPA (via ELSI).
  Will not use alltoall communication since running on < 1024 CPUs.
  Threshold for basis singularities not set.
  Default threshold for basis singularities:  0.1000E-04
  partition_type (choice of integration weights) for integrals was not specified.
  | Using a version of the partition function of Stratmann and coworkers ('stratmann_sparse').
  | At each grid point, the set of atoms used to build the partition table is smoothly restricted to
  | only those atoms whose free-atom density would be non-zero at that grid point.
  Partitioning for Hartree potential was not defined. Using partition_type for integrals.
  | Adjusted default value of keyword multip_moments_threshold to:       0.10000000E-11
  | This value may affect high angular momentum components of the Hartree potential in periodic systems.
  No q(lm)/r^(l+1) cutoff set for long-range Hartree potential.
  | Using default value of  0.100000E-09 .
  | Verify using the multipole_threshold keyword.
  Defaulting to new monopole extrapolation.
  Density update method: automatic selection selected.
  Charge integration errors on the 3D integration grid will be compensated
  by explicit normalization and distribution of residual charges.
  Use the "compensate_multipole_errors" flag to change this behaviour.
  Distances at which the Gaussian orbitals are below wave_threshold are the following:
    Species: H, Function:  1, L = 0, extent =  2.611993 AA
    Species: H, Function:  2, L = 0, extent =  5.179521 AA
    Species: H, Function:  3, L = 1, extent =  2.121851 AA
    Species: H, new cutoff onset for free atom density:
                                 free_r_cut =  5.179521 AA
    Species: C, Function:  1, L = 0, extent =  1.157604 AA
    Species: C, Function:  2, L = 0, extent =  2.860515 AA
    Species: C, Function:  3, L = 1, extent =  2.967371 AA
    Species: C, Function:  4, L = 0, extent =  5.081344 AA
    Species: C, Function:  5, L = 1, extent =  5.335997 AA
    Species: C, Function:  6, L = 0, extent =  9.832812 AA
    Species: C, Function:  7, L = 1, extent = 10.325586 AA
    Species: C, Function:  8, L = 2, extent =  2.562483 AA
    Species: C, Function:  9, L = 2, extent =  2.562483 AA
    Species: C, new cutoff onset for free atom density:
                                 free_r_cut = 10.325586 AA
------------------------------------------------------------


------------------------------------------------------------
          Reading geometry description geometry.in.
------------------------------------------------------------
  Input structure read successfully.
  The structure contains        4 atoms,  and a total of          9.000 electrons.

  Input geometry:
  | No unit cell requested.
  | Atomic structure:
  |       Atom                x [A]            y [A]            z [A]
  |    1: Species C             0.00000000        0.00000000        0.00000000
  |    2: Species H             0.00000000        1.07800000        0.00000000
  |    3: Species H             0.93300000       -0.53900000        0.00000000
  |    4: Species H            -0.93300000       -0.53900000        0.00000000
  | The smallest distance between any two atoms is         1.07750174 AA.
  | The first atom of this pair is atom number                      1 .
  | The second atom of this pair is atom number                     3 .

  Initial moments and charges:
  |  Atom   Moment         Charge        Species
  |     1   0.100000E+01   0.000000E+00   C
  |     2   0.000000E+00   0.000000E+00   H
  |     3   0.000000E+00   0.000000E+00   H
  |     4   0.000000E+00   0.000000E+00   H

  Number of empty states per atom not set in control.in - providing a guess from actual geometry.
  | Total number of empty states used during s.c.f. cycle:        8
  If you use a very high smearing, use empty_states (per atom!) in control.in to increase this value.

  Structure-dependent array size parameters: 
  | Number of distinct atom types in initial rho :        2
  | Maximum number of distinct radial functions  :       12
  | Maximum number of basis functions            :       34
  | Number of Kohn-Sham states (occupied + empty):       13
------------------------------------------------------------

------------------------------------------------------------
          Preparing all fixed parts of the calculation.
------------------------------------------------------------
  Determining machine precision:
    2.225073858507201E-308
  Setting up grids for atomic and cluster calculations.

  Creating wave function, potential, and density for free atoms.

  Species: H

  List of occupied orbitals and eigenvalues:
    n    l              occ      energy [Ha]    energy [eV]
    1    0           1.0000        -0.233441        -6.3523


  Species: C

  List of occupied orbitals and eigenvalues:
    n    l              occ      energy [Ha]    energy [eV]
    1    0           2.0000        -9.947552      -270.6867
    2    0           2.0000        -0.500806       -13.6276
    2    1           2.0000        -0.199144        -5.4190

  Spin-polarized or charged system:
  Charge density initialized according to selected moments and charges.

  Creating spin-polarized density from free atoms.

  Species: C
  Charge:   0.000000
  Moment:   1.000000

  List of occupied orbitals and eigenvalues:
    n    l      energy [Ha]    energy [eV]    occupation
  Spin-up
    1    0        -9.949782      -270.7473     1.00000000
    2    0        -0.519886       -14.1468     1.00000000
    2    1        -0.216845        -5.9007     1.50000000
  Spin-down
    1    0        -9.932026      -270.2642     1.00000000
    2    0        -0.472335       -12.8529     1.00000000
    2    1        -0.172898        -4.7048     0.50000000


  Species: H
  Charge:   0.000000
  Moment:   0.000000

  List of occupied orbitals and eigenvalues:
    n    l      energy [Ha]    energy [eV]    occupation
  Spin-up
    1    0        -0.233220        -6.3462     0.50000000
  Spin-down
    1    0        -0.233220        -6.3462     0.50000000

  Creating fixed part of basis set: Ionic, confined, hydrogenic.
 
  H                    Gaussian:
 
  List of cartesian Gaussian basis orbitals: 
    L    l    outer radius
    0    0          2.61199 AA
    0    0          5.17952 AA
    1    1          2.12185 AA
 
 
  C                    Gaussian:
 
  List of cartesian Gaussian basis orbitals: 
    L    l    outer radius
    0    0          1.15760 AA
    0    0          2.86051 AA
    1    1          2.96737 AA
    0    0          5.08134 AA
    1    1          5.33600 AA
    0    0          9.83281 AA
    1    1         10.32559 AA
    2    2          2.56248 AA
    2    0          2.56248 AA
 

  Adding cutoff potential to free-atom effective potential.
  Creating atomic-like basis functions for current effective potential.
  Assembling full basis from fixed parts.
  | Species H : gaussian orbital   0 s accepted.
  | Species H : gaussian orbital   0 s accepted.
  | Species H : gaussian orbital   1 p accepted.
  | Species C : gaussian orbital   0 s accepted.
  | Species C : gaussian orbital   0 s accepted.
  | Species C : gaussian orbital   0 s accepted.
  | Species C : gaussian orbital   0 s accepted.
  | Species C : gaussian orbital   2 s accepted.
  | Species C : gaussian orbital   1 p accepted.
  | Species C : gaussian orbital   1 p accepted.
  | Species C : gaussian orbital   1 p accepted.
  | Species C : gaussian orbital   2 d accepted.
 
  Basis size parameters after reduction:
  | Total number of radial functions:       12
  | Total number of basis functions :       34
 
  Per-task memory consumption for arrays in subroutine allocate_ext:
  |           2.943920MB.
  Testing on-site integration grid accuracy.
  |  Species  Function  <phi|h_atom|phi> (log., in eV)  <phi|h_atom|phi> (rad., in eV)
           1        1                  1.1206103085                  1.1206083312
           1        2                 12.1626871383                 12.1626863459
           1        3                 52.5799347886                 52.5799347344
           2        4               -270.4160698244               -270.4161072279
           2        5                -10.3322574351                -10.3322594705
           2        6                 11.2424359960                 11.2424358819
           2        7                  6.7451548879                  6.7451548303
           2        8                103.2209070233                103.2208982514
           2        9                 -2.4450165859                 -2.4450165769
           2       10                  9.9843688625                  9.9843688455
           2       11                  5.0739419865                  5.0739419500
           2       12                 43.2223516979                 43.2223515643

  Preparing densities etc. for the partition functions (integrals / Hartree potential).

  Preparations completed.
  max(cpu_time)          :      0.207 s.
  Wall clock time (cpu1) :      0.207 s.
------------------------------------------------------------

------------------------------------------------------------
          Begin self-consistency loop: Initialization.

          Date     :  20190817, Time     :  153123.093
------------------------------------------------------------

  Initializing index lists of integration centers etc. from given atomic structure:
  | Number of centers in hartree potential         :         4
  | Number of centers in hartree multipole         :         4
  | Number of centers in electron density summation:         4
  | Number of centers in basis integrals           :         4
  | Number of centers in integrals                 :         4
  | Number of centers in hamiltonian               :         4
  * Using 8 tasks for Scalapack Eigenvalue solver.
  Detailed listing of tasks and assigned k-points:
  (for non-periodic systems, the "k-point" denotes an internal label only)
   Task     0 k-point     1 on co1631
   Task     1 k-point     1 on co1631
   Task     2 k-point     1 on co1631
   Task     3 k-point     1 on co1631
   Task     4 k-point     1 on co1631
   Task     5 k-point     1 on co1631
   Task     6 k-point     1 on co1631
   Task     7 k-point     1 on co1631
  Tasks:     8 split into      4 X      2 BLACS grid
  Calculating block size based on n_basis =           34  max_nprow =            4  max_npcol =            2
  ScaLAPACK block size set to:            8
  Allocating        0.001 MB for ovlp
  Allocating        0.003 MB for ham
  Allocating        0.003 MB for eigenvec
  Required Scalapack workspace - INTEGER:            1  REAL:             1
  Partitioning the integration grid into batches with parallel hashing+maxmin method.
  | Number of batches:     3359
  | Maximal batch size:     191
  | Minimal batch size:      52
  | Average batch size:      90.017
  | Standard deviation of batch sizes:      30.416

  Integration load balanced across     8 MPI tasks.
  Work distribution over tasks is as follows:
  Task     0 has      37740 integration points.
  Task     1 has      37810 integration points.
  Task     2 has      37851 integration points.
  Task     3 has      37800 integration points.
  Task     4 has      37778 integration points.
  Task     5 has      37800 integration points.
  Task     6 has      37811 integration points.
  Task     7 has      37778 integration points.
  Initializing partition tables, free-atom densities, potentials, etc. across the integration grid (initialize_grid_storage).
  | initialize_grid_storage: Actual outermost partition radius vs. multipole_radius_free
  | (-- VB: in principle, multipole_radius_free should be larger, hence this output)
  | Species        1: Confinement radius =              7.179521077096350 AA, multipole_radius_free =              7.205085976540780 AA.
  | Species        1: outer_partition_radius set to              7.205085976540780 AA .
  | Species        2: Confinement radius =             12.325585733698365 AA, multipole_radius_free =             12.403759672225018 AA.
  | Species        2: outer_partition_radius set to             12.403759672225018 AA .
  | The sparse table of interatomic distances needs          0.16 kbyte instead of         0.13 kbyte of memory.
  | Using the partition_type stratmann_smoother will reduce your memory usage.
  | Net number of integration points:   302368
  | of which are non-zero points    :   259302
  Renormalizing the initial density to the exact electron count on the 3D integration grid.
  | Initial density: Formal number of electrons (from input files) :       9.0000000000
  | Integrated number of electrons on 3D grid     :       8.9999999818
  | Charge integration error                      :      -0.0000000182
  | Normalization factor for density and gradient :       1.0000000020
  Renormalizing the free-atom superposition density to the exact electron count on the 3D integration grid.
  | Formal number of electrons (from input files) :       9.0000000000
  | Integrated number of electrons on 3D grid     :       9.0000001745
  | Charge integration error                      :       0.0000001745
  | Normalization factor for density and gradient :       0.9999999806
  Obtaining max. number of non-zero basis functions in each batch (get_n_compute_maxes).
  | Maximal number of non-zero basis functions:       34 in task     0
  | Maximal number of non-zero basis functions:       34 in task     1
  | Maximal number of non-zero basis functions:       34 in task     2
  | Maximal number of non-zero basis functions:       34 in task     3
  | Maximal number of non-zero basis functions:       34 in task     4
  | Maximal number of non-zero basis functions:       34 in task     5
  | Maximal number of non-zero basis functions:       34 in task     6
  | Maximal number of non-zero basis functions:       34 in task     7
  Selecting the method for density update.
  Loop over occupied states selected for charge density update.
  Allocating        0.007 MB for KS_eigenvector
  Integrating Hamiltonian matrix: batch-based integration.
  Time summed over all CPUs for integration: real work        0.776 s, elapsed        0.783 s
  Integrating overlap matrix.
  Time summed over all CPUs for integration: real work        0.218 s, elapsed        0.231 s
  Deallocating overlap matrix.

  Updating Kohn-Sham eigenvalues and eigenvectors using ELSI and the ELPA eigensolver.
  Overlap matrix is not singular
  | Lowest and highest eigenvalues :  0.2698E-01,  0.2827E+01
  Finished singularity check of overlap matrix
  | Time :     0.001 s
  Starting ELPA eigensolver
  Finished Cholesky decomposition
  | Time :     0.002 s
  Finished transformation to standard eigenproblem
  | Time :     0.000 s
  Finished solving standard eigenproblem
  | Time :     0.001 s
  Finished back-transformation of eigenvectors
  | Time :     0.000 s
  Starting ELPA eigensolver
  Finished transformation to standard eigenproblem
  | Time :     0.000 s
  Finished solving standard eigenproblem
  | Time :     0.000 s
  Finished back-transformation of eigenvectors
  | Time :     0.000 s
  Fixed spin moments - chemical potentials:
  | Chemical potential, spin up:   -5.5608712572 eV.
  | Chemical potential, spin dn:  -13.9010447947 eV.
  | Fixed spin moment: Difference in chemical potentials between spin channels:   8.3401735375 eV.

  Writing Kohn-Sham eigenvalues.

  Spin-up eigenvalues:

  State    Occupation    Eigenvalue [Ha]    Eigenvalue [eV]
      1       1.00000         -10.073054         -274.10175
      2       1.00000          -0.797912          -21.71228
      3       1.00000          -0.558622          -15.20087
      4       1.00000          -0.558577          -15.19965
      5       1.00000          -0.331690           -9.02573
      6       0.00000          -0.045209           -1.23021
      7       0.00000           0.005771            0.15703
      8       0.00000           0.005813            0.15817
      9       0.00000           0.036749            1.00000
     10       0.00000           0.068219            1.85633
     11       0.00000           0.068239            1.85687
     12       0.00000           0.097085            2.64182
     13       0.00000           0.453555           12.34185

  Spin-down eigenvalues:

  State    Occupation    Eigenvalue [Ha]    Eigenvalue [eV]
      1       1.00000         -10.055620         -273.62734
      2       1.00000          -0.760284          -20.68837
      3       1.00000          -0.525716          -14.30547
      4       1.00000          -0.525677          -14.30439
      5       0.00000          -0.289781           -7.88534
      6       0.00000          -0.036378           -0.98990
      7       0.00000           0.013360            0.36355
      8       0.00000           0.013392            0.36441
      9       0.00000           0.042571            1.15840
     10       0.00000           0.080976            2.20348
     11       0.00000           0.080985            2.20373
     12       0.00000           0.107397            2.92243
     13       0.00000           0.476536           12.96719

  Current spin moment of the entire structure :
  | N = N_up - N_down :    1.00
  | S                 :    0.50
  | J                 :    2.00

  Highest occupied state (VBM) at     -9.02573121 eV
  | Occupation number:      1.00000000
  | Spin channel:        1

  Lowest unoccupied state (CBM) at    -7.88533724 eV
  | Occupation number:      0.00000000
  | Spin channel:        2

  Overall HOMO-LUMO gap:      1.14039398 eV.
  Calculating total energy contributions from superposition of free atom densities.

  Total energy components:
  | Sum of eigenvalues            :         -24.18715038 Ha        -658.16584893 eV
  | XC energy correction          :          -5.77874970 Ha        -157.24778008 eV
  | XC potential correction       :           7.59937683 Ha         206.78956483 eV
  | Free-atom electrostatic energy:         -17.15022053 Ha        -466.68124517 eV
  | Hartree energy correction     :           0.00000000 Ha           0.00000000 eV
  | Entropy correction            :           0.00000000 Ha           0.00000000 eV
  | ---------------------------
  | Total energy                  :         -39.51674379 Ha       -1075.30530935 eV
  | Total energy, T -> 0          :         -39.51674379 Ha       -1075.30530935 eV  <-- do not rely on this value for anything but (periodic) metals
  | Electronic free energy        :         -39.51674379 Ha       -1075.30530935 eV

  Derived energy quantities:
  | Kinetic energy                :          38.31873172 Ha        1042.70574244 eV
  | Electrostatic energy          :         -72.05672581 Ha       -1960.76327171 eV
  | Energy correction for multipole
  | error in Hartree potential    :           0.00000000 Ha           0.00000000 eV
  | Sum of eigenvalues per atom                           :        -164.54146223 eV
  | Total energy (T->0) per atom                          :        -268.82632734 eV  <-- do not rely on this value for anything but (periodic) metals
  | Electronic free energy per atom                       :        -268.82632734 eV
  Initialize hartree_potential_storage
  Max. number of atoms included in rho_multipole:            4

  End scf initialization - timings             :  max(cpu_time)    wall_clock(cpu1)
  | Time for scf. initialization               :        0.337 s           0.338 s
  | Boundary condition initialization          :        0.000 s           0.001 s
  | Integration                                :        0.128 s           0.128 s
  | Solution of K.-S. eqns.                    :        0.005 s           0.005 s
  | Grid partitioning                          :        0.089 s           0.090 s
  | Preloading free-atom quantities on grid    :        0.033 s           0.033 s
  | Free-atom superposition energy             :        0.027 s           0.027 s
  | Total energy evaluation                    :        0.000 s           0.000 s

  Partial memory accounting:
  | Current value for overall tracked memory usage:
  |   Minimum:        0.021 MB (on task 3)
  |   Maximum:        0.023 MB (on task 0)
  |   Average:        0.022 MB
  | Peak value for overall tracked memory usage:
  |   Minimum:        0.966 MB (on task 7 after allocating grid_partition)
  |   Maximum:        1.669 MB (on task 0 after allocating grid_partition)
  |   Average:        1.304 MB
  | Largest tracked array allocation so far:
  |   Minimum:        0.640 MB (all_coords on task 7)
  |   Maximum:        1.108 MB (all_coords on task 0)
  |   Average:        0.865 MB
  Note:  These values currently only include a subset of arrays which are explicitly tracked.
  The "true" memory usage will be greater.
------------------------------------------------------------

  Initialising kinetic-energy density for meta-GGA
  Evaluating density matrix
  Evaluating density matrix
  | Time to calculate kinetic-energy density   :        0.117 s           0.117 s

------------------------------------------------------------
          Begin self-consistency iteration #    1

  Date     :  20190817, Time     :  153123.549
------------------------------------------------------------
  Evaluating new KS density.
  Integration grid: deviation in total charge (<rho> - N_e) =   7.105427E-15
  | <rho_up-rho_dn> = N_up-N_dn =      1.0000; <|rho_up-rho_dn|> =      1.0657
  Pulay mixing of updated and previous charge densities.
  Renormalizing the density to the exact electron count on the 3D integration grid.
  | Formal number of electrons (from input files) :       9.0000000000
  | Integrated number of electrons on 3D grid     :       9.0000000000
  | Charge integration error                      :       0.0000000000
  | Normalization factor for density and gradient :       1.0000000000

  Evaluating partitioned Hartree potential by multipole expansion.
  | Original multipole sum: apparent total charge =  -0.252773E-13
  | Sum of charges compensated after spline to logarithmic grids =   0.257408E-06
  | Analytical far-field extrapolation by fixed multipoles:
  | Hartree multipole sum: apparent total charge =  -0.252773E-13
  Summing up the Hartree potential.
  Time summed over all CPUs for potential: real work        0.525 s, elapsed        0.530 s
  | RMS charge density error from multipole expansion :   0.218459E-03

  Integrating Hamiltonian matrix: batch-based integration.
  Time summed over all CPUs for integration: real work        1.591 s, elapsed        1.613 s

  Updating Kohn-Sham eigenvalues and eigenvectors using ELSI and the ELPA eigensolver.
  Starting ELPA eigensolver
  Finished transformation to standard eigenproblem
  | Time :     0.000 s
  Finished solving standard eigenproblem
  | Time :     0.000 s
  Finished back-transformation of eigenvectors
  | Time :     0.000 s
  Starting ELPA eigensolver
  Finished transformation to standard eigenproblem
  | Time :     0.001 s
  Finished solving standard eigenproblem
  | Time :     0.000 s
  Finished back-transformation of eigenvectors
  | Time :     0.000 s
  Fixed spin moments - chemical potentials:
  | Chemical potential, spin up:   -5.7174806428 eV.
  | Chemical potential, spin dn:  -13.4088717795 eV.
  | Fixed spin moment: Difference in chemical potentials between spin channels:   7.6913911367 eV.

  Writing Kohn-Sham eigenvalues.

  Spin-up eigenvalues:

  State    Occupation    Eigenvalue [Ha]    Eigenvalue [eV]
      1       1.00000         -10.311351         -280.58614
      2       1.00000          -0.818121          -22.26221
      3       1.00000          -0.555159          -15.10666
      4       1.00000          -0.555137          -15.10605
      5       1.00000          -0.312289           -8.49783
      6       0.00000           0.084143            2.28965
      7       0.00000           0.140630            3.82674
      8       0.00000           0.140689            3.82835
      9       0.00000           0.320746            8.72795
     10       0.00000           0.396591           10.79178
     11       0.00000           0.396835           10.79844
     12       0.00000           0.486478           13.23775
     13       0.00000           0.834842           22.71721

  Spin-down eigenvalues:

  State    Occupation    Eigenvalue [Ha]    Eigenvalue [eV]
      1       1.00000         -10.293223         -280.09286
      2       1.00000          -0.762338          -20.74428
      3       1.00000          -0.512525          -13.94652
      4       1.00000          -0.512438          -13.94414
      5       0.00000          -0.236757           -6.44249
      6       0.00000           0.114966            3.12838
      7       0.00000           0.172770            4.70130
      8       0.00000           0.173063            4.70930
      9       0.00000           0.456795           12.43001
     10       0.00000           0.457188           12.44073
     11       0.00000           0.564460           15.35974
     12       0.00000           0.595875           16.21458
     13       0.00000           0.907298           24.68884

  Current spin moment of the entire structure :
  | N = N_up - N_down :    1.00
  | S                 :    0.50
  | J                 :    2.00

  Highest occupied state (VBM) at     -8.49782939 eV
  | Occupation number:      1.00000000
  | Spin channel:        1

  Lowest unoccupied state (CBM) at    -6.44248795 eV
  | Occupation number:      0.00000000
  | Spin channel:        2

  Overall HOMO-LUMO gap:      2.05534144 eV.

  Total energy components:
  | Sum of eigenvalues            :         -24.63258295 Ha        -670.28668595 eV
  | XC energy correction          :          -6.10555377 Ha        -166.14057133 eV
  | XC potential correction       :           8.21824388 Ha         223.62979401 eV
  | Free-atom electrostatic energy:         -17.15022053 Ha        -466.68124517 eV
  | Hartree energy correction     :          -0.19372586 Ha          -5.27154886 eV
  | Entropy correction            :           0.00000000 Ha           0.00000000 eV
  | ---------------------------
  | Total energy                  :         -39.86383924 Ha       -1084.75025731 eV
  | Total energy, T -> 0          :         -39.86383924 Ha       -1084.75025731 eV  <-- do not rely on this value for anything but (periodic) metals
  | Electronic free energy        :         -39.86383924 Ha       -1084.75025731 eV

  Derived energy quantities:
  | Kinetic energy                :          38.38967320 Ha        1044.63615840 eV
  | Electrostatic energy          :         -72.14795867 Ha       -1963.24584437 eV
  | Energy correction for multipole
  | error in Hartree potential    :          -0.00029584 Ha          -0.00805015 eV
  | Sum of eigenvalues per atom                           :        -167.57167149 eV
  | Total energy (T->0) per atom                          :        -271.18756433 eV  <-- do not rely on this value for anything but (periodic) metals
  | Electronic free energy per atom                       :        -271.18756433 eV

  Self-consistency convergence accuracy:
  | Change of charge/spin density :  0.2879E+00  0.1349E+00
  | Change of sum of eigenvalues  : -0.1212E+02 eV
  | Change of total energy        : -0.9445E+01 eV

  End self-consistency iteration #     1       :  max(cpu_time)    wall_clock(cpu1)
  | Time for this iteration                    :        0.358 s           0.357 s
  | Charge density update                      :        0.076 s           0.074 s
  | Density mixing                             :        0.008 s           0.008 s
  | Hartree multipole update                   :        0.004 s           0.004 s
  | Hartree multipole summation                :        0.067 s           0.068 s
  | Integration                                :        0.201 s           0.201 s
  | Solution of K.-S. eqns.                    :        0.001 s           0.002 s
  | Total energy evaluation                    :        0.000 s           0.000 s

  Partial memory accounting:
  | Current value for overall tracked memory usage:
  |   Minimum:        0.021 MB (on task 3)
  |   Maximum:        0.023 MB (on task 0)
  |   Average:        0.022 MB
  | Peak value for overall tracked memory usage:
  |   Minimum:        0.966 MB (on task 7 after allocating grid_partition)
  |   Maximum:        1.669 MB (on task 0 after allocating grid_partition)
  |   Average:        1.304 MB
  | Largest tracked array allocation so far:
  |   Minimum:        0.640 MB (all_coords on task 7)
  |   Maximum:        1.108 MB (all_coords on task 0)
  |   Average:        0.865 MB
  Note:  These values currently only include a subset of arrays which are explicitly tracked.
  The "true" memory usage will be greater.
------------------------------------------------------------

------------------------------------------------------------
          Begin self-consistency iteration #    2

  Date     :  20190817, Time     :  153123.907
------------------------------------------------------------
  Evaluating new KS density.
  Integration grid: deviation in total charge (<rho> - N_e) =  -7.105427E-15
  | <rho_up-rho_dn> = N_up-N_dn =      1.0000; <|rho_up-rho_dn|> =      1.0969
  Pulay mixing of updated and previous charge densities.
  Renormalizing the density to the exact electron count on the 3D integration grid.
  | Formal number of electrons (from input files) :       9.0000000000
  | Integrated number of electrons on 3D grid     :       9.0000000000
  | Charge integration error                      :       0.0000000000
  | Normalization factor for density and gradient :       1.0000000000

  Evaluating partitioned Hartree potential by multipole expansion.
  | Original multipole sum: apparent total charge =   0.374900E-13
  | Sum of charges compensated after spline to logarithmic grids =   0.258431E-06
  | Analytical far-field extrapolation by fixed multipoles:
  | Hartree multipole sum: apparent total charge =   0.373148E-13
  Summing up the Hartree potential.
  Time summed over all CPUs for potential: real work        0.527 s, elapsed        0.531 s
  | RMS charge density error from multipole expansion :   0.615220E-03

  Integrating Hamiltonian matrix: batch-based integration.
  Time summed over all CPUs for integration: real work        1.589 s, elapsed        1.647 s

  Updating Kohn-Sham eigenvalues and eigenvectors using ELSI and the ELPA eigensolver.
  Starting ELPA eigensolver
  Finished transformation to standard eigenproblem
  | Time :     0.000 s
  Finished solving standard eigenproblem
  | Time :     0.000 s
  Finished back-transformation of eigenvectors
  | Time :     0.000 s
  Starting ELPA eigensolver
  Finished transformation to standard eigenproblem
  | Time :     0.000 s
  Finished solving standard eigenproblem
  | Time :     0.000 s
  Finished back-transformation of eigenvectors
  | Time :     0.000 s
  Fixed spin moments - chemical potentials:
  | Chemical potential, spin up:   -6.1953169802 eV.
  | Chemical potential, spin dn:   -8.5622072262 eV.
  | Fixed spin moment: Difference in chemical potentials between spin channels:   2.3668902460 eV.

  Current spin moment of the entire structure :
  | N = N_up - N_down :    1.00
  | S                 :    0.50
  | J                 :    2.00

  Highest occupied state (VBM) at     -7.84782016 eV
  | Occupation number:      1.00000000
  | Spin channel:        1

  Lowest unoccupied state (CBM) at    -5.63946269 eV
  | Occupation number:      0.00000000
  | Spin channel:        2

  Overall HOMO-LUMO gap:      2.20835747 eV.

  Checking to see if s.c.f. parameters should be adjusted.
  The system likely has a gap. Increased the default Pulay mixing parameter (charge_mix_param). Value:   0.200000 .
  Kept the default occupation width. Value:   0.010000 eV.

  Total energy components:
  | Sum of eigenvalues            :         -24.33486046 Ha        -662.18524465 eV
  | XC energy correction          :          -6.15673404 Ha        -167.53325715 eV
  | XC potential correction       :           8.29300455 Ha         225.66413559 eV
  | Free-atom electrostatic energy:         -17.15022053 Ha        -466.68124517 eV
  | Hartree energy correction     :          -0.49362987 Ha         -13.43235225 eV
  | Entropy correction            :           0.00000000 Ha           0.00000000 eV
  | ---------------------------
  | Total energy                  :         -39.84244034 Ha       -1084.16796363 eV
  | Total energy, T -> 0          :         -39.84244034 Ha       -1084.16796363 eV  <-- do not rely on this value for anything but (periodic) metals
  | Electronic free energy        :         -39.84244034 Ha       -1084.16796363 eV

  Derived energy quantities:
  | Kinetic energy                :          38.62888209 Ha        1051.14536328 eV
  | Electrostatic energy          :         -72.31458839 Ha       -1967.78006976 eV
  | Energy correction for multipole
  | error in Hartree potential    :          -0.00077832 Ha          -0.02117918 eV
  | Sum of eigenvalues per atom                           :        -165.54631116 eV
  | Total energy (T->0) per atom                          :        -271.04199091 eV  <-- do not rely on this value for anything but (periodic) metals
  | Electronic free energy per atom                       :        -271.04199091 eV

  Self-consistency convergence accuracy:
  | Change of charge/spin density :  0.2623E+00  0.1248E+00
  | Change of sum of eigenvalues  :  0.8101E+01 eV
  | Change of total energy        :  0.5823E+00 eV

  End self-consistency iteration #     2       :  max(cpu_time)    wall_clock(cpu1)
  | Time for this iteration                    :        0.355 s           0.354 s
  | Charge density update                      :        0.066 s           0.066 s
  | Density mixing                             :        0.009 s           0.009 s
  | Hartree multipole update                   :        0.004 s           0.005 s
  | Hartree multipole summation                :        0.067 s           0.066 s
  | Integration                                :        0.206 s           0.207 s
  | Solution of K.-S. eqns.                    :        0.001 s           0.001 s
  | Total energy evaluation                    :        0.000 s           0.000 s

  Partial memory accounting:
  | Current value for overall tracked memory usage:
  |   Minimum:        0.022 MB (on task 3)
  |   Maximum:        0.024 MB (on task 0)
  |   Average:        0.023 MB
  | Peak value for overall tracked memory usage:
  |   Minimum:        0.966 MB (on task 7 after allocating grid_partition)
  |   Maximum:        1.669 MB (on task 0 after allocating grid_partition)
  |   Average:        1.304 MB
  | Largest tracked array allocation so far:
  |   Minimum:        0.640 MB (all_coords on task 7)
  |   Maximum:        1.108 MB (all_coords on task 0)
  |   Average:        0.865 MB
  Note:  These values currently only include a subset of arrays which are explicitly tracked.
  The "true" memory usage will be greater.
------------------------------------------------------------

------------------------------------------------------------
          Begin self-consistency iteration #    3

  Date     :  20190817, Time     :  153124.262
------------------------------------------------------------
  Evaluating new KS density.
  Integration grid: deviation in total charge (<rho> - N_e) =  -1.243450E-14
  | <rho_up-rho_dn> = N_up-N_dn =      1.0000; <|rho_up-rho_dn|> =      1.1009
  Pulay mixing of updated and previous charge densities.
  Renormalizing the density to the exact electron count on the 3D integration grid.
  | Formal number of electrons (from input files) :       9.0000000000
  | Integrated number of electrons on 3D grid     :       9.0000000000
  | Charge integration error                      :       0.0000000000
  | Normalization factor for density and gradient :       1.0000000000

  Evaluating partitioned Hartree potential by multipole expansion.
  | Original multipole sum: apparent total charge =  -0.170462E-13
  | Sum of charges compensated after spline to logarithmic grids =   0.259146E-06
  | Analytical far-field extrapolation by fixed multipoles:
  | Hartree multipole sum: apparent total charge =  -0.170339E-13
  Summing up the Hartree potential.
  Time summed over all CPUs for potential: real work        0.531 s, elapsed        0.565 s
  | RMS charge density error from multipole expansion :   0.277269E-02

  Integrating Hamiltonian matrix: batch-based integration.
  Time summed over all CPUs for integration: real work        1.606 s, elapsed        1.676 s

  Updating Kohn-Sham eigenvalues and eigenvectors using ELSI and the ELPA eigensolver.
  Starting ELPA eigensolver
  Finished transformation to standard eigenproblem
  | Time :     0.000 s
  Finished solving standard eigenproblem
  | Time :     0.001 s
  Finished back-transformation of eigenvectors
  | Time :     0.000 s
  Starting ELPA eigensolver
  Finished transformation to standard eigenproblem
  | Time :     0.000 s
  Finished solving standard eigenproblem
  | Time :     0.000 s
  Finished back-transformation of eigenvectors
  | Time :     0.000 s
  Fixed spin moments - chemical potentials:
  | Chemical potential, spin up:    0.2902475418 eV.
  | Chemical potential, spin dn:   -4.3332691758 eV.
  | Fixed spin moment: Difference in chemical potentials between spin channels:   4.6235167176 eV.

  Current spin moment of the entire structure :
  | N = N_up - N_down :    1.00
  | S                 :    0.50
  | J                 :    2.00

  Highest occupied state (VBM) at     -4.84885719 eV
  | Occupation number:      1.00000000
  | Spin channel:        1

  Lowest unoccupied state (CBM) at    -2.11957498 eV
  | Occupation number:      0.00000000
  | Spin channel:        2

  Overall HOMO-LUMO gap:      2.72928221 eV.

  Total energy components:
  | Sum of eigenvalues            :         -22.88768498 Ha        -622.80559629 eV
  | XC energy correction          :          -6.45211562 Ha        -175.57099911 eV
  | XC potential correction       :           8.68825324 Ha         236.41939948 eV
  | Free-atom electrostatic energy:         -17.15022053 Ha        -466.68124517 eV
  | Hartree energy correction     :          -2.03002410 Ha         -55.23976625 eV
  | Entropy correction            :           0.00000000 Ha           0.00000000 eV
  | ---------------------------
  | Total energy                  :         -39.83179200 Ha       -1083.87820734 eV
  | Total energy, T -> 0          :         -39.83179200 Ha       -1083.87820734 eV  <-- do not rely on this value for anything but (periodic) metals
  | Electronic free energy        :         -39.83179200 Ha       -1083.87820734 eV

  Derived energy quantities:
  | Kinetic energy                :          39.61869115 Ha        1078.07943819 eV
  | Electrostatic energy          :         -72.99836752 Ha       -1986.38664643 eV
  | Energy correction for multipole
  | error in Hartree potential    :          -0.00310924 Ha          -0.08460670 eV
  | Sum of eigenvalues per atom                           :        -155.70139907 eV
  | Total energy (T->0) per atom                          :        -270.96955184 eV  <-- do not rely on this value for anything but (periodic) metals
  | Electronic free energy per atom                       :        -270.96955184 eV

  Self-consistency convergence accuracy:
  | Change of charge/spin density :  0.2240E+00  0.1094E+00
  | Change of sum of eigenvalues  :  0.3938E+02 eV
  | Change of total energy        :  0.2898E+00 eV

  End self-consistency iteration #     3       :  max(cpu_time)    wall_clock(cpu1)
  | Time for this iteration                    :        0.369 s           0.369 s
  | Charge density update                      :        0.070 s           0.070 s
  | Density mixing                             :        0.012 s           0.012 s
  | Hartree multipole update                   :        0.004 s           0.004 s
  | Hartree multipole summation                :        0.071 s           0.072 s
  | Integration                                :        0.210 s           0.209 s
  | Solution of K.-S. eqns.                    :        0.001 s           0.001 s
  | Total energy evaluation                    :        0.000 s           0.000 s

  Partial memory accounting:
  | Current value for overall tracked memory usage:
  |   Minimum:        0.022 MB (on task 3)
  |   Maximum:        0.024 MB (on task 0)
  |   Average:        0.023 MB
  | Peak value for overall tracked memory usage:
  |   Minimum:        0.966 MB (on task 7 after allocating grid_partition)
  |   Maximum:        1.669 MB (on task 0 after allocating grid_partition)
  |   Average:        1.304 MB
  | Largest tracked array allocation so far:
  |   Minimum:        0.640 MB (all_coords on task 7)
  |   Maximum:        1.108 MB (all_coords on task 0)
  |   Average:        0.865 MB
  Note:  These values currently only include a subset of arrays which are explicitly tracked.
  The "true" memory usage will be greater.
------------------------------------------------------------

------------------------------------------------------------
          Begin self-consistency iteration #    4

  Date     :  20190817, Time     :  153124.631
------------------------------------------------------------
  Evaluating new KS density.
  Integration grid: deviation in total charge (<rho> - N_e) =  -8.881784E-15
  | <rho_up-rho_dn> = N_up-N_dn =      1.0000; <|rho_up-rho_dn|> =      1.1171
  Pulay mixing of updated and previous charge densities.
  Renormalizing the density to the exact electron count on the 3D integration grid.
  | Formal number of electrons (from input files) :       9.0000000000
  | Integrated number of electrons on 3D grid     :       9.0000000000
  | Charge integration error                      :       0.0000000000
  | Normalization factor for density and gradient :       1.0000000000

  Evaluating partitioned Hartree potential by multipole expansion.
  | Original multipole sum: apparent total charge =   0.129538E-13
  | Sum of charges compensated after spline to logarithmic grids =   0.274555E-06
  | Analytical far-field extrapolation by fixed multipoles:
  | Hartree multipole sum: apparent total charge =   0.129230E-13
  Summing up the Hartree potential.
  Time summed over all CPUs for potential: real work        0.524 s, elapsed        0.531 s
  | RMS charge density error from multipole expansion :   0.259434E-02

  Integrating Hamiltonian matrix: batch-based integration.
  Time summed over all CPUs for integration: real work        1.599 s, elapsed        1.638 s

  Updating Kohn-Sham eigenvalues and eigenvectors using ELSI and the ELPA eigensolver.
  Starting ELPA eigensolver
  Finished transformation to standard eigenproblem
  | Time :     0.000 s
  Finished solving standard eigenproblem
  | Time :     0.001 s
  Finished back-transformation of eigenvectors
  | Time :     0.000 s
  Starting ELPA eigensolver
  Finished transformation to standard eigenproblem
  | Time :     0.000 s
  Finished solving standard eigenproblem
  | Time :     0.000 s
  Finished back-transformation of eigenvectors
  | Time :     0.000 s
  Fixed spin moments - chemical potentials:
  | Chemical potential, spin up:   -1.7641551839 eV.
  | Chemical potential, spin dn:   -6.4033971488 eV.
  | Fixed spin moment: Difference in chemical potentials between spin channels:   4.6392419648 eV.

  Current spin moment of the entire structure :
  | N = N_up - N_down :    1.00
  | S                 :    0.50
  | J                 :    2.00

  Highest occupied state (VBM) at     -6.26512179 eV
  | Occupation number:      1.00000000
  | Spin channel:        1

  Lowest unoccupied state (CBM) at    -3.37979260 eV
  | Occupation number:      0.00000000
  | Spin channel:        2

  Overall HOMO-LUMO gap:      2.88532919 eV.

  Total energy components:
  | Sum of eigenvalues            :         -23.49867901 Ha        -639.43158985 eV
  | XC energy correction          :          -6.36553086 Ha        -173.21490778 eV
  | XC potential correction       :           8.57025979 Ha         233.20863441 eV
  | Free-atom electrostatic energy:         -17.15022053 Ha        -466.68124517 eV
  | Hartree energy correction     :          -1.38681351 Ha         -37.73711553 eV
  | Entropy correction            :           0.00000000 Ha           0.00000000 eV
  | ---------------------------
  | Total energy                  :         -39.83098412 Ha       -1083.85622392 eV
  | Total energy, T -> 0          :         -39.83098412 Ha       -1083.85622392 eV  <-- do not rely on this value for anything but (periodic) metals
  | Electronic free energy        :         -39.83098412 Ha       -1083.85622392 eV

  Derived energy quantities:
  | Kinetic energy                :          39.11147585 Ha        1064.27740774 eV
  | Electrostatic energy          :         -72.57692911 Ha       -1974.91872388 eV
  | Energy correction for multipole
  | error in Hartree potential    :          -0.00216353 Ha          -0.05887263 eV
  | Sum of eigenvalues per atom                           :        -159.85789746 eV
  | Total energy (T->0) per atom                          :        -270.96405598 eV  <-- do not rely on this value for anything but (periodic) metals
  | Electronic free energy per atom                       :        -270.96405598 eV

  Self-consistency convergence accuracy:
  | Change of charge/spin density :  0.9248E-01  0.3152E-01
  | Change of sum of eigenvalues  : -0.1663E+02 eV
  | Change of total energy        :  0.2198E-01 eV

  End self-consistency iteration #     4       :  max(cpu_time)    wall_clock(cpu1)
  | Time for this iteration                    :        0.362 s           0.363 s
  | Charge density update                      :        0.071 s           0.071 s
  | Density mixing                             :        0.014 s           0.014 s
  | Hartree multipole update                   :        0.004 s           0.004 s
  | Hartree multipole summation                :        0.067 s           0.067 s
  | Integration                                :        0.205 s           0.205 s
  | Solution of K.-S. eqns.                    :        0.001 s           0.001 s
  | Total energy evaluation                    :        0.000 s           0.001 s

  Partial memory accounting:
  | Current value for overall tracked memory usage:
  |   Minimum:        0.022 MB (on task 3)
  |   Maximum:        0.024 MB (on task 0)
  |   Average:        0.023 MB
  | Peak value for overall tracked memory usage:
  |   Minimum:        0.966 MB (on task 7 after allocating grid_partition)
  |   Maximum:        1.669 MB (on task 0 after allocating grid_partition)
  |   Average:        1.304 MB
  | Largest tracked array allocation so far:
  |   Minimum:        0.640 MB (all_coords on task 7)
  |   Maximum:        1.108 MB (all_coords on task 0)
  |   Average:        0.865 MB
  Note:  These values currently only include a subset of arrays which are explicitly tracked.
  The "true" memory usage will be greater.
------------------------------------------------------------

------------------------------------------------------------
          Begin self-consistency iteration #    5

  Date     :  20190817, Time     :  153124.994
------------------------------------------------------------
  Evaluating new KS density.
  Integration grid: deviation in total charge (<rho> - N_e) =   3.552714E-15
  | <rho_up-rho_dn> = N_up-N_dn =      1.0000; <|rho_up-rho_dn|> =      1.1064
  Pulay mixing of updated and previous charge densities.
  Renormalizing the density to the exact electron count on the 3D integration grid.
  | Formal number of electrons (from input files) :       9.0000000000
  | Integrated number of electrons on 3D grid     :       9.0000000000
  | Charge integration error                      :       0.0000000000
  | Normalization factor for density and gradient :       1.0000000000

  Evaluating partitioned Hartree potential by multipole expansion.
  | Original multipole sum: apparent total charge =  -0.630317E-14
  | Sum of charges compensated after spline to logarithmic grids =   0.296051E-06
  | Analytical far-field extrapolation by fixed multipoles:
  | Hartree multipole sum: apparent total charge =  -0.635237E-14
  Summing up the Hartree potential.
  Time summed over all CPUs for potential: real work        0.526 s, elapsed        0.534 s
  | RMS charge density error from multipole expansion :   0.345119E-02

  Integrating Hamiltonian matrix: batch-based integration.
  Time summed over all CPUs for integration: real work        1.533 s, elapsed        1.581 s

  Updating Kohn-Sham eigenvalues and eigenvectors using ELSI and the ELPA eigensolver.
  Starting ELPA eigensolver
  Finished transformation to standard eigenproblem
  | Time :     0.000 s
  Finished solving standard eigenproblem
  | Time :     0.001 s
  Finished back-transformation of eigenvectors
  | Time :     0.000 s
  Starting ELPA eigensolver
  Finished transformation to standard eigenproblem
  | Time :     0.000 s
  Finished solving standard eigenproblem
  | Time :     0.000 s
  Finished back-transformation of eigenvectors
  | Time :     0.000 s
  Fixed spin moments - chemical potentials:
  | Chemical potential, spin up:   -0.9308233214 eV.
  | Chemical potential, spin dn:   -5.3725515139 eV.
  | Fixed spin moment: Difference in chemical potentials between spin channels:   4.4417281925 eV.

  Current spin moment of the entire structure :
  | N = N_up - N_down :    1.00
  | S                 :    0.50
  | J                 :    2.00

  Highest occupied state (VBM) at     -5.24837104 eV
  | Occupation number:      1.00000000
  | Spin channel:        1

  Lowest unoccupied state (CBM) at    -2.02120544 eV
  | Occupation number:      0.00000000
  | Spin channel:        2

  Overall HOMO-LUMO gap:      3.22716560 eV.

  Total energy components:
  | Sum of eigenvalues            :         -23.00682474 Ha        -626.04755414 eV
  | XC energy correction          :          -6.49267775 Ha        -176.67475062 eV
  | XC potential correction       :           8.71975182 Ha         237.27651939 eV
  | Free-atom electrostatic energy:         -17.15022053 Ha        -466.68124517 eV
  | Hartree energy correction     :          -1.90207537 Ha         -51.75810429 eV
  | Entropy correction            :           0.00000000 Ha           0.00000000 eV
  | ---------------------------
  | Total energy                  :         -39.83204658 Ha       -1083.88513483 eV
  | Total energy, T -> 0          :         -39.83204658 Ha       -1083.88513483 eV  <-- do not rely on this value for anything but (periodic) metals
  | Electronic free energy        :         -39.83204658 Ha       -1083.88513483 eV

  Derived energy quantities:
  | Kinetic energy                :          39.43338523 Ha        1073.03700766 eV
  | Electrostatic energy          :         -72.77275406 Ha       -1980.24739187 eV
  | Energy correction for multipole
  | error in Hartree potential    :          -0.00294725 Ha          -0.08019877 eV
  | Sum of eigenvalues per atom                           :        -156.51188853 eV
  | Total energy (T->0) per atom                          :        -270.97128371 eV  <-- do not rely on this value for anything but (periodic) metals
  | Electronic free energy per atom                       :        -270.97128371 eV

  Self-consistency convergence accuracy:
  | Change of charge/spin density :  0.6342E-01  0.3457E-01
  | Change of sum of eigenvalues  :  0.1338E+02 eV
  | Change of total energy        : -0.2891E-01 eV

  End self-consistency iteration #     5       :  max(cpu_time)    wall_clock(cpu1)
  | Time for this iteration                    :        0.354 s           0.354 s
  | Charge density update                      :        0.066 s           0.066 s
  | Density mixing                             :        0.016 s           0.016 s
  | Hartree multipole update                   :        0.004 s           0.005 s
  | Hartree multipole summation                :        0.067 s           0.067 s
  | Integration                                :        0.198 s           0.198 s
  | Solution of K.-S. eqns.                    :        0.002 s           0.001 s
  | Total energy evaluation                    :        0.000 s           0.001 s

  Partial memory accounting:
  | Current value for overall tracked memory usage:
  |   Minimum:        0.022 MB (on task 3)
  |   Maximum:        0.024 MB (on task 0)
  |   Average:        0.023 MB
  | Peak value for overall tracked memory usage:
  |   Minimum:        0.966 MB (on task 7 after allocating grid_partition)
  |   Maximum:        1.669 MB (on task 0 after allocating grid_partition)
  |   Average:        1.304 MB
  | Largest tracked array allocation so far:
  |   Minimum:        0.640 MB (all_coords on task 7)
  |   Maximum:        1.108 MB (all_coords on task 0)
  |   Average:        0.865 MB
  Note:  These values currently only include a subset of arrays which are explicitly tracked.
  The "true" memory usage will be greater.
------------------------------------------------------------

------------------------------------------------------------
          Begin self-consistency iteration #    6

  Date     :  20190817, Time     :  153125.348
------------------------------------------------------------
  Evaluating new KS density.
  Integration grid: deviation in total charge (<rho> - N_e) =  -8.881784E-15
  | <rho_up-rho_dn> = N_up-N_dn =      1.0000; <|rho_up-rho_dn|> =      1.1133
  Pulay mixing of updated and previous charge densities.
  Renormalizing the density to the exact electron count on the 3D integration grid.
  | Formal number of electrons (from input files) :       9.0000000000
  | Integrated number of electrons on 3D grid     :       9.0000000000
  | Charge integration error                      :      -0.0000000000
  | Normalization factor for density and gradient :       1.0000000000

  Evaluating partitioned Hartree potential by multipole expansion.
  | Original multipole sum: apparent total charge =  -0.408907E-13
  | Sum of charges compensated after spline to logarithmic grids =   0.293384E-06
  | Analytical far-field extrapolation by fixed multipoles:
  | Hartree multipole sum: apparent total charge =  -0.410690E-13
  Summing up the Hartree potential.
  Time summed over all CPUs for potential: real work        0.533 s, elapsed        0.573 s
  | RMS charge density error from multipole expansion :   0.342129E-02

  Integrating Hamiltonian matrix: batch-based integration.
  Time summed over all CPUs for integration: real work        1.566 s, elapsed        1.599 s

  Updating Kohn-Sham eigenvalues and eigenvectors using ELSI and the ELPA eigensolver.
  Starting ELPA eigensolver
  Finished transformation to standard eigenproblem
  | Time :     0.000 s
  Finished solving standard eigenproblem
  | Time :     0.001 s
  Finished back-transformation of eigenvectors
  | Time :     0.000 s
  Starting ELPA eigensolver
  Finished transformation to standard eigenproblem
  | Time :     0.000 s
  Finished solving standard eigenproblem
  | Time :     0.000 s
  Finished back-transformation of eigenvectors
  | Time :     0.000 s
  Fixed spin moments - chemical potentials:
  | Chemical potential, spin up:   -1.0062915963 eV.
  | Chemical potential, spin dn:   -5.4105452336 eV.
  | Fixed spin moment: Difference in chemical potentials between spin channels:   4.4042536374 eV.

  Current spin moment of the entire structure :
  | N = N_up - N_down :    1.00
  | S                 :    0.50
  | J                 :    2.00

  Highest occupied state (VBM) at     -5.30825002 eV
  | Occupation number:      1.00000000
  | Spin channel:        1

  Lowest unoccupied state (CBM) at    -2.04150045 eV
  | Occupation number:      0.00000000
  | Spin channel:        2

  Overall HOMO-LUMO gap:      3.26674957 eV.

  Total energy components:
  | Sum of eigenvalues            :         -23.03031006 Ha        -626.68662233 eV
  | XC energy correction          :          -6.48997257 Ha        -176.60113907 eV
  | XC potential correction       :           8.71622832 Ha         237.18064011 eV
  | Free-atom electrostatic energy:         -17.15022053 Ha        -466.68124517 eV
  | Hartree energy correction     :          -1.87762716 Ha         -51.09283448 eV
  | Entropy correction            :           0.00000000 Ha           0.00000000 eV
  | ---------------------------
  | Total energy                  :         -39.83190201 Ha       -1083.88120094 eV
  | Total energy, T -> 0          :         -39.83190201 Ha       -1083.88120094 eV  <-- do not rely on this value for anything but (periodic) metals
  | Electronic free energy        :         -39.83190201 Ha       -1083.88120094 eV

  Derived energy quantities:
  | Kinetic energy                :          39.43181434 Ha        1072.99426160 eV
  | Electrostatic energy          :         -72.77374378 Ha       -1980.27432347 eV
  | Energy correction for multipole
  | error in Hartree potential    :          -0.00288829 Ha          -0.07859443 eV
  | Sum of eigenvalues per atom                           :        -156.67165558 eV
  | Total energy (T->0) per atom                          :        -270.97030024 eV  <-- do not rely on this value for anything but (periodic) metals
  | Electronic free energy per atom                       :        -270.97030024 eV

  Self-consistency convergence accuracy:
  | Change of charge/spin density :  0.3795E-01  0.5873E-02
  | Change of sum of eigenvalues  : -0.6391E+00 eV
  | Change of total energy        :  0.3934E-02 eV

  End self-consistency iteration #     6       :  max(cpu_time)    wall_clock(cpu1)
  | Time for this iteration                    :        0.363 s           0.363 s
  | Charge density update                      :        0.067 s           0.067 s
  | Density mixing                             :        0.017 s           0.017 s
  | Hartree multipole update                   :        0.004 s           0.005 s
  | Hartree multipole summation                :        0.072 s           0.072 s
  | Integration                                :        0.200 s           0.200 s
  | Solution of K.-S. eqns.                    :        0.002 s           0.001 s
  | Total energy evaluation                    :        0.000 s           0.001 s

  Partial memory accounting:
  | Current value for overall tracked memory usage:
  |   Minimum:        0.022 MB (on task 3)
  |   Maximum:        0.024 MB (on task 0)
  |   Average:        0.023 MB
  | Peak value for overall tracked memory usage:
  |   Minimum:        0.966 MB (on task 7 after allocating grid_partition)
  |   Maximum:        1.669 MB (on task 0 after allocating grid_partition)
  |   Average:        1.304 MB
  | Largest tracked array allocation so far:
  |   Minimum:        0.640 MB (all_coords on task 7)
  |   Maximum:        1.108 MB (all_coords on task 0)
  |   Average:        0.865 MB
  Note:  These values currently only include a subset of arrays which are explicitly tracked.
  The "true" memory usage will be greater.
------------------------------------------------------------

------------------------------------------------------------
          Begin self-consistency iteration #    7

  Date     :  20190817, Time     :  153125.711
------------------------------------------------------------
  Evaluating new KS density.
  Integration grid: deviation in total charge (<rho> - N_e) =  -1.776357E-15
  | <rho_up-rho_dn> = N_up-N_dn =      1.0000; <|rho_up-rho_dn|> =      1.1129
  Pulay mixing of updated and previous charge densities.
  Renormalizing the density to the exact electron count on the 3D integration grid.
[...]
          Begin self-consistency iteration #   26

  Date     :  20190817, Time     :  153132.646
------------------------------------------------------------
  Evaluating new KS density and force components.
  Integration grid: deviation in total charge (<rho> - N_e) =   3.552714E-15
  | <rho_up-rho_dn> = N_up-N_dn =      1.0000; <|rho_up-rho_dn|> =      1.1150
  Pulay mixing of updated and previous charge densities.
  Renormalizing the density to the exact electron count on the 3D integration grid.
  | Formal number of electrons (from input files) :       9.0000000000
  | Integrated number of electrons on 3D grid     :       9.0000000000
  | Charge integration error                      :       0.0000000000
  | Normalization factor for density and gradient :       1.0000000000

  Evaluating partitioned Hartree potential by multipole expansion.
  | Original multipole sum: apparent total charge =   0.311623E-13
  | Sum of charges compensated after spline to logarithmic grids =   0.286124E-06
  | Analytical far-field extrapolation by fixed multipoles:
  | Hartree multipole sum: apparent total charge =   0.310885E-13
  Summing up the Hartree potential.
  Time summed over all CPUs for potential: real work        1.625 s, elapsed        1.647 s
  | RMS charge density error from multipole expansion :   0.329970E-02

  Integrating Hamiltonian matrix: batch-based integration.
  Time summed over all CPUs for integration: real work        1.566 s, elapsed        1.590 s

  Updating Kohn-Sham eigenvalues and eigenvectors using ELSI and the ELPA eigensolver.
  Starting ELPA eigensolver
  Finished transformation to standard eigenproblem
  | Time :     0.000 s
  Finished solving standard eigenproblem
  | Time :     0.000 s
  Finished back-transformation of eigenvectors
  | Time :     0.000 s
  Starting ELPA eigensolver
  Finished transformation to standard eigenproblem
  | Time :     0.001 s
  Finished solving standard eigenproblem
  | Time :     0.000 s
  Finished back-transformation of eigenvectors
  | Time :     0.000 s
  Fixed spin moments - chemical potentials:
  | Chemical potential, spin up:   -1.2273091172 eV.
  | Chemical potential, spin dn:   -5.6809320435 eV.
  | Fixed spin moment: Difference in chemical potentials between spin channels:   4.4536229263 eV.

  Current spin moment of the entire structure :
  | N = N_up - N_down :    1.00
  | S                 :    0.50
  | J                 :    2.00

  Highest occupied state (VBM) at     -5.56831320 eV
  | Occupation number:      1.00000000
  | Spin channel:        1

  Lowest unoccupied state (CBM) at    -2.16181245 eV
  | Occupation number:      0.00000000
  | Spin channel:        2

  Overall HOMO-LUMO gap:      3.40650074 eV.

  Total energy components:
  | Sum of eigenvalues            :         -23.12924593 Ha        -629.37880429 eV
  | XC energy correction          :          -6.48856260 Ha        -176.56277174 eV
  | XC potential correction       :           8.71366244 Ha         237.11081895 eV
  | Free-atom electrostatic energy:         -17.15022053 Ha        -466.68124517 eV
  | Hartree energy correction     :          -1.77713460 Ha         -48.35829277 eV
  | Entropy correction            :           0.00000000 Ha           0.00000000 eV
  | ---------------------------
  | Total energy                  :         -39.83150122 Ha       -1083.87029502 eV
  | Total energy, T -> 0          :         -39.83150122 Ha       -1083.87029502 eV  <-- do not rely on this value for anything but (periodic) metals
  | Electronic free energy        :         -39.83150122 Ha       -1083.87029502 eV

  Derived energy quantities:
  | Kinetic energy                :          39.50764572 Ha        1075.05773844 eV
  | Electrostatic energy          :         -72.85058435 Ha       -1982.36526173 eV
  | Energy correction for multipole
  | error in Hartree potential    :          -0.00256538 Ha          -0.06980748 eV
  | Sum of eigenvalues per atom                           :        -157.34470107 eV
  | Total energy (T->0) per atom                          :        -270.96757376 eV  <-- do not rely on this value for anything but (periodic) metals
  | Electronic free energy per atom                       :        -270.96757376 eV

  atomic forces [eV/Ang]:
  -----------------------
  atom #    1
   Hellmann-Feynman              :  0.614684E-13  0.468132E-02  0.324529E-13
   Ionic forces                  :  0.000000E+00  0.000000E+00  0.000000E+00
   Multipole                     : -0.291973E-13 -0.421363E-04 -0.952243E-14
   Pulay + GGA                   : -0.763578E-13  0.114192E-01 -0.335404E-13
   ----------------------------------------------------------------
   Total forces(   1)            : -0.440867E-13  0.160584E-01 -0.106099E-13
  atom #    2
   Hellmann-Feynman              : -0.627607E-14  0.100782E+01  0.158995E-14
   Ionic forces                  :  0.000000E+00  0.000000E+00  0.000000E+00
   Multipole                     : -0.129623E-15 -0.335032E-01 -0.459953E-16
   Pulay + GGA                   :  0.706377E-14 -0.833595E+00 -0.162796E-14
   ----------------------------------------------------------------
   Total forces(   2)            :  0.658070E-15  0.140721E+00 -0.840011E-16
  atom #    3
   Hellmann-Feynman              :  0.893307E+00 -0.512557E+00  0.160423E-13
   Ionic forces                  :  0.000000E+00  0.000000E+00  0.000000E+00
   Multipole                     : -0.290441E-01  0.168485E-01 -0.473891E-16
   Pulay + GGA                   : -0.723539E+00  0.418064E+00 -0.220778E-14
   ----------------------------------------------------------------
   Total forces(   3)            :  0.140724E+00 -0.776449E-01  0.137871E-13
  atom #    4
   Hellmann-Feynman              : -0.893307E+00 -0.512557E+00 -0.103123E-13
   Ionic forces                  :  0.000000E+00  0.000000E+00  0.000000E+00
   Multipole                     :  0.290441E-01  0.168485E-01 -0.439743E-15
   Pulay + GGA                   :  0.723539E+00  0.418064E+00 -0.780527E-15
   ----------------------------------------------------------------
   Total forces(   4)            : -0.140724E+00 -0.776449E-01 -0.115325E-13


  Self-consistency convergence accuracy:
  | Change of charge/spin density :  0.1243E-09  0.2879E-09
  | Change of sum of eigenvalues  : -0.3617E-08 eV
  | Change of total energy        :  0.0000E+00 eV
  | Change of forces              :  0.8565E+00 eV/A

  Writing Kohn-Sham eigenvalues.

  Spin-up eigenvalues:

  State    Occupation    Eigenvalue [Ha]    Eigenvalue [eV]
      1       1.00000         -10.075277         -274.16222
      2       1.00000          -0.659202          -17.93781
      3       1.00000          -0.389351          -10.59479
      4       1.00000          -0.389339          -10.59445
      5       1.00000          -0.204632           -5.56831
      6       0.00000           0.038002            1.03408
      7       0.00000           0.062631            1.70429
      8       0.00000           0.062636            1.70442
      9       0.00000           0.075626            2.05789
     10       0.00000           0.173346            4.71698
     11       0.00000           0.188983            5.14248
     12       0.00000           0.189012            5.14328
     13       0.00000           0.623575           16.96835

  Spin-down eigenvalues:

  State    Occupation    Eigenvalue [Ha]    Eigenvalue [eV]
      1       1.00000         -10.061617         -273.79053
      2       1.00000          -0.600766          -16.34767
      3       1.00000          -0.374537          -10.19168
      4       1.00000          -0.374525          -10.19134
      5       0.00000          -0.079445           -2.16181
      6       0.00000           0.057838            1.57386
      7       0.00000           0.084284            2.29348
      8       0.00000           0.084291            2.29367
      9       0.00000           0.172364            4.69027
     10       0.00000           0.174050            4.73613
     11       0.00000           0.174053            4.73622
     12       0.00000           0.197601            5.37700
     13       0.00000           0.626217           17.04022

  Current spin moment of the entire structure :
  | N = N_up - N_down :    1.00
  | S                 :    0.50
  | J                 :    2.00

  Highest occupied state (VBM) at     -5.56831320 eV
  | Occupation number:      1.00000000
  | Spin channel:        1

  Lowest unoccupied state (CBM) at    -2.16181245 eV
  | Occupation number:      0.00000000
  | Spin channel:        2

  Overall HOMO-LUMO gap:      3.40650074 eV.

  Self-consistency cycle converged.

  End self-consistency iteration #    26       :  max(cpu_time)    wall_clock(cpu1)
  | Time for this iteration                    :        0.853 s           0.854 s
  | Charge density & force component update    :        0.421 s           0.421 s
  | Density mixing                             :        0.021 s           0.021 s
  | Hartree multipole update                   :        0.004 s           0.004 s
  | Hartree multipole summation                :        0.206 s           0.206 s
  | Integration                                :        0.199 s           0.199 s
  | Solution of K.-S. eqns.                    :        0.001 s           0.002 s
  | Total energy evaluation                    :        0.000 s           0.000 s

  Partial memory accounting:
  | Current value for overall tracked memory usage:
  |   Minimum:        0.022 MB (on task 3)
  |   Maximum:        0.024 MB (on task 0)
  |   Average:        0.023 MB
  | Peak value for overall tracked memory usage:
  |   Minimum:        0.966 MB (on task 7 after allocating grid_partition)
  |   Maximum:        1.669 MB (on task 0 after allocating grid_partition)
  |   Average:        1.304 MB
  | Largest tracked array allocation so far:
  |   Minimum:        0.640 MB (all_coords on task 7)
  |   Maximum:        1.108 MB (all_coords on task 0)
  |   Average:        0.865 MB
  Note:  These values currently only include a subset of arrays which are explicitly tracked.
  The "true" memory usage will be greater.
------------------------------------------------------------
  Meta-GGA post processing starts
  Calculating meta-GGA energy as post processing, using DM
  Evaluating density matrix
  Evaluating density matrix
  | Meta-gga total energy         -39.85006301 Ha,       -1084.37538696 eV
 ----------------------------------------------------------------------------
 
  Removing unitary transformations (pure translations, rotations) from forces on atoms.
  Atomic forces before filtering:
  | Net force on center of mass :  -0.541686E-13  0.148906E-02 -0.843936E-14 eV/A
  | Net torque on center of mass:  -0.130575E-14 -0.236232E-13 -0.468502E-14 eV
  Atomic forces after filtering:
  | Net force on center of mass :   0.223008E-16  0.000000E+00  0.633826E-30 eV/A
  | Net torque on center of mass:   0.000000E+00  0.234784E-29 -0.118011E-16 eV

  Energy and forces in a compact form:
  | Total energy uncorrected      :         -0.108387029502208E+04 eV
  | Total energy corrected        :         -0.108387029502208E+04 eV  <-- do not rely on this value for anything but (periodic) metals
  | Electronic free energy        :         -0.108387029502208E+04 eV
  | Total energy Meta-GGA         :         -0.108437538696281E+04 eV
  Total atomic forces (unitary forces cleaned) [eV/Ang]:
  |    1         -0.305389921603726E-13          0.156861031388756E-01         -0.850006093131633E-14
  |    2          0.127568612754020E-13          0.140348274337099E+00          0.283335364377211E-14
  |    3          0.140724039247071E+00         -0.780171887379853E-01          0.283335364377211E-14
  |    4         -0.140724039247053E+00         -0.780171887379897E-01          0.283335364377211E-14

  ------------------------------------ 
  Start decomposition of the XC Energy 
  ------------------------------------ 
  X and C from original XC functional choice 
  Hartree-Fock Energy :          0.000000000 Ha              0.000000000 eV
  X Energy            :         -6.223825023 Ha           -169.358895775 eV
  C Energy            :         -0.264737576 Ha             -7.203875964 eV
  Total XC Energy     :         -6.488562599 Ha           -176.562771739 eV
  ------------------------------------ 
  Post-processing meta-GGA X and C from self-consistent density 
  Hartree-Fock Energy :          0.000000000 Ha              0.000000000 eV
  X Energy meta-GGA   :         -6.245886703 Ha           -169.959224621 eV
  C Energy meta-GGA   :         -0.261237684 Ha             -7.108639056 eV
  Total XC Energy     :         -6.507124387 Ha           -177.067863677 eV
  ------------------------------------ 
  LDA X and C from self-consistent density 
  X Energy LDA        :         -5.548652715 Ha           -150.986522497 eV
  C Energy LDA        :         -0.530084291 Ha            -14.424327458 eV
  ------------------------------------ 
  End decomposition of the XC Energy 
  ------------------------------------ 

------------------------------------------------------------
  |------------------------------------------------------
  | Final ELSI Output
  |------------------------------------------------------
  |
  | Physical Properties
  |   Number of electrons       :        0.90000000E+01
  |   Number of spins           :                     1
  |   Number of k-points        :                     1
  |   Number of states          :                    13
  |
  | Matrix Properties
  |   Matrix format             :           BLACS_DENSE
  |   Number of basis functions :                    34
  |   Matrix sparsity           :        0.48096886E+00
  |
  | Computational Details
  |   Parallel mode             :            MULTI_PROC
  |   Number of MPI tasks       :                     8
  |   Solver requested          :                  ELPA
  |   Number of ELSI calls      :                    54
  |
  |------------------------------------------------------
  | ELSI Project (c)  elsi-interchange.org
  |------------------------------------------------------

------------------------------------------------------------------------------
  Final output of selected total energy values:

  The following output summarizes some interesting total energy values
  at the end of a run (AFTER all relaxation, molecular dynamics, etc.).

  | Total energy of the DFT / Hartree-Fock s.c.f. calculation      :          -1083.870295022 eV
  | Final zero-broadening corrected energy (caution - metals only) :          -1083.870295022 eV
  | For reference only, the value of 1 Hartree used in FHI-aims is :             27.211384500 eV

  Before relying on these values, please be sure to understand exactly which
  total energy value is referred to by a given number. Different objects may
  all carry the same name 'total energy'. Definitions:

  Total energy of the DFT / Hartree-Fock s.c.f. calculation:
  | Note that this energy does not include ANY quantities calculated after the
  | s.c.f. cycle, in particular not ANY RPA, MP2, etc. many-body perturbation terms.

  Final zero-broadening corrected energy:
  | For metallic systems only, a broadening of the occupation numbers at the Fermi
  | level can be extrapolated back to zero broadening by an electron-gas inspired
  | formula. For all systems that are not real metals, this value can be
  | meaningless and should be avoided.

------------------------------------------------------------------------------
  Methods described in the following list of references were used in this FHI-aims run.
  If you publish the results, please make sure to cite these reference if they apply.
  FHI-aims is an academic code, and for our developers (often, Ph.D. students
  and postdocs), scientific credit in the community is essential.
  Thank you for helping us!

  For any use of FHI-aims, please cite:

    Volker Blum, Ralf Gehrke, Felix Hanke, Paula Havu, Ville Havu,
    Xinguo Ren, Karsten Reuter, and Matthias Scheffler
    'Ab initio molecular simulations with numeric atom-centered orbitals'
    Computer Physics Communications 180, 2175-2196 (2009)
    http://dx.doi.org/10.1016/j.cpc.2009.06.022


  The ELSI infrastructure was used in your run to solve the Kohn-Sham electronic structure.
  Please check out http://elsi-interchange.org to learn more.
  If scalability is important for your project, please acknowledge ELSI by citing:

    V. W-z. Yu, F. Corsetti, A. Garcia, W. P. Huhn, M. Jacquelin, W. Jia,
    B. Lange, L. Lin, J. Lu, W. Mi, A. Seifitokaldani, A. Vazquez-Mayagoitia,
    C. Yang, H. Yang, and V. Blum
    'ELSI: A unified software interface for Kohn-Sham electronic structure solvers'
    Computer Physics Communications 222, 267-285 (2018).
    http://dx.doi.org/10.1016/j.cpc.2017.09.007


  For the real-space grid partitioning and parallelization used in this calculation, please cite:

    Ville Havu, Volker Blum, Paula Havu, and Matthias Scheffler,
    'Efficient O(N) integration for all-electron electronic structure calculation'
    'using numerically tabulated basis functions'
    Journal of Computational Physics 228, 8367-8379 (2009).
    http://dx.doi.org/10.1016/j.jcp.2009.08.008

  Of course, there are many other important community references, e.g., those cited in the
  above references. Our list is limited to references that describe implementations in the
  FHI-aims code. The reason is purely practical (length of this list) - please credit others as well.

------------------------------------------------------------
          Leaving FHI-aims.
          Date     :  20190817, Time     :  153133.829

          Computational steps:
          | Number of self-consistency cycles          :           26
          | Number of SCF (re)initializations          :            1

          Detailed time accounting                     :  max(cpu_time)    wall_clock(cpu1)
          | Total time                                 :       10.984 s          11.011 s
          | Preparation time                           :        0.207 s           0.207 s
          | Boundary condition initalization           :        0.000 s           0.001 s
          | Grid partitioning                          :        0.089 s           0.090 s
          | Preloading free-atom quantities on grid    :        0.033 s           0.033 s
          | Free-atom superposition energy             :        0.027 s           0.027 s
          | Total time for integrations                :        5.410 s           5.411 s
          | Total time for solution of K.-S. equations :        0.042 s           0.039 s
          | Total time for density & force components  :        2.105 s           2.101 s
          | Total time for mixing                      :        0.498 s           0.498 s
          | Total time for Hartree multipole update    :        0.109 s           0.111 s
          | Total time for Hartree multipole sum       :        1.898 s           1.900 s
          | Total time for total energy evaluation     :        0.004 s           0.007 s

          Partial memory accounting:
          | Residual value for overall tracked memory usage across tasks:     0.000000 MB (should be 0.000000 MB)
          | Peak values for overall tracked memory usage:
          |   Minimum:        0.966 MB (on task 7 after allocating grid_partition)
          |   Maximum:        1.669 MB (on task 0 after allocating grid_partition)
          |   Average:        1.304 MB
          | Largest tracked array allocation:
          |   Minimum:        0.640 MB (all_coords on task 7)
          |   Maximum:        1.108 MB (all_coords on task 0)
          |   Average:        0.865 MB
          Note:  These values currently only include a subset of arrays which are explicitly tracked.
          The "true" memory usage will be greater.

          Have a nice day.
------------------------------------------------------------
