  MPI-parallelism will be employed.
------------------------------------------------------------
          Invoking FHI-aims ...

          When using FHI-aims, please cite the following reference:

          Volker Blum, Ralf Gehrke, Felix Hanke, Paula Havu,
          Ville Havu, Xinguo Ren, Karsten Reuter, and Matthias Scheffler,
          'Ab Initio Molecular Simulations with Numeric Atom-Centered Orbitals',
          Computer Physics Communications 180, 2175-2196 (2009)

          For any questions about FHI-aims, please visit the aimsclub website
          with its forums and wiki. Contributions to both the forums and the
          wiki are warmly encouraged - they are for you, and everyone is welcome there.

------------------------------------------------------------



  Date     :  20190817, Time     :  153305.468
  Time zero on CPU 1             :   0.324960000000000E-01  s.
  Internal wall clock time zero  :           335287985.468  s.

  FHI-aims created a unique identifier for this run for later identification
  aims_uuid : CC535373-4379-43D9-AD18-98792746DBC8

  Build configuration of the current instance of FHI-aims
  -------------------------------------------------------
  FHI-aims version      : 190813
  Commit number         : 3da7baeb3
  CMake host system     : Linux-4.4.180-94.97-default
  CMake version         : 3.5.2
  Fortran compiler      : /mpcdf/soft/SLE_12_SP3/packages/x86_64/intel_parallel_studio/2018.4/compilers_and_libraries_2018.5.274/linux/mpi/bin64/mpiifort (Intel) version 18.0.5.20180823
  Fortran compiler flags: -O3 -ip -fp-model precise
  C compiler            : /mpcdf/soft/SLE_12_SP3/packages/skylake/intel/18.0.5/bin/icc (Intel) version 18.0.5.20180823
  C compiler flags      : -O3 -ip -fp-model precise
  Architecture          :
  Using MPI
  Using Scalapack
  Using C files
  Using SPGlib
  Using i-PI
  Linking against: /mpcdf/soft/SLE_12_SP3/packages/x86_64/anaconda/3.5.1.0/lib/libmkl_intel_lp64.so
                   /mpcdf/soft/SLE_12_SP3/packages/x86_64/anaconda/3.5.1.0/lib/libmkl_sequential.so
                   /mpcdf/soft/SLE_12_SP3/packages/x86_64/anaconda/3.5.1.0/lib/libmkl_core.so
                   /mpcdf/soft/SLE_12_SP3/packages/x86_64/anaconda/3.5.1.0/lib/libmkl_blacs_intelmpi_lp64.so
                   /mpcdf/soft/SLE_12_SP3/packages/x86_64/anaconda/3.5.1.0/lib/libmkl_scalapack_lp64.so

  Using        8 parallel tasks.
  Task        0 on host co1631 reporting.
  Task        1 on host co1631 reporting.
  Task        2 on host co1631 reporting.
  Task        3 on host co1631 reporting.
  Task        4 on host co1631 reporting.
  Task        5 on host co1631 reporting.
  Task        6 on host co1631 reporting.
  Task        7 on host co1631 reporting.

  Performing system and environment tests:
  | Environment variable OMP_NUM_THREADS correctly set to 1.
  | Maximum stacksize for task 0: unlimited
  | Maximum stacksize for task 1: unlimited
  | Maximum stacksize for task 2: unlimited
  | Maximum stacksize for task 3: unlimited
  | Maximum stacksize for task 4: unlimited
  | Maximum stacksize for task 5: unlimited
  | Maximum stacksize for task 6: unlimited
  | Maximum stacksize for task 7: unlimited
  | Current stacksize for task 0: unlimited
  | Current stacksize for task 1: unlimited
  | Current stacksize for task 2: unlimited
  | Current stacksize for task 3: unlimited
  | Current stacksize for task 4: unlimited
  | Current stacksize for task 5: unlimited
  | Current stacksize for task 6: unlimited
  | Current stacksize for task 7: unlimited
  | Checking for scalapack...
  | Testing pdtran()...
  | All pdtran() tests passed.

  Obtaining array dimensions for all initial allocations:
  
  -----------------------------------------------------------------------
  Parsing control.in (first pass over file, find array dimensions only).
  The contents of control.in will be repeated verbatim below
  unless switched off by setting 'verbatim_writeout .false.' .
  in the first line of control.in .
  -----------------------------------------------------------------------
  
  # Taken from the CPC of Knuth et al. for stress tensors. Only change is k_grid
  #########################################################################################
  #
  #  Species-independent part of control.in-file
  #
  #########################################################################################
  #
  #  Physical model
  #
  #  override_warning_libxc
    xc                 tpss
  #  xc                 libxc MGGA_X_TPSS+MGGA_C_TPSS
    spin               none
    relativistic       atomic_zora scalar
    charge             0.
  #
  #  SCF convergence
  #
    occupation_type    gaussian 0.05
    sc_accuracy_rho    1E-5
  # Decreased to ensure we still get accruacy in test. AJL, March 2018
  #  sc_accuracy_eev    1E-3
    sc_accuracy_eev    1E-4
    sc_accuracy_etot   1E-6
    sc_accuracy_forces 1E-4
    sc_accuracy_stress not_checked
    sc_iter_limit      100
  #
    k_grid             1 1 1
  
    partition_type stratmann_smoother
  
    compute_analytical_stress .true.
  
  ################################################################################
  #
  #  FHI-aims code project
  #  VB, Fritz-Haber Institut, 2009
  #
  #  Suggested "light" defaults for Ga atom (to be pasted into control.in file)
  #  Be sure to double-check any results obtained with these settings for post-processing,
  #  e.g., with the "tight" defaults and larger basis sets.
  #
  ################################################################################
    species        Ga
  #     global species definitions
      nucleus             31
      mass                69.723
  #
      l_hartree           4
  #
      cut_pot             3.5          1.5  1.0
      basis_dep_cutoff    1e-4
  #
      radial_base         54 5.0
      radial_multiplier   1
      angular_grids       specified
        division   0.5103   50
        division   0.8880  110
        division   1.2009  194
        division   1.5000  302
  #      division   1.7093  434
  #      division   1.8791  590
  #      division   1.9525  770
  #      division   2.3801 1202
  #      outer_grid  1202
        outer_grid  302
  ################################################################################
  #
  #  Definition of "minimal" basis
  #
  ################################################################################
  #     valence basis states
      valence      4  s   2.
      valence      4  p   1.
      valence      3  d  10.
  #     ion occupancy
      ion_occ      4  s   1.
      ion_occ      3  p   6.
      ion_occ      3  d  10.
  ################################################################################
  #
  #  Suggested additional basis functions. For production calculations,
  #  uncomment them one after another (the most important basis functions are
  #  listed first).
  #
  #  Constructed for dimers: 1.85 A, 2.10 A, 2.45 A, 3.00 A, 4.00 A
  #
  ################################################################################
  #  "First tier" - improvements: -222.33 meV to -26.19 meV
       hydro 2 p 1.2
       hydro 3 d 3.8
  #     hydro 4 f 6.8
       ionic 4 s auto
  #  "Second tier" - improvements: -11.68 meV to -1.61 meV
  #     hydro 5 g 10
  #     hydro 4 p 3.6
  #     hydro 4 f 13.2
  #     hydro 6 h 14.4
  #     hydro 4 d 5.2
  #     hydro 1 s 0.45
  #  "Third tier" - improvements: -0.64 meV to -0.15 meV
  #     hydro 3 p 3.4
  #     hydro 3 s 2.2
  #     hydro 5 g 14
  #     hydro 4 f 6.2
  #     hydro 5 d 7.2
  #  "Fourth tier"  -improvements: -0.12 meV and below
  #     hydro 3 s 3.8
  #     hydro 5 f 27.2
  #     hydro 6 h 16
  #     hydro 5 g 9.2
  #     hydro 4 d 8.6
  #     hydro 2 p 3.6
  
  ################################################################################
  #
  #  FHI-aims code project
  #  VB, Fritz-Haber Institut, 2009
  #
  #  Suggested "light" defaults for As atom (to be pasted into control.in file)
  #  Be sure to double-check any results obtained with these settings for post-processing,
  #  e.g., with the "tight" defaults and larger basis sets.
  #
  ################################################################################
    species        As
  #
      nucleus             33
      mass                74.92160
  #
      l_hartree           4
  #
      cut_pot             3.5          1.5  1.0
      basis_dep_cutoff    1e-4
  #
      radial_base         55 5.0
      radial_multiplier   1
      angular_grids       specified
        division   0.4982   50
        division   0.9113  110
        division   1.1593  194
        division   1.4959  302
  #      division   1.6697  434
  #      division   1.8319  590
  #      division   1.9752  770
  #      division   2.0131  974
  #      division   2.4015 1202
  #      outer_grid  1202
        outer_grid  302
  ################################################################################
  #
  #  Definition of "minimal" basis
  #
  ################################################################################
  #     valence basis states
      valence      4  s   2.
      valence      4  p   3.
      valence      3  d  10.
  #     ion occupancy
      ion_occ      4  s   1.
      ion_occ      4  p   2.
      ion_occ      3  d  10.
  ################################################################################
  #
  #  Suggested additional basis functions. For production calculations,
  #  uncomment them one after another (the most important basis functions are
  #  listed first).
  #
  #  Constructed for dimers: 1.75 A, 2.10 A, 2.50 A, 3.00 A, 4.00 A
  #
  ################################################################################
  #  "First tier" - improvements: -385.12 meV to -54.94 meV
       hydro 3 d 4
       hydro 2 p 1.5
  #     hydro 4 f 6.8
       ionic 4 s auto
  #  "Second tier" - improvements: -22.14 meV to -3.21 meV
  #     hydro 5 g 10
  #     hydro 6 h 13.6
  #     hydro 4 p 4.3
  #     hydro 4 f 15.6
  #     hydro 4 d 5.4
  #     hydro 1 s 0.6
  #  "Third tier" - improvements: -0.57 meV to -0.13 meV
  #     hydro 5 g 16.4
  #     hydro 4 f 7.4
  #     hydro 5 d 7.4
  #     ionic 4 p auto
  #     hydro 3 s 2.6
  #  "Fourth tier" - improvements: -0.30 meV and below
  #     hydro 3 p 3
  #     hydro 6 h 18.4
  #     hydro 5 d 11.2
  #     hydro 5 f 15.2
  #     hydro 5 g 13.6
  #     hydro 5 s 6.2
  
  -----------------------------------------------------------------------
  Completed first pass over input file control.in .
  -----------------------------------------------------------------------
  
  
  -----------------------------------------------------------------------
  Parsing geometry.in (first pass over file, find array dimensions only).
  The contents of geometry.in will be repeated verbatim below
  unless switched off by setting 'verbatim_writeout .false.' .
  in the first line of geometry.in .
  -----------------------------------------------------------------------
  
  #
  # This is the geometry file that corresponds to the current relaxation step.
  # If you do not want this file to be written, set the "write_restart_geometry" flag to .false.
  #  aims_uuid : 1CD3FBC0-EB25-47C3-A1DB-FCBED1005AC7
  #
  lattice_vector     -0.00976328      2.77246925      2.77250470
  lattice_vector      2.77226347     -0.00968175      2.77222890
  lattice_vector      2.77240833      2.77233829     -0.00972084
  atom_frac      -0.00647217     -0.00673740     -0.00659623 Ga
  atom_frac       0.25782556      0.25809076      0.25794962 As
  
  -----------------------------------------------------------------------
  Completed first pass over input file geometry.in .
  -----------------------------------------------------------------------
  

  Basic array size parameters:
  | Number of species                 :        2
  | Number of atoms                   :        2
  | Number of lattice vectors         :        3
  | Max. basis fn. angular momentum   :        2
  | Max. atomic/ionic basis occupied n:        4
  | Max. number of basis fn. types    :        3
  | Max. radial fns per species/type  :        8
  | Max. logarithmic grid size        :     1417
  | Max. radial integration grid size :       55
  | Max. angular integration grid size:      302
  | Max. angular grid division number :        8
  | Radial grid for Hartree potential :     1417
  | Number of spin channels           :        1

------------------------------------------------------------
          Reading file control.in.
------------------------------------------------------------
  XC: Using TPSS gradient-corrected functionals.
  Spin treatment: No spin polarisation.
  Scalar relativistic treatment of kinetic energy: on-site free-atom approximation to ZORA.
  Charge =   0.000000E+00: Neutral system requested explicitly.
  Occupation type: Gaussian broadening, width =   0.500000E-01 eV.
  Convergence accuracy of self-consistent charge density:  0.1000E-04
  Convergence accuracy of sum of eigenvalues:  0.1000E-03
  Convergence accuracy of total energy:  0.1000E-05
  Convergence accuracy of forces:  0.1000E-03
  | Analytical stress self-consistency will not be checked explicitly.
  Maximum number of s.-c. iterations  :   100
  Found k-point grid:         1         1         1
  Partition function in integrals is Stratmann, with an additionally restricted atom list.
  | At each point, only atoms whose outer radius of each atom as given by basis functions,
  | free-atom potential etc. may contribute.
 
  Reading configuration options for species Ga                  .
  | Found nuclear charge :  31.0000
  | Found atomic mass :    69.7230000000000      amu
  | Found l_max for Hartree potential  :   4
  | Found cutoff potl. onset [A], width [A], scale factor :    3.50000    1.50000    1.00000
  | Threshold for basis-dependent cutoff potential is   0.100000E-03
  | Found data for basic radial integration grid :    54 points, outermost radius =    5.000 A
  | Found multiplier for basic radial grid :   1
  | Found angular grid specification: user-specified.
  | Specified grid contains     5 separate shells.
  | Check grid settings after all constraints further below.
  | Found free-atom valence shell :  4 s   2.000
  | Found free-atom valence shell :  4 p   1.000
  | Found free-atom valence shell :  3 d  10.000
  | Found free-ion valence shell :  4 s   1.000
  | Found free-ion valence shell :  3 p   6.000
  | Found free-ion valence shell :  3 d  10.000
  | Found hydrogenic basis function :  2 p   1.200
  | Found hydrogenic basis function :  3 d   3.800
  | Found ionic basis function :  4 s , default cutoff radius.
  Species Ga                  : Missing cutoff potential type.
  Defaulting to exp(1/x)/(1-x)^2 type cutoff potential.
  Species Ga: No 'logarithmic' tag. Using default grid for free atom:
  | Default logarithmic grid data [bohr] : 0.1000E-03 0.1000E+03 0.1012E+01
  | Will include ionic basis functions of  2.0-fold positive Ga                   ion.
  Species Ga: On-site basis accuracy parameter (for Gram-Schmidt orthonormalisation) not specified.
  Using default value basis_acc =  0.1000000E-03.
  Species Ga                  : Using default innermost maximum threshold i_radial=  2 for radial functions.
  Species Ga                  : Default cutoff onset for free atom density etc. : 0.35000000E+01 AA.
  Species Ga                  : Basic radial grid will be enhanced according to radial_multiplier =   1, to contain    54 grid points.
 
  Reading configuration options for species As                  .
  | Found nuclear charge :  33.0000
  | Found atomic mass :    74.9216000000000      amu
  | Found l_max for Hartree potential  :   4
  | Found cutoff potl. onset [A], width [A], scale factor :    3.50000    1.50000    1.00000
  | Threshold for basis-dependent cutoff potential is   0.100000E-03
  | Found data for basic radial integration grid :    55 points, outermost radius =    5.000 A
  | Found multiplier for basic radial grid :   1
  | Found angular grid specification: user-specified.
  | Specified grid contains     5 separate shells.
  | Check grid settings after all constraints further below.
  | Found free-atom valence shell :  4 s   2.000
  | Found free-atom valence shell :  4 p   3.000
  | Found free-atom valence shell :  3 d  10.000
  | Found free-ion valence shell :  4 s   1.000
  | Found free-ion valence shell :  4 p   2.000
  | Found free-ion valence shell :  3 d  10.000
  | Found hydrogenic basis function :  3 d   4.000
  | Found hydrogenic basis function :  2 p   1.500
  | Found ionic basis function :  4 s , default cutoff radius.
  Species As                  : Missing cutoff potential type.
  Defaulting to exp(1/x)/(1-x)^2 type cutoff potential.
  Species As: No 'logarithmic' tag. Using default grid for free atom:
  | Default logarithmic grid data [bohr] : 0.1000E-03 0.1000E+03 0.1012E+01
  | Will include ionic basis functions of  2.0-fold positive As                   ion.
  Species As: On-site basis accuracy parameter (for Gram-Schmidt orthonormalisation) not specified.
  Using default value basis_acc =  0.1000000E-03.
  Species As                  : Using default innermost maximum threshold i_radial=  2 for radial functions.
  Species As                  : Default cutoff onset for free atom density etc. : 0.35000000E+01 AA.
  Species As                  : Basic radial grid will be enhanced according to radial_multiplier =   1, to contain    55 grid points.
 
  Finished reading input file 'control.in'. Consistency checks are next.
 
  MPI_IN_PLACE appears to work with this MPI implementation.
  | Keeping use_mpi_in_place .true. (see manual).
  Target number of points in a grid batch is not set. Defaulting to  100
  Method for grid partitioning is not set. Defaulting to parallel hash+maxmin partitioning.
  Batch size limit is not set. Defaulting to    200
  By default, will store active basis functions for each batch.
  If in need of memory, prune_basis_once .false. can be used to disable this option.
  communication_type for Hartree potential was not specified.
  Defaulting to calc_hartree .
  Defaulting to Pulay charge density mixer.
  Pulay mixer: Number of relevant iterations not set.
  Defaulting to    8 iterations.
  Pulay mixer: Number of initial linear mixing iterations not set.
  Defaulting to    0 iterations.
  Work space size for distributed Hartree potential not set.
  Defaulting to   0.200000E+03 MB.
  Mixing parameter for charge density mixing has not been set.
  Using default: charge_mix_param =     0.0500.
  The mixing parameter will be adjusted in iteration number     2 of the first full s.c.f. cycle only.
  Algorithm-dependent basis array size parameters:
  | n_max_pulay                         :        8
  Presetting      1001 iterations before the initial mixing cycle
  is restarted anyway using the sc_init_iter criterion / keyword.
  Presetting a factor      1.000 between actual scf density residual
  and density convergence criterion sc_accuracy_rho below which sc_init_iter
  takes no effect.
  Geometry relaxation not requested: no relaxation will be performed.
  Analytical stress will be computed.
  Analytical stress calculation: Only the upper triangle is calculated.
                                 Final output is symmetrized.
  Handling of forces: Unphysical translation and rotation will be removed from forces.
  No accuracy limit for integral partition fn. given. Defaulting to  0.1000E-14.
  No threshold value for u(r) in integrations given. Defaulting to  0.1000E-05.
  No accuracy for occupation numbers given. Defaulting to  0.1000E-12.
  No threshold value for occupation numbers given. Defaulting to  0.0000E+00.
  No accuracy for fermi level given. Defaulting to  0.1000E-19.
  Maximum # of iterations to find E_F not set. Defaulting to  200.
  Preferred method for the eigenvalue solver ('KS_method') not specified in 'control.in'.
  Calling BLACS routine to test compilation state
  Since ScaLAPACK support is enabled, defaulting to ELPA (via ELSI).
  Will not use alltoall communication since running on < 1024 CPUs.
  Threshold for basis singularities not set.
  Default threshold for basis singularities:  0.1000E-04
  Partitioning for Hartree potential was not defined. Using partition_type for integrals.
  | Adjusted default value of keyword multip_moments_threshold to:       0.10000000E-11
  | This value may affect high angular momentum components of the Hartree potential in periodic systems.
  Angular momentum expansion for Kerker preconditioner not set explicitly.
  | Using default value of   0
  No explicit requirement for turning off preconditioner.
  | By default, it will be turned off when the charge convergence reaches
  | sc_accuracy_rho  =   0.100000E-04
  | sc_accuracy_eev  =   0.100000E-03
  | sc_accuracy_etot =   0.100000E-05
  No special mixing parameter while Kerker preconditioner is on.
  Using default: charge_mix_param =     0.0500.
  No q(lm)/r^(l+1) cutoff set for long-range Hartree potential.
  | Using default value of  0.100000E-09 .
  | Verify using the multipole_threshold keyword.
  Defaulting to new monopole extrapolation.
  Density update method: automatic selection selected.
  Using density matrix based charge density update.
  Using density matrix based charge density update.
  Using packed matrix style: index .
  Defaulting to use time-reversal symmetry for k-point grid.
  Charge integration errors on the 3D integration grid will be compensated
  by explicit normalization and distribution of residual charges.
  Use the "compensate_multipole_errors" flag to change this behaviour.
------------------------------------------------------------


------------------------------------------------------------
          Reading geometry description geometry.in.
------------------------------------------------------------
  Input structure read successfully.
  The structure contains        2 atoms,  and a total of         64.000 electrons.

  Input geometry:
  | Unit cell:
  |       -0.00976328        2.77246925        2.77250470
  |        2.77226347       -0.00968175        2.77222890
  |        2.77240833        2.77233829       -0.00972084
  | Atomic structure:
  |       Atom                x [A]            y [A]            z [A]
  |    1: Species Ga           -0.03690210       -0.03616564       -0.03655762
  |    2: Species As            1.42812004        1.42743828        1.42780175

  Lattice parameters for 3D lattice (in Angstroms) :     3.920901    3.920560    3.920740
  Angle(s) between unit vectors (in degrees)       :    60.230822   60.233040   60.231943

  | The smallest distance between any two atoms is         2.36431243 AA.
  | The first atom of this pair is atom number                      1 .
  | The second atom of this pair is atom number                     2 .
  | Wigner-Seitz cell of the first atom image           0     1     0 .
  | (The Wigner-Seitz cell of the second atom is 0 0 0  by definition.)

  Symmetry information by spglib:
  | Precision set to  0.1E-04
  | Number of Operations  : 1
  | Space group           : 1
  | International         : P1 s
  | Schoenflies           : C1^1

  Quantities derived from the lattice vectors:
  | Reciprocal lattice vector 1: -1.127167  1.131162  1.131132
  | Reciprocal lattice vector 2:  1.131246 -1.127308  1.131277
  | Reciprocal lattice vector 3:  1.131171  1.131232 -1.127235
  | Unit cell volume                               :   0.428412E+02  A^3

  Range separation radius for Ewald summation (hartree_convergence_parameter):      3.98619577 bohr.

  Fractional coordinates:
                         L1                L2                L3
       atom_frac        -0.00647217       -0.00673740       -0.00659623  Ga
       atom_frac         0.25782556        0.25809076        0.25794962  As

  Number of empty states per atom not set in control.in - providing a guess from actual geometry.
  | Total number of empty states used during s.c.f. cycle:       11
  If you use a very high smearing, use empty_states (per atom!) in control.in to increase this value.

  Structure-dependent array size parameters: 
  | Maximum number of distinct radial functions  :       22
  | Maximum number of basis functions            :       54
  | Number of Kohn-Sham states (occupied + empty):       43
------------------------------------------------------------

------------------------------------------------------------
          Preparing all fixed parts of the calculation.
------------------------------------------------------------
  Determining machine precision:
    2.225073858507201E-308
  Setting up grids for atomic and cluster calculations.

  Creating wave function, potential, and density for free atoms.

  Species: Ga

  List of occupied orbitals and eigenvalues:
    n    l              occ      energy [Ha]    energy [eV]
    1    0           2.0000      -379.762848    -10333.8729
    2    0           2.0000       -46.377828     -1262.0049
    3    0           2.0000        -5.403615      -147.0398
    4    0           2.0000        -0.325201        -8.8492
    2    1           6.0000       -40.412175     -1099.6712
    3    1           6.0000        -3.610292       -98.2410
    4    1           1.0000        -0.085390        -2.3236
    3    2          10.0000        -0.698639       -19.0109


  Species: As

  List of occupied orbitals and eigenvalues:
    n    l              occ      energy [Ha]    energy [eV]
    1    0           2.0000      -435.857655    -11860.2902
    2    0           2.0000       -54.660335     -1487.3834
    3    0           2.0000        -6.957798      -189.3313
    4    0           2.0000        -0.534294       -14.5389
    2    1           6.0000       -47.972207     -1305.3902
    3    1           6.0000        -4.895517      -133.2138
    4    1           3.0000        -0.190466        -5.1828
    3    2          10.0000        -1.496218       -40.7142

  Creating fixed part of basis set: Ionic, confined, hydrogenic.
 
  Ga                   ion:

  List of free ionic orbitals and eigenvalues:
    n    l      energy [Ha]    energy [eV]
    1    0      -380.546864    -10355.2070
    2    0       -47.141602     -1282.7882
    3    0        -6.171021      -167.9220
    4    0        -0.972660       -26.4674
    2    1       -41.177133     -1120.4868
    3    1        -4.377668      -119.1224
    3    2        -1.460668       -39.7468


  List of ionic basis orbitals and eigenvalues:
    n    l      energy [Ha]    energy [eV]    outer radius [A]
    4    0        -0.972634       -26.4667       4.317045

 
  Ga                   hydrogenic:
 
  List of hydrogenic basis orbitals: 
    n    l      effective z      eigenvalue [eV]  inner max. [A]     outer max. [A]     outer radius [A]   
    2    1         1.200000        -4.5108           1.643450           1.643450           4.589156
    3    2         3.800000       -21.8139           1.255894           1.255894           4.589156
 
 
  As                   ion:

  List of free ionic orbitals and eigenvalues:
    n    l      energy [Ha]    energy [eV]
    1    0      -436.736647    -11884.2088
    2    0       -55.519096     -1510.7515
    3    0        -7.813292      -212.6105
    4    0        -1.273927       -34.6653
    2    1       -48.831835     -1328.7818
    3    1        -5.750372      -156.4756
    4    1        -0.870812       -23.6960
    3    2        -2.346828       -63.8604


  List of ionic basis orbitals and eigenvalues:
    n    l      energy [Ha]    energy [eV]    outer radius [A]
    4    0        -1.273910       -34.6649       3.909368

 
  As                   hydrogenic:
 
  List of hydrogenic basis orbitals: 
    n    l      effective z      eigenvalue [eV]  inner max. [A]     outer max. [A]     outer radius [A]   
    3    2         4.000000       -24.1792           1.194291           1.194291           4.582756
    2    1         1.500000        -7.5079           1.382996           1.382996           4.582756
 

  Adding cutoff potential to free-atom effective potential.
  Creating atomic-like basis functions for current effective potential.

  Species Ga                  :

  List of atomic basis orbitals and eigenvalues:
    n    l      energy [Ha]    energy [eV]    outer radius [A]
    1    0      -379.762848    -10333.8729       0.339519
    2    0       -46.377828     -1262.0049       0.983486
    3    0        -5.403615      -147.0398       2.780058
    4    0        -0.325201        -8.8492       4.533395
    2    1       -40.412175     -1099.6712       1.020225
    3    1        -3.610292       -98.2410       3.258922
    4    1        -0.085390        -2.3236       4.589156
    3    2        -0.698639       -19.0109       4.370145


  Species As                  :

  List of atomic basis orbitals and eigenvalues:
    n    l      energy [Ha]    energy [eV]    outer radius [A]
    1    0      -435.857655    -11860.2902       0.318942
    2    0       -54.660335     -1487.3834       0.912655
    3    0        -6.957798      -189.3313       2.486936
    4    0        -0.534294       -14.5389       4.527073
    2    1       -47.972207     -1305.3902       0.946748
    3    1        -4.895517      -133.2138       2.844895
    4    1        -0.190466        -5.1828       4.582756
    3    2        -1.496218       -40.7142       4.155782

  Assembling full basis from fixed parts.
  | Species Ga :   atomic orbital   1 s accepted.
  | Species Ga :   atomic orbital   2 s accepted.
  | Species Ga :   atomic orbital   3 s accepted.
  | Species Ga :    ionic orbital   4 s accepted.
  | Species Ga :   atomic orbital   4 s accepted.
  | Species Ga :   atomic orbital   2 p accepted.
  | Species Ga :   atomic orbital   3 p accepted.
  | Species Ga :   atomic orbital   4 p accepted.
  | Species Ga :    hydro orbital   2 p accepted.
  | Species Ga :   atomic orbital   3 d accepted.
  | Species Ga :    hydro orbital   3 d accepted.
  | Species As :   atomic orbital   1 s accepted.
  | Species As :   atomic orbital   2 s accepted.
  | Species As :   atomic orbital   3 s accepted.
  | Species As :    ionic orbital   4 s accepted.
  | Species As :   atomic orbital   4 s accepted.
  | Species As :   atomic orbital   2 p accepted.
  | Species As :   atomic orbital   3 p accepted.
  | Species As :   atomic orbital   4 p accepted.
  | Species As :    hydro orbital   2 p accepted.
  | Species As :   atomic orbital   3 d accepted.
  | Species As :    hydro orbital   3 d accepted.
 
  Basis size parameters after reduction:
  | Total number of radial functions:       22
  | Total number of basis functions :       54
 
  Per-task memory consumption for arrays in subroutine allocate_ext:
  |           7.983024MB.
  Testing on-site integration grid accuracy.
  |  Species  Function  <phi|h_atom|phi> (log., in eV)  <phi|h_atom|phi> (rad., in eV)
           1        1             -10333.8728676356             -10333.8624342243
           1        2              -1262.0049156100              -1262.0047899508
           1        3               -147.0398365059               -147.0398335448
           1        4                 -8.4477340493                 -8.4475911656
           1        5                  5.0007618939                  4.9130445814 ***
           1        6              -1099.6712427177              -1099.6712411806
           1        7                -98.2410483038                -98.2410478455
           1        8                 -2.3457104814                 -2.3739752760
           1        9                  7.0244860370                  6.8032906334 ***
           1       10                -19.0109297180                -19.0109305077
           1       11                  8.8971144782                  8.8913362074
           2       12             -11860.2902331088             -11860.2770785865
           2       13              -1487.3833855771              -1487.3832236077
           2       14               -189.3313144642               -189.3313101703
           2       15                -14.2920414084                -14.2921220803
           2       16                  5.5315596967                  5.5509767744
           2       17              -1305.3901645762              -1305.3901639299
           2       18               -133.2137916165               -133.2137908054
           2       19                 -5.1879535578                 -5.1939530117
           2       20                  6.2223889572                  6.1100909279 ***
           2       21                -40.7141541651                -40.7141539185
           2       22                  7.1977031164                  7.1946603593
 * Note: Onsite integrals marked "***" above are less accurate than
 * onsite_accuracy_threshold =    0.03000 eV. Usually, this is harmless.
 * When in doubt, tighten the "radial" and/or "radial_multiplier" flags to check.

  Preparing densities etc. for the partition functions (integrals / Hartree potential).

  Preparations completed.
  max(cpu_time)          :      0.377 s.
  Wall clock time (cpu1) :      0.376 s.
------------------------------------------------------------

------------------------------------------------------------
          Begin self-consistency loop: Initialization.

          Date     :  20190817, Time     :  153305.899
------------------------------------------------------------

  Initializing index lists of integration centers etc. from given atomic structure:
  Mapping all atomic coordinates to central unit cell.

  Initializing the k-points
          Using symmetry for reducing the k-points
  | k-points reduced from:        1 to        1
  | Number of k-points                             :         1
  The eigenvectors in the calculations are REAL.
  | Number of basis functions in the Hamiltonian integrals :      1688
  | Number of basis functions in a single unit cell        :        54
  | Number of centers in hartree potential         :       720
  | Number of centers in hartree multipole         :       318
  | Number of centers in electron density summation:       190
  | Number of centers in basis integrals           :       210
  | Number of centers in integrals                 :       101
  | Number of centers in hamiltonian               :       190
  | Consuming          1 KiB for k_phase.
  | Number of super-cells (origin) [n_cells]                     :        2197
  | Number of super-cells (after PM_index) [n_cells]             :         112
  | Number of super-cells in hamiltonian [n_cells_in_hamiltonian]:         112
  | Size of matrix packed + index [n_hamiltonian_matrix_size] :       73320
  | Estimated reciprocal-space cutoff momentum G_max:         2.33911058 bohr^-1 .
  | Reciprocal lattice points for long-range Hartree potential:      58
  Using simple linear distribution as default method for k-point parallelism.
  * Using 8 tasks for Scalapack Eigenvalue solver.
  Detailed listing of tasks and assigned k-points:
   Task     0 k-point     1 on co1631
   Task     1 k-point     1 on co1631
   Task     2 k-point     1 on co1631
   Task     3 k-point     1 on co1631
   Task     4 k-point     1 on co1631
   Task     5 k-point     1 on co1631
   Task     6 k-point     1 on co1631
   Task     7 k-point     1 on co1631
  K-point:     1 Tasks:     8 split into      4 X      2 BLACS grid
  Calculating block size based on n_basis =           54  max_nprow =            4  max_npcol =            2
  ScaLAPACK block size set to:            8
  Allocating        0.004 MB for ovlp
  Allocating        0.004 MB for ham
  Allocating        0.004 MB for eigenvec
  Required Scalapack workspace - INTEGER:            1  REAL:             1
  Partitioning the integration grid into batches with parallel hashing+maxmin method.
  | Number of batches:      176
  | Maximal batch size:     117
  | Minimal batch size:      55
  | Average batch size:      82.716
  | Standard deviation of batch sizes:      14.809

  Integration load balanced across     8 MPI tasks.
  Work distribution over tasks is as follows:
  Task     0 has       1870 integration points.
  Task     1 has       1814 integration points.
  Task     2 has       1827 integration points.
  Task     3 has       1839 integration points.
  Task     4 has       1811 integration points.
  Task     5 has       1792 integration points.
  Task     6 has       1803 integration points.
  Task     7 has       1802 integration points.
  Initializing partition tables, free-atom densities, potentials, etc. across the integration grid (initialize_grid_storage).
  | initialize_grid_storage: Actual outermost partition radius vs. multipole_radius_free
  | (-- VB: in principle, multipole_radius_free should be larger, hence this output)
  | Species        1: Confinement radius =              4.999999999999999 AA, multipole_radius_free =              5.060654947817020 AA.
  | Species        1: outer_partition_radius set to              5.060654947817020 AA .
  | Species        2: Confinement radius =              4.999999999999999 AA, multipole_radius_free =              5.053598046169615 AA.
  | Species        2: outer_partition_radius set to              5.053598046169615 AA .
  | Original list of interatomic distances with         210 x        210 entries is created.
  | Net number of integration points:    14558
  | of which are non-zero points    :    13014
  | Numerical average free-atom electrostatic potential    :    -15.26960763 eV
  Renormalizing the initial density to the exact electron count on the 3D integration grid.
  | Initial density: Formal number of electrons (from input files) :      64.0000000000
  | Integrated number of electrons on 3D grid     :      64.0029621936
  | Charge integration error                      :       0.0029621936
  | Normalization factor for density and gradient :       0.9999537179
  Renormalizing the free-atom superposition density to the exact electron count on the 3D integration grid.
  | Formal number of electrons (from input files) :      64.0000000000
  | Integrated number of electrons on 3D grid     :      64.0029621936
  | Charge integration error                      :       0.0029621936
  | Normalization factor for density and gradient :       0.9999537179
  Obtaining max. number of non-zero basis functions in each batch (get_n_compute_maxes).
  | Maximal number of non-zero basis functions:      554 in task     0
  | Maximal number of non-zero basis functions:      564 in task     1
  | Maximal number of non-zero basis functions:      567 in task     2
  | Maximal number of non-zero basis functions:      546 in task     3
  | Maximal number of non-zero basis functions:      534 in task     4
  | Maximal number of non-zero basis functions:      538 in task     5
  | Maximal number of non-zero basis functions:      558 in task     6
  | Maximal number of non-zero basis functions:      580 in task     7
  Allocating        0.018 MB for KS_eigenvector
  Integrating Hamiltonian matrix: batch-based integration.
  Time summed over all CPUs for integration: real work        0.775 s, elapsed        0.795 s
  Integrating overlap matrix.
  Time summed over all CPUs for integration: real work        0.470 s, elapsed        0.483 s
  Decreasing sparse matrix size:
   Tolerance:  9.999999824516700E-014
   Hamiltonian matrix
  | Array has    66030 nonzero elements out of    73320 elements
  | Sparsity factor is 0.099
   Overlap matrix
  | Array has    61283 nonzero elements out of    73320 elements
  | Sparsity factor is 0.164
  New size of hamiltonian matrix:       66032
  Deallocating overlap matrix.

  Updating Kohn-Sham eigenvalues and eigenvectors using ELSI and the ELPA eigensolver.
  Singularity check in k-point 1 (analysis for other k-points may follow below):
  Overlap matrix is not singular
  | Lowest and highest eigenvalues :  0.3302E-02,  0.5991E+01
  Finished singularity check of overlap matrix
  | Time :     0.001 s
  Starting ELPA eigensolver
  Finished Cholesky decomposition
  | Time :     0.001 s
  Finished transformation to standard eigenproblem
  | Time :     0.000 s
  Finished solving standard eigenproblem
  | Time :     0.001 s
  Finished back-transformation of eigenvectors
  | Time :     0.000 s

  Obtaining occupation numbers and chemical potential using ELSI.
  | Chemical potential (Fermi level):    -5.15424710 eV
  Writing Kohn-Sham eigenvalues.

  State    Occupation    Eigenvalue [Ha]    Eigenvalue [eV]
      1       2.00000        -435.877161       -11860.82101
      2       2.00000        -379.777731       -10334.27787
      3       2.00000         -54.680356        -1487.92819
      4       2.00000         -47.992165        -1305.93326
      5       2.00000         -47.992164        -1305.93324
      6       2.00000         -47.992087        -1305.93114
      7       2.00000         -46.393261        -1262.42485
      8       2.00000         -40.427541        -1100.08936
      9       2.00000         -40.427540        -1100.08933
     10       2.00000         -40.427453        -1100.08696
     11       2.00000          -6.981079         -189.96483
     12       2.00000          -5.422943         -147.56580
     13       2.00000          -4.919535         -133.86736
     14       2.00000          -4.919524         -133.86707
     15       2.00000          -4.918517         -133.83967
     16       2.00000          -3.630733          -98.79726
     17       2.00000          -3.630718          -98.79687
     18       2.00000          -3.629419          -98.76152
     19       2.00000          -1.522590          -41.43179
     20       2.00000          -1.522586          -41.43167
     21       2.00000          -1.521312          -41.39701
     22       2.00000          -1.521162          -41.39293
     23       2.00000          -1.521155          -41.39272
     24       2.00000          -0.728652          -19.82762
     25       2.00000          -0.728633          -19.82711
     26       2.00000          -0.727333          -19.79172
     27       2.00000          -0.722868          -19.67023
     28       2.00000          -0.722859          -19.66998
     29       2.00000          -0.695932          -18.93726
     30       2.00000          -0.224519           -6.10947
     31       2.00000          -0.224298           -6.10345
     32       2.00000          -0.198947           -5.41362
     33       0.00000          -0.179820           -4.89315
     34       0.00000          -0.069486           -1.89080
     35       0.00000          -0.059363           -1.61536
     36       0.00000          -0.059135           -1.60913
     37       0.00000           0.123898            3.37143
     38       0.00000           0.189597            5.15919
     39       0.00000           0.189628            5.16005
     40       0.00000           0.357110            9.71745
     41       0.00000           0.404375           11.00360
     42       0.00000           0.404780           11.01463
     43       0.00000           0.838886           22.82725

  Highest occupied state (VBM) at     -5.41362106 eV (relative to internal zero)
  | Occupation number:      2.00000000
  | K-point:       1 at    0.000000    0.000000    0.000000 (in units of recip. lattice)

  Lowest unoccupied state (CBM) at    -4.89315113 eV (relative to internal zero)
  | Occupation number:      0.00000000
  | K-point:       1 at    0.000000    0.000000    0.000000 (in units of recip. lattice)

  ESTIMATED overall HOMO-LUMO gap:      0.52046993 eV between HOMO at k-point 1 and LUMO at k-point 1
  The gap value is above 0.2 eV. Unless you are using a very sparse k-point grid,
  this system is most likely an insulator or a semiconductor.
  Calculating total energy contributions from superposition of free atom densities.

  Total energy components:
  | Sum of eigenvalues            :       -2465.24554378 Ha      -67082.74437866 eV
  | XC energy correction          :        -153.93190996 Ha       -4188.70038867 eV
  | XC potential correction       :         203.88570185 Ha        5548.01222701 eV
  | Free-atom electrostatic energy:       -1807.17416133 Ha      -49175.71096244 eV
  | Hartree energy correction     :           0.00000000 Ha           0.00000000 eV
  | Entropy correction            :          -0.00000000 Ha          -0.00000000 eV
  | ---------------------------
  | Total energy                  :       -4222.46591322 Ha     -114899.14350276 eV
  | Total energy, T -> 0          :       -4222.46591322 Ha     -114899.14350276 eV  <-- do not rely on this value for anything but (periodic) metals
  | Electronic free energy        :       -4222.46591322 Ha     -114899.14350276 eV

  Derived energy quantities:
  | Kinetic energy                :        4299.51132553 Ha      116995.65584105 eV
  | Electrostatic energy          :       -8368.04532879 Ha     -227706.09895514 eV
  | Energy correction for multipole
  | error in Hartree potential    :           0.00000000 Ha           0.00000000 eV
  | Sum of eigenvalues per atom                           :      -33541.37218933 eV
  | Total energy (T->0) per atom                          :      -57449.57175138 eV  <-- do not rely on this value for anything but (periodic) metals
  | Electronic free energy per atom                       :      -57449.57175138 eV
  Initialize hartree_potential_storage
  Max. number of atoms included in rho_multipole:            2

  End scf initialization - timings             :  max(cpu_time)    wall_clock(cpu1)
  | Time for scf. initialization               :        0.296 s           0.296 s
  | Boundary condition initialization          :        0.051 s           0.051 s
  | Integration                                :        0.165 s           0.165 s
  | Solution of K.-S. eqns.                    :        0.003 s           0.003 s
  | Grid partitioning                          :        0.023 s           0.022 s
  | Preloading free-atom quantities on grid    :        0.003 s           0.003 s
  | Free-atom superposition energy             :        0.007 s           0.007 s
  | Total energy evaluation                    :        0.000 s           0.000 s

  Partial memory accounting:
  | Current value for overall tracked memory usage:
  |   Minimum:        0.779 MB (on task 7)
  |   Maximum:        0.785 MB (on task 0)
  |   Average:        0.782 MB
  | Peak value for overall tracked memory usage:
  |   Minimum:        7.904 MB (on task 4 after allocating wave)
  |   Maximum:        8.661 MB (on task 7 after allocating wave)
  |   Average:        8.250 MB
  | Largest tracked array allocation so far:
  |   Minimum:        2.176 MB (hamiltonian_shell on task 4)
  |   Maximum:        2.567 MB (hamiltonian_shell on task 7)
  |   Average:        2.353 MB
  Note:  These values currently only include a subset of arrays which are explicitly tracked.
  The "true" memory usage will be greater.
------------------------------------------------------------

  Initialising kinetic-energy density for meta-GGA
  Evaluating density matrix
  | Time to calculate kinetic-energy density   :        0.119 s           0.120 s

------------------------------------------------------------
          Begin self-consistency iteration #    1

  Date     :  20190817, Time     :  153306.315
------------------------------------------------------------
  Evaluating new KS density using the density matrix
  Evaluating density matrix
  Time summed over all CPUs for getting density from density matrix: real work        1.539 s, elapsed        1.577 s
  Integration grid: deviation in total charge (<rho> - N_e) =  -4.973799E-14
  Pulay mixing of updated and previous charge densities.
  Renormalizing the density to the exact electron count on the 3D integration grid.
  | Formal number of electrons (from input files) :      64.0000000000
  | Integrated number of electrons on 3D grid     :      63.9997488361
  | Charge integration error                      :      -0.0002511639
  | Normalization factor for density and gradient :       1.0000039245

  Evaluating partitioned Hartree potential by multipole expansion.
  | Original multipole sum: apparent total charge =   0.528113E-13
  | Sum of charges compensated after spline to logarithmic grids =   0.382165E-06
  | Analytical far-field extrapolation by fixed multipoles:
  | Hartree multipole sum: apparent total charge =   0.527621E-13
  Summing up the Hartree potential.
  Time summed over all CPUs for potential: real work        0.718 s, elapsed        0.730 s
  | RMS charge density error from multipole expansion :   0.906624E-03
  | Average real-space part of the electrostatic potential :      0.03978580 eV

  Integrating Hamiltonian matrix: batch-based integration.
  Time summed over all CPUs for integration: real work        1.283 s, elapsed        1.325 s

  Updating Kohn-Sham eigenvalues and eigenvectors using ELSI and the ELPA eigensolver.
  Starting ELPA eigensolver
  Finished transformation to standard eigenproblem
  | Time :     0.000 s
  Finished solving standard eigenproblem
  | Time :     0.000 s
  Finished back-transformation of eigenvectors
  | Time :     0.000 s

  Obtaining occupation numbers and chemical potential using ELSI.
  | Chemical potential (Fermi level):    -4.65301067 eV
  Writing Kohn-Sham eigenvalues.

  State    Occupation    Eigenvalue [Ha]    Eigenvalue [eV]
      1       2.00000        -437.373736       -11901.54491
      2       2.00000        -381.194687       -10372.83521
      3       2.00000         -54.889695        -1493.62460
      4       2.00000         -48.062761        -1307.85427
      5       2.00000         -48.062759        -1307.85423
      6       2.00000         -48.062577        -1307.84927
      7       2.00000         -46.612035        -1268.37800
      8       2.00000         -40.514263        -1102.44919
      9       2.00000         -40.514141        -1102.44586
     10       2.00000         -40.514140        -1102.44584
     11       2.00000          -7.058117         -192.06115
     12       2.00000          -5.507984         -149.87986
     13       2.00000          -4.947765         -134.63552
     14       2.00000          -4.947753         -134.63521
     15       2.00000          -4.946617         -134.60430
     16       2.00000          -3.671030          -99.89382
     17       2.00000          -3.671022          -99.89358
     18       2.00000          -3.670336          -99.87494
     19       2.00000          -1.498979          -40.78929
     20       2.00000          -1.498975          -40.78918
     21       2.00000          -1.497627          -40.75250
     22       2.00000          -1.497542          -40.75020
     23       2.00000          -1.497534          -40.74998
     24       2.00000          -0.720825          -19.61466
     25       2.00000          -0.720808          -19.61419
     26       2.00000          -0.719685          -19.58361
     27       2.00000          -0.715683          -19.47473
     28       2.00000          -0.715677          -19.47455
     29       2.00000          -0.683871          -18.60907
     30       2.00000          -0.207710           -5.65208
     31       2.00000          -0.207498           -5.64629
     32       2.00000          -0.182890           -4.97670
     33       0.00000          -0.160722           -4.37346
     34       0.00000          -0.055415           -1.50791
     35       0.00000          -0.045878           -1.24841
     36       0.00000          -0.045652           -1.24226
     37       0.00000           0.134252            3.65317
     38       0.00000           0.203229            5.53015
     39       0.00000           0.203261            5.53100
     40       0.00000           0.372272           10.13002
     41       0.00000           0.419207           11.40720
     42       0.00000           0.419611           11.41820
     43       0.00000           0.862139           23.45998

  Highest occupied state (VBM) at     -4.97669820 eV (relative to internal zero)
  | Occupation number:      2.00000000
  | K-point:       1 at    0.000000    0.000000    0.000000 (in units of recip. lattice)

  Lowest unoccupied state (CBM) at    -4.37346325 eV (relative to internal zero)
  | Occupation number:      0.00000000
  | K-point:       1 at    0.000000    0.000000    0.000000 (in units of recip. lattice)

  ESTIMATED overall HOMO-LUMO gap:      0.60323494 eV between HOMO at k-point 1 and LUMO at k-point 1
  The gap value is above 0.2 eV. Unless you are using a very sparse k-point grid,
  this system is most likely an insulator or a semiconductor.

  Total energy components:
  | Sum of eigenvalues            :       -2473.17344560 Ha      -67298.47356346 eV
  | XC energy correction          :        -160.33383505 Ha       -4362.90563383 eV
  | XC potential correction       :         212.09715763 Ha        5771.45730773 eV
  | Free-atom electrostatic energy:       -1807.17416133 Ha      -49175.71096244 eV
  | Hartree energy correction     :          -0.26890122 Ha          -7.31717448 eV
  | Entropy correction            :          -0.00000000 Ha          -0.00000000 eV
  | ---------------------------
  | Total energy                  :       -4228.85318557 Ha     -115072.95002648 eV
  | Total energy, T -> 0          :       -4228.85318557 Ha     -115072.95002648 eV  <-- do not rely on this value for anything but (periodic) metals
  | Electronic free energy        :       -4228.85318557 Ha     -115072.95002648 eV

  Derived energy quantities:
  | Kinetic energy                :        4299.62332725 Ha      116998.70356307 eV
  | Electrostatic energy          :       -8368.14267777 Ha     -227708.74795572 eV
  | Energy correction for multipole
  | error in Hartree potential    :           0.00156242 Ha           0.04251564 eV
  | Sum of eigenvalues per atom                           :      -33649.23678173 eV
  | Total energy (T->0) per atom                          :      -57536.47501324 eV  <-- do not rely on this value for anything but (periodic) metals
  | Electronic free energy per atom                       :      -57536.47501324 eV

  Self-consistency convergence accuracy:
  | Change of charge density      :  0.2801E+00
  | Change of sum of eigenvalues  : -0.2157E+03 eV
  | Change of total energy        : -0.1738E+03 eV

  End self-consistency iteration #     1       :  max(cpu_time)    wall_clock(cpu1)
  | Time for this iteration                    :        0.531 s           0.526 s
  | Charge density update                      :        0.207 s           0.201 s
  | Density mixing & preconditioning           :        0.059 s           0.060 s
  | Hartree multipole update                   :        0.001 s           0.001 s
  | Hartree multipole summation                :        0.094 s           0.094 s
  | Integration                                :        0.168 s           0.168 s
  | Solution of K.-S. eqns.                    :        0.001 s           0.001 s
  | Total energy evaluation                    :        0.000 s           0.000 s

  Partial memory accounting:
  | Current value for overall tracked memory usage:
  |   Minimum:        0.779 MB (on task 7)
  |   Maximum:        0.785 MB (on task 0)
  |   Average:        0.782 MB
  | Peak value for overall tracked memory usage:
  |   Minimum:        7.904 MB (on task 4 after allocating wave)
  |   Maximum:        8.661 MB (on task 7 after allocating wave)
  |   Average:        8.250 MB
  | Largest tracked array allocation so far:
  |   Minimum:        2.176 MB (hamiltonian_shell on task 4)
  |   Maximum:        2.567 MB (hamiltonian_shell on task 7)
  |   Average:        2.353 MB
  Note:  These values currently only include a subset of arrays which are explicitly tracked.
  The "true" memory usage will be greater.
------------------------------------------------------------

------------------------------------------------------------
          Begin self-consistency iteration #    2

  Date     :  20190817, Time     :  153306.841
------------------------------------------------------------
  Evaluating new KS density using the density matrix
  Evaluating density matrix
  Time summed over all CPUs for getting density from density matrix: real work        1.547 s, elapsed        1.583 s
  Integration grid: deviation in total charge (<rho> - N_e) =  -1.421085E-14
  Pulay mixing of updated and previous charge densities.
  Renormalizing the density to the exact electron count on the 3D integration grid.
  | Formal number of electrons (from input files) :      64.0000000000
  | Integrated number of electrons on 3D grid     :      63.9983102982
  | Charge integration error                      :      -0.0016897018
  | Normalization factor for density and gradient :       1.0000264023

  Evaluating partitioned Hartree potential by multipole expansion.
  | Original multipole sum: apparent total charge =   0.332069E-13
  | Sum of charges compensated after spline to logarithmic grids =   0.255393E-05
  | Analytical far-field extrapolation by fixed multipoles:
  | Hartree multipole sum: apparent total charge =   0.329610E-13
  Summing up the Hartree potential.
  Time summed over all CPUs for potential: real work        0.827 s, elapsed        0.841 s
  | RMS charge density error from multipole expansion :   0.712287E-02
  | Average real-space part of the electrostatic potential :      0.28246595 eV

  Integrating Hamiltonian matrix: batch-based integration.
  Time summed over all CPUs for integration: real work        1.261 s, elapsed        1.291 s

  Updating Kohn-Sham eigenvalues and eigenvectors using ELSI and the ELPA eigensolver.
  Starting ELPA eigensolver
  Finished transformation to standard eigenproblem
  | Time :     0.000 s
  Finished solving standard eigenproblem
  | Time :     0.001 s
  Finished back-transformation of eigenvectors
  | Time :     0.000 s

  Obtaining occupation numbers and chemical potential using ELSI.
  | Chemical potential (Fermi level):    -4.12702303 eV
  Highest occupied state (VBM) at     -4.34970237 eV (relative to internal zero)
  | Occupation number:      2.00000000
  | K-point:       1 at    0.000000    0.000000    0.000000 (in units of recip. lattice)

  Lowest unoccupied state (CBM) at    -3.90434447 eV (relative to internal zero)
  | Occupation number:      0.00000000
  | K-point:       1 at    0.000000    0.000000    0.000000 (in units of recip. lattice)

  ESTIMATED overall HOMO-LUMO gap:      0.44535790 eV between HOMO at k-point 1 and LUMO at k-point 1
  The gap value is above 0.2 eV. Unless you are using a very sparse k-point grid,
  this system is most likely an insulator or a semiconductor.

  Checking to see if s.c.f. parameters should be adjusted.
  The system likely has a gap. Increased the default Pulay mixing parameter (charge_mix_param). Value:   0.200000 .

  Total energy components:
  | Sum of eigenvalues            :       -2471.35728067 Ha      -67249.05320115 eV
  | XC energy correction          :        -160.41698084 Ha       -4365.16814600 eV
  | XC potential correction       :         212.20638161 Ha        5774.42944330 eV
  | Free-atom electrostatic energy:       -1807.17416133 Ha      -49175.71096244 eV
  | Hartree energy correction     :          -2.07579952 Ha         -56.48537901 eV
  | Entropy correction            :          -0.00000000 Ha          -0.00000000 eV
  | ---------------------------
  | Total energy                  :       -4228.81784076 Ha     -115071.98824530 eV
  | Total energy, T -> 0          :       -4228.81784076 Ha     -115071.98824530 eV  <-- do not rely on this value for anything but (periodic) metals
  | Electronic free energy        :       -4228.81784076 Ha     -115071.98824530 eV

  Derived energy quantities:
  | Kinetic energy                :        4300.55726169 Ha      117024.11721205 eV
  | Electrostatic energy          :       -8368.95812160 Ha     -227730.93731135 eV
  | Energy correction for multipole
  | error in Hartree potential    :           0.01160092 Ha           0.31567713 eV
  | Sum of eigenvalues per atom                           :      -33624.52660058 eV
  | Total energy (T->0) per atom                          :      -57535.99412265 eV  <-- do not rely on this value for anything but (periodic) metals
  | Electronic free energy per atom                       :      -57535.99412265 eV

  Self-consistency convergence accuracy:
  | Change of charge density      :  0.2638E+00
  | Change of sum of eigenvalues  :  0.4942E+02 eV
  | Change of total energy        :  0.9618E+00 eV

  End self-consistency iteration #     2       :  max(cpu_time)    wall_clock(cpu1)
  | Time for this iteration                    :        0.533 s           0.533 s
  | Charge density update                      :        0.199 s           0.199 s
  | Density mixing & preconditioning           :        0.060 s           0.060 s
  | Hartree multipole update                   :        0.001 s           0.001 s
  | Hartree multipole summation                :        0.108 s           0.108 s
  | Integration                                :        0.163 s           0.164 s
  | Solution of K.-S. eqns.                    :        0.001 s           0.001 s
  | Total energy evaluation                    :        0.000 s           0.000 s

  Partial memory accounting:
  | Current value for overall tracked memory usage:
  |   Minimum:        0.779 MB (on task 7)
  |   Maximum:        0.786 MB (on task 0)
  |   Average:        0.783 MB
  | Peak value for overall tracked memory usage:
  |   Minimum:        7.904 MB (on task 4 after allocating wave)
  |   Maximum:        8.661 MB (on task 7 after allocating wave)
  |   Average:        8.250 MB
  | Largest tracked array allocation so far:
  |   Minimum:        2.176 MB (hamiltonian_shell on task 4)
  |   Maximum:        2.567 MB (hamiltonian_shell on task 7)
  |   Average:        2.353 MB
  Note:  These values currently only include a subset of arrays which are explicitly tracked.
  The "true" memory usage will be greater.
------------------------------------------------------------

------------------------------------------------------------
          Begin self-consistency iteration #    3

  Date     :  20190817, Time     :  153307.374
------------------------------------------------------------
  Evaluating new KS density using the density matrix
  Evaluating density matrix
  Time summed over all CPUs for getting density from density matrix: real work        1.537 s, elapsed        1.569 s
  Integration grid: deviation in total charge (<rho> - N_e) =   7.105427E-14
  Pulay mixing of updated and previous charge densities.
  Renormalizing the density to the exact electron count on the 3D integration grid.
  | Formal number of electrons (from input files) :      64.0000000000
  | Integrated number of electrons on 3D grid     :      63.9981948588
  | Charge integration error                      :      -0.0018051412
  | Normalization factor for density and gradient :       1.0000282061

  Evaluating partitioned Hartree potential by multipole expansion.
  | Original multipole sum: apparent total charge =   0.519504E-13
  | Sum of charges compensated after spline to logarithmic grids =   0.492567E-05
  | Analytical far-field extrapolation by fixed multipoles:
  | Hartree multipole sum: apparent total charge =   0.503762E-13
  Summing up the Hartree potential.
  Time summed over all CPUs for potential: real work        0.856 s, elapsed        0.869 s
  | RMS charge density error from multipole expansion :   0.146663E-01
  | Average real-space part of the electrostatic potential :      0.53419239 eV

  Integrating Hamiltonian matrix: batch-based integration.
  Time summed over all CPUs for integration: real work        1.259 s, elapsed        1.292 s

  Updating Kohn-Sham eigenvalues and eigenvectors using ELSI and the ELPA eigensolver.
  Starting ELPA eigensolver
  Finished transformation to standard eigenproblem
  | Time :     0.000 s
  Finished solving standard eigenproblem
  | Time :     0.001 s
  Finished back-transformation of eigenvectors
  | Time :     0.000 s

  Obtaining occupation numbers and chemical potential using ELSI.
  | Chemical potential (Fermi level):    -3.50697799 eV
  Highest occupied state (VBM) at     -3.71306621 eV (relative to internal zero)
  | Occupation number:      1.99999999
  | K-point:       1 at    0.000000    0.000000    0.000000 (in units of recip. lattice)

  Lowest unoccupied state (CBM) at    -3.30088968 eV (relative to internal zero)
  | Occupation number:      0.00000001
  | K-point:       1 at    0.000000    0.000000    0.000000 (in units of recip. lattice)

  ESTIMATED overall HOMO-LUMO gap:      0.41217653 eV between HOMO at k-point 1 and LUMO at k-point 1
  The gap value is above 0.2 eV. Unless you are using a very sparse k-point grid,
  this system is most likely an insulator or a semiconductor.

  Total energy components:
  | Sum of eigenvalues            :       -2469.59861961 Ha      -67201.19759894 eV
  | XC energy correction          :        -160.51544242 Ha       -4367.84742180 eV
  | XC potential correction       :         212.33026018 Ha        5777.80035087 eV
  | Free-atom electrostatic energy:       -1807.17416133 Ha      -49175.71096244 eV
  | Hartree energy correction     :          -3.85278015 Ha        -104.83948206 eV
  | Entropy correction            :          -0.00000000 Ha          -0.00000000 eV
  | ---------------------------
  | Total energy                  :       -4228.81074333 Ha     -115071.79511437 eV
  | Total energy, T -> 0          :       -4228.81074333 Ha     -115071.79511437 eV  <-- do not rely on this value for anything but (periodic) metals
  | Electronic free energy        :       -4228.81074333 Ha     -115071.79511437 eV

  Derived energy quantities:
  | Kinetic energy                :        4301.27743786 Ha      117043.71420272 eV
  | Electrostatic energy          :       -8369.57273877 Ha     -227747.66189530 eV
  | Energy correction for multipole
  | error in Hartree potential    :           0.02311507 Ha           0.62899293 eV
  | Sum of eigenvalues per atom                           :      -33600.59879947 eV
  | Total energy (T->0) per atom                          :      -57535.89755719 eV  <-- do not rely on this value for anything but (periodic) metals
  | Electronic free energy per atom                       :      -57535.89755719 eV

  Self-consistency convergence accuracy:
  | Change of charge density      :  0.1646E+00
  | Change of sum of eigenvalues  :  0.4786E+02 eV
  | Change of total energy        :  0.1931E+00 eV

  End self-consistency iteration #     3       :  max(cpu_time)    wall_clock(cpu1)
  | Time for this iteration                    :        0.536 s           0.536 s
  | Charge density update                      :        0.197 s           0.198 s
  | Density mixing & preconditioning           :        0.061 s           0.060 s
  | Hartree multipole update                   :        0.001 s           0.001 s
  | Hartree multipole summation                :        0.111 s           0.111 s
  | Integration                                :        0.164 s           0.164 s
  | Solution of K.-S. eqns.                    :        0.001 s           0.001 s
  | Total energy evaluation                    :        0.000 s           0.000 s

  Partial memory accounting:
  | Current value for overall tracked memory usage:
  |   Minimum:        0.779 MB (on task 7)
  |   Maximum:        0.786 MB (on task 0)
  |   Average:        0.783 MB
  | Peak value for overall tracked memory usage:
  |   Minimum:        7.904 MB (on task 4 after allocating wave)
  |   Maximum:        8.661 MB (on task 7 after allocating wave)
  |   Average:        8.250 MB
  | Largest tracked array allocation so far:
  |   Minimum:        2.176 MB (hamiltonian_shell on task 4)
  |   Maximum:        2.567 MB (hamiltonian_shell on task 7)
  |   Average:        2.353 MB
  Note:  These values currently only include a subset of arrays which are explicitly tracked.
  The "true" memory usage will be greater.
------------------------------------------------------------

------------------------------------------------------------
          Begin self-consistency iteration #    4

  Date     :  20190817, Time     :  153307.911
------------------------------------------------------------
  Evaluating new KS density using the density matrix
  Evaluating density matrix
  Time summed over all CPUs for getting density from density matrix: real work        1.550 s, elapsed        1.590 s
  Integration grid: deviation in total charge (<rho> - N_e) =  -9.947598E-14
  Pulay mixing of updated and previous charge densities.
  Renormalizing the density to the exact electron count on the 3D integration grid.
  | Formal number of electrons (from input files) :      64.0000000000
  | Integrated number of electrons on 3D grid     :      63.9994596842
  | Charge integration error                      :      -0.0005403158
  | Normalization factor for density and gradient :       1.0000084425

  Evaluating partitioned Hartree potential by multipole expansion.
  | Original multipole sum: apparent total charge =   0.806806E-13
  | Sum of charges compensated after spline to logarithmic grids =   0.548273E-05
  | Analytical far-field extrapolation by fixed multipoles:
  | Hartree multipole sum: apparent total charge =   0.801886E-13
  Summing up the Hartree potential.
  Time summed over all CPUs for potential: real work        0.853 s, elapsed        0.867 s
  | RMS charge density error from multipole expansion :   0.178004E-01
  | Average real-space part of the electrostatic potential :      0.58719753 eV

  Integrating Hamiltonian matrix: batch-based integration.
  Time summed over all CPUs for integration: real work        1.265 s, elapsed        1.292 s

  Updating Kohn-Sham eigenvalues and eigenvectors using ELSI and the ELPA eigensolver.
  Starting ELPA eigensolver
  Finished transformation to standard eigenproblem
  | Time :     0.000 s
  Finished solving standard eigenproblem
  | Time :     0.000 s
  Finished back-transformation of eigenvectors
  | Time :     0.001 s

  Obtaining occupation numbers and chemical potential using ELSI.
  | Chemical potential (Fermi level):    -3.35716642 eV
  Highest occupied state (VBM) at     -3.60756442 eV (relative to internal zero)
  | Occupation number:      2.00000000
  | K-point:       1 at    0.000000    0.000000    0.000000 (in units of recip. lattice)

  Lowest unoccupied state (CBM) at    -3.10663225 eV (relative to internal zero)
  | Occupation number:      0.00000000
  | K-point:       1 at    0.000000    0.000000    0.000000 (in units of recip. lattice)

  ESTIMATED overall HOMO-LUMO gap:      0.50093216 eV between HOMO at k-point 1 and LUMO at k-point 1
  The gap value is above 0.2 eV. Unless you are using a very sparse k-point grid,
  this system is most likely an insulator or a semiconductor.

  Total energy components:
  | Sum of eigenvalues            :       -2469.44363108 Ha      -67196.98014644 eV
  | XC energy correction          :        -160.52839193 Ha       -4368.19979585 eV
  | XC potential correction       :         212.34259703 Ha        5778.13605344 eV
  | Free-atom electrostatic energy:       -1807.17416133 Ha      -49175.71096244 eV
  | Hartree energy correction     :          -4.00853497 Ha        -109.07778640 eV
  | Entropy correction            :          -0.00000000 Ha          -0.00000000 eV
  | ---------------------------
  | Total energy                  :       -4228.81212228 Ha     -115071.83263768 eV
  | Total energy, T -> 0          :       -4228.81212228 Ha     -115071.83263768 eV  <-- do not rely on this value for anything but (periodic) metals
  | Electronic free energy        :       -4228.81212228 Ha     -115071.83263768 eV

  Derived energy quantities:
  | Kinetic energy                :        4301.08128845 Ha      117038.37670580 eV
  | Electrostatic energy          :       -8369.36501881 Ha     -227742.00954763 eV
  | Energy correction for multipole
  | error in Hartree potential    :           0.02755899 Ha           0.74991829 eV
  | Sum of eigenvalues per atom                           :      -33598.49007322 eV
  | Total energy (T->0) per atom                          :      -57535.91631884 eV  <-- do not rely on this value for anything but (periodic) metals
  | Electronic free energy per atom                       :      -57535.91631884 eV

  Self-consistency convergence accuracy:
  | Change of charge density      :  0.9048E-01
  | Change of sum of eigenvalues  :  0.4217E+01 eV
  | Change of total energy        : -0.3752E-01 eV

  End self-consistency iteration #     4       :  max(cpu_time)    wall_clock(cpu1)
  | Time for this iteration                    :        0.537 s           0.537 s
  | Charge density update                      :        0.200 s           0.200 s
  | Density mixing & preconditioning           :        0.060 s           0.060 s
  | Hartree multipole update                   :        0.001 s           0.001 s
  | Hartree multipole summation                :        0.111 s           0.111 s
  | Integration                                :        0.163 s           0.163 s
  | Solution of K.-S. eqns.                    :        0.001 s           0.002 s
  | Total energy evaluation                    :        0.000 s           0.000 s

  Partial memory accounting:
  | Current value for overall tracked memory usage:
  |   Minimum:        0.779 MB (on task 7)
  |   Maximum:        0.786 MB (on task 0)
  |   Average:        0.783 MB
  | Peak value for overall tracked memory usage:
  |   Minimum:        7.904 MB (on task 4 after allocating wave)
  |   Maximum:        8.661 MB (on task 7 after allocating wave)
  |   Average:        8.250 MB
  | Largest tracked array allocation so far:
  |   Minimum:        2.176 MB (hamiltonian_shell on task 4)
  |   Maximum:        2.567 MB (hamiltonian_shell on task 7)
  |   Average:        2.353 MB
  Note:  These values currently only include a subset of arrays which are explicitly tracked.
  The "true" memory usage will be greater.
------------------------------------------------------------

------------------------------------------------------------
          Begin self-consistency iteration #    5

  Date     :  20190817, Time     :  153308.448
------------------------------------------------------------
  Evaluating new KS density using the density matrix
  Evaluating density matrix
  Time summed over all CPUs for getting density from density matrix: real work        1.525 s, elapsed        1.560 s
  Integration grid: deviation in total charge (<rho> - N_e) =  -1.421085E-14
  Pulay mixing of updated and previous charge densities.
  Renormalizing the density to the exact electron count on the 3D integration grid.
  | Formal number of electrons (from input files) :      64.0000000000
  | Integrated number of electrons on 3D grid     :      63.9992682016
  | Charge integration error                      :      -0.0007317984
  | Normalization factor for density and gradient :       1.0000114345

  Evaluating partitioned Hartree potential by multipole expansion.
  | Original multipole sum: apparent total charge =   0.372902E-13
  | Sum of charges compensated after spline to logarithmic grids =   0.611648E-05
  | Analytical far-field extrapolation by fixed multipoles:
  | Hartree multipole sum: apparent total charge =   0.360111E-13
  Summing up the Hartree potential.
  Time summed over all CPUs for potential: real work        0.866 s, elapsed        0.879 s
  | RMS charge density error from multipole expansion :   0.214616E-01
  | Average real-space part of the electrostatic potential :      0.64467732 eV

  Integrating Hamiltonian matrix: batch-based integration.
  Time summed over all CPUs for integration: real work        1.259 s, elapsed        1.289 s

  Updating Kohn-Sham eigenvalues and eigenvectors using ELSI and the ELPA eigensolver.
  Starting ELPA eigensolver
  Finished transformation to standard eigenproblem
  | Time :     0.000 s
  Finished solving standard eigenproblem
  | Time :     0.001 s
  Finished back-transformation of eigenvectors
  | Time :     0.000 s

  Obtaining occupation numbers and chemical potential using ELSI.
  | Chemical potential (Fermi level):    -3.17309992 eV
  Highest occupied state (VBM) at     -3.47927430 eV (relative to internal zero)
  | Occupation number:      2.00000000
  | K-point:       1 at    0.000000    0.000000    0.000000 (in units of recip. lattice)

  Lowest unoccupied state (CBM) at    -2.87384328 eV (relative to internal zero)
  | Occupation number:      0.00000000
  | K-point:       1 at    0.000000    0.000000    0.000000 (in units of recip. lattice)

  ESTIMATED overall HOMO-LUMO gap:      0.60543102 eV between HOMO at k-point 1 and LUMO at k-point 1
  The gap value is above 0.2 eV. Unless you are using a very sparse k-point grid,
  this system is most likely an insulator or a semiconductor.

  Total energy components:
  | Sum of eigenvalues            :       -2469.28156208 Ha      -67192.57002462 eV
  | XC energy correction          :        -160.54816402 Ha       -4368.73782201 eV
  | XC potential correction       :         212.36272800 Ha        5778.68384507 eV
  | Free-atom electrostatic energy:       -1807.17416133 Ha      -49175.71096244 eV
  | Hartree energy correction     :          -4.17193887 Ha        -113.52423282 eV
  | Entropy correction            :          -0.00000000 Ha          -0.00000000 eV
  | ---------------------------
  | Total energy                  :       -4228.81309831 Ha     -115071.85919682 eV
  | Total energy, T -> 0          :       -4228.81309831 Ha     -115071.85919682 eV  <-- do not rely on this value for anything but (periodic) metals
  | Electronic free energy        :       -4228.81309831 Ha     -115071.85919682 eV

  Derived energy quantities:
  | Kinetic energy                :        4300.90083573 Ha      117033.46633753 eV
  | Electrostatic energy          :       -8369.16577002 Ha     -227736.58771234 eV
  | Energy correction for multipole
  | error in Hartree potential    :           0.03270200 Ha           0.88986668 eV
  | Sum of eigenvalues per atom                           :      -33596.28501231 eV
  | Total energy (T->0) per atom                          :      -57535.92959841 eV  <-- do not rely on this value for anything but (periodic) metals
  | Electronic free energy per atom                       :      -57535.92959841 eV

  Self-consistency convergence accuracy:
  | Change of charge density      :  0.4892E-01
  | Change of sum of eigenvalues  :  0.4410E+01 eV
  | Change of total energy        : -0.2656E-01 eV

  End self-consistency iteration #     5       :  max(cpu_time)    wall_clock(cpu1)
  | Time for this iteration                    :        0.534 s           0.535 s
  | Charge density update                      :        0.196 s           0.196 s
  | Density mixing & preconditioning           :        0.060 s           0.060 s
  | Hartree multipole update                   :        0.001 s           0.001 s
  | Hartree multipole summation                :        0.113 s           0.113 s
  | Integration                                :        0.163 s           0.163 s
  | Solution of K.-S. eqns.                    :        0.001 s           0.001 s
  | Total energy evaluation                    :        0.000 s           0.000 s

  Partial memory accounting:
  | Current value for overall tracked memory usage:
  |   Minimum:        0.779 MB (on task 7)
  |   Maximum:        0.786 MB (on task 0)
  |   Average:        0.783 MB
  | Peak value for overall tracked memory usage:
  |   Minimum:        7.904 MB (on task 4 after allocating wave)
  |   Maximum:        8.661 MB (on task 7 after allocating wave)
  |   Average:        8.250 MB
  | Largest tracked array allocation so far:
[...]

  Lowest unoccupied state (CBM) at    -2.80951408 eV (relative to internal zero)
  | Occupation number:      0.00000000
  | K-point:       1 at    0.000000    0.000000    0.000000 (in units of recip. lattice)

  ESTIMATED overall HOMO-LUMO gap:      0.67263143 eV between HOMO at k-point 1 and LUMO at k-point 1
  The gap value is above 0.2 eV. Unless you are using a very sparse k-point grid,
  this system is most likely an insulator or a semiconductor.

  Total energy components:
  | Sum of eigenvalues            :       -2469.40478488 Ha      -67195.92308754 eV
  | XC energy correction          :        -160.55604810 Ha       -4368.95235854 eV
  | XC potential correction       :         212.37101581 Ha        5778.90936798 eV
  | Free-atom electrostatic energy:       -1807.17416133 Ha      -49175.71096244 eV
  | Hartree energy correction     :          -4.04985909 Ha        -110.20227278 eV
  | Entropy correction            :          -0.00000000 Ha          -0.00000000 eV
  | ---------------------------
  | Total energy                  :       -4228.81383758 Ha     -115071.87931332 eV
  | Total energy, T -> 0          :       -4228.81383758 Ha     -115071.87931332 eV  <-- do not rely on this value for anything but (periodic) metals
  | Electronic free energy        :       -4228.81383758 Ha     -115071.87931332 eV

  Derived energy quantities:
  | Kinetic energy                :        4300.76178860 Ha      117029.68267240 eV
  | Electrostatic energy          :       -8369.01957808 Ha     -227732.60962718 eV
  | Energy correction for multipole
  | error in Hartree potential    :           0.03567363 Ha           0.97072888 eV
  | Sum of eigenvalues per atom                           :      -33597.96154377 eV
  | Total energy (T->0) per atom                          :      -57535.93965666 eV  <-- do not rely on this value for anything but (periodic) metals
  | Electronic free energy per atom                       :      -57535.93965666 eV

  atomic forces [eV/Ang]:
  -----------------------
  atom #    1
   Hellmann-Feynman              : -0.183537E+02 -0.180305E+02 -0.182008E+02
   Ionic forces                  :  0.000000E+00  0.000000E+00  0.000000E+00
   Multipole                     :  0.216389E+00  0.210172E+00  0.213472E+00
   Pulay + GGA                   :  0.179782E+02  0.176417E+02  0.178191E+02
   ----------------------------------------------------------------
   Total forces(   1)            : -0.159154E+00 -0.178543E+00 -0.168185E+00
  atom #    2
   Hellmann-Feynman              : -0.809497E+01 -0.809100E+01 -0.809261E+01
   Ionic forces                  :  0.000000E+00  0.000000E+00  0.000000E+00
   Multipole                     : -0.424762E+00 -0.413429E+00 -0.419463E+00
   Pulay + GGA                   :  0.869115E+01  0.869523E+01  0.869250E+01
   ----------------------------------------------------------------
   Total forces(   2)            :  0.171414E+00  0.190801E+00  0.180427E+00


  Analytical stress tensor components [eV]         xx                  yy                  zz                  xy                  xz                  yz
  -----------------------------------------------------------------------------------------------------------------------------------------------------------
    Nuclear Hellmann-Feynman      :    -0.3298066174E+02   -0.3297815781E+02   -0.3297954894E+02   -0.3848176579E+01   -0.3851677694E+01   -0.3846991089E+01
    Multipole Hellmann-Feynman    :    -0.2997721880E+02   -0.2999444415E+02   -0.2998531598E+02    0.1412145038E+01    0.1349876062E+01    0.1467926712E+01
    On-site Multipole corrections :    -0.3168794182E+01   -0.3168827918E+01   -0.3168809886E+01   -0.5612925795E-03   -0.5652458952E-03   -0.5582660461E-03
    Strain deriv. of the orbitals :     0.4999173965E+02    0.5000821014E+02    0.4999957377E+02    0.2268255959E+01    0.2322949675E+01    0.2220958491E+01
  -----------------------------------------------------------------------------------------------------------------------------------------------------------
  Sum of all contributions        :    -0.1613493508E+02   -0.1613321973E+02   -0.1613410103E+02   -0.1683368751E+00   -0.1794172028E+00   -0.1586641520E+00

  +-------------------------------------------------------------------+
  |              Analytical stress tensor - Symmetrized               |
  |                  Cartesian components [eV/A**3]                   |
  +-------------------------------------------------------------------+
  |                x                y                z                |
  |                                                                   |
  |  x        -0.37662208      -0.00392932      -0.00418796           |
  |  y        -0.00392932      -0.37658204      -0.00370354           |
  |  z        -0.00418796      -0.00370354      -0.37660261           |
  |                                                                   |
  |  Pressure:       0.37660224   [eV/A**3]                           |
  |                                                                   |
  +-------------------------------------------------------------------+

 * Warning: Stress tensor is anisotropic. Be aware that pressure is an isotropic quantity.


  Self-consistency convergence accuracy:
  | Change of charge density      :  0.2333E-06
  | Change of sum of eigenvalues  : -0.2827E-04 eV
  | Change of total energy        :  0.1564E-07 eV
  | Change of forces              :  0.2585E-04 eV/A

  Writing Kohn-Sham eigenvalues.

  State    Occupation    Eigenvalue [Ha]    Eigenvalue [eV]
      1       2.00000        -437.209072       -11897.06416
      2       2.00000        -381.198876       -10372.94918
      3       2.00000         -54.743136        -1489.63653
      4       2.00000         -47.914052        -1303.80770
      5       2.00000         -47.914048        -1303.80759
      6       2.00000         -47.913003        -1303.77915
      7       2.00000         -46.618316        -1268.54893
      8       2.00000         -40.521314        -1102.64106
      9       2.00000         -40.518830        -1102.57345
     10       2.00000         -40.518813        -1102.57301
     11       2.00000          -6.920343         -188.31211
     12       2.00000          -5.541788         -150.79971
     13       2.00000          -4.810277         -130.89430
     14       2.00000          -4.810259         -130.89380
     15       2.00000          -4.806708         -130.79718
     16       2.00000          -3.709980         -100.95370
     17       2.00000          -3.702686         -100.75520
     18       2.00000          -3.702642         -100.75402
     19       2.00000          -1.362404          -37.07291
     20       2.00000          -1.362403          -37.07288
     21       2.00000          -1.359363          -36.99014
     22       2.00000          -1.359347          -36.98972
     23       2.00000          -1.358684          -36.97168
     24       2.00000          -0.753474          -20.50307
     25       2.00000          -0.751083          -20.43800
     26       2.00000          -0.751055          -20.43725
     27       2.00000          -0.746750          -20.32011
     28       2.00000          -0.746742          -20.31990
     29       2.00000          -0.635597          -17.29547
     30       2.00000          -0.156804           -4.26687
     31       2.00000          -0.156575           -4.26063
     32       2.00000          -0.127966           -3.48215
     33       0.00000          -0.103248           -2.80951
     34       0.00000          -0.035964           -0.97864
     35       0.00000          -0.018277           -0.49734
     36       0.00000          -0.018009           -0.49006
     37       0.00000           0.163461            4.44799
     38       0.00000           0.234889            6.39166
     39       0.00000           0.234922            6.39254
     40       0.00000           0.407116           11.07820
     41       0.00000           0.454685           12.37261
     42       0.00000           0.455080           12.38335
     43       0.00000           0.935188           25.44775

  Highest occupied state (VBM) at     -3.48214551 eV (relative to internal zero)
  | Occupation number:      2.00000000
  | K-point:       1 at    0.000000    0.000000    0.000000 (in units of recip. lattice)

  Lowest unoccupied state (CBM) at    -2.80951408 eV (relative to internal zero)
  | Occupation number:      0.00000000
  | K-point:       1 at    0.000000    0.000000    0.000000 (in units of recip. lattice)

  ESTIMATED overall HOMO-LUMO gap:      0.67263143 eV between HOMO at k-point 1 and LUMO at k-point 1
  The gap value is above 0.2 eV. Unless you are using a very sparse k-point grid,
  this system is most likely an insulator or a semiconductor.

  Self-consistency cycle converged.

  End self-consistency iteration #    24       :  max(cpu_time)    wall_clock(cpu1)
  | Time for this iteration                    :        5.206 s           5.208 s
  | Charge density & force component update    :        4.582 s           4.584 s
  | Density mixing                             :        0.001 s           0.001 s
  | Hartree multipole update                   :        0.001 s           0.001 s
  | Hartree multipole summation                :        0.456 s           0.456 s
  | Integration                                :        0.164 s           0.164 s
  | Solution of K.-S. eqns.                    :        0.001 s           0.001 s
  | Total energy evaluation                    :        0.000 s           0.001 s

  Partial memory accounting:
  | Current value for overall tracked memory usage:
  |   Minimum:        0.779 MB (on task 7)
  |   Maximum:        0.786 MB (on task 0)
  |   Average:        0.783 MB
  | Peak value for overall tracked memory usage:
  |   Minimum:       12.493 MB (on task 4 after allocating d_wave)
  |   Maximum:       13.700 MB (on task 7 after allocating d_wave)
  |   Average:       13.046 MB
  | Largest tracked array allocation so far:
  |   Minimum:        2.860 MB (hessian_basis_wave on task 4)
  |   Maximum:        3.106 MB (hessian_basis_wave on task 7)
  |   Average:        2.973 MB
  Note:  These values currently only include a subset of arrays which are explicitly tracked.
  The "true" memory usage will be greater.
------------------------------------------------------------
  Removing unitary transformations (pure translations, rotations) from forces on atoms.
  Atomic forces before filtering:
  | Net force on center of mass :   0.122597E-01  0.122581E-01  0.122417E-01 eV/A
  Atomic forces after filtering:
  | Net force on center of mass :  -0.446015E-16  0.000000E+00  0.000000E+00 eV/A

  Energy and forces in a compact form:
  | Total energy uncorrected      :         -0.115071879313316E+06 eV
  | Total energy corrected        :         -0.115071879313316E+06 eV  <-- do not rely on this value for anything but (periodic) metals
  | Electronic free energy        :         -0.115071879313316E+06 eV
  Total atomic forces (unitary forces cleaned) [eV/Ang]:
  |    1         -0.165284215787245E+00         -0.184672144357433E+00         -0.174306325103800E+00
  |    2          0.165284215787245E+00          0.184672144357433E+00          0.174306325103800E+00

  ------------------------------------ 
  Start decomposition of the XC Energy 
  ------------------------------------ 
  X and C from original XC functional choice 
  Hartree-Fock Energy :          0.000000000 Ha              0.000000000 eV
  X Energy            :       -157.424763580 Ha          -4283.745771598 eV
  C Energy            :         -3.131284516 Ha            -85.206586940 eV
  Total XC Energy     :       -160.556048096 Ha          -4368.952358538 eV
  ------------------------------------ 
  LDA X and C from self-consistent density 
  X Energy LDA        :       -148.358344028 Ha          -4037.035943132 eV
  C Energy LDA        :         -5.761345921 Ha           -156.774199103 eV
  ------------------------------------ 
  End decomposition of the XC Energy 
  ------------------------------------ 

------------------------------------------------------------
  |------------------------------------------------------
  | Final ELSI Output
  |------------------------------------------------------
  |
  | Physical Properties
  |   Number of electrons       :        0.64000000E+02
  |   Number of spins           :                     1
  |   Number of k-points        :                     1
  |   Number of states          :                    43
  |
  | Matrix Properties
  |   Matrix format             :           BLACS_DENSE
  |   Number of basis functions :                    54
  |   Matrix sparsity           :        0.17146776E-01
  |
  | Computational Details
  |   Parallel mode             :            MULTI_PROC
  |   Number of MPI tasks       :                     8
  |   Solver requested          :                  ELPA
  |   Number of ELSI calls      :                    25
  |
  |------------------------------------------------------
  | ELSI Project (c)  elsi-interchange.org
  |------------------------------------------------------

------------------------------------------------------------------------------
  Final output of selected total energy values:

  The following output summarizes some interesting total energy values
  at the end of a run (AFTER all relaxation, molecular dynamics, etc.).

  | Total energy of the DFT / Hartree-Fock s.c.f. calculation      :        -115071.879313316 eV
  | Final zero-broadening corrected energy (caution - metals only) :        -115071.879313316 eV
  | For reference only, the value of 1 Hartree used in FHI-aims is :             27.211384500 eV
  | For reference only, the overall average (free atom contribution
  | + realspace contribution) of the electrostatic potential after
  | s.c.f. convergence is                                          :            -14.620912884 eV

  Before relying on these values, please be sure to understand exactly which
  total energy value is referred to by a given number. Different objects may
  all carry the same name 'total energy'. Definitions:

  Total energy of the DFT / Hartree-Fock s.c.f. calculation:
  | Note that this energy does not include ANY quantities calculated after the
  | s.c.f. cycle, in particular not ANY RPA, MP2, etc. many-body perturbation terms.

  Final zero-broadening corrected energy:
  | For metallic systems only, a broadening of the occupation numbers at the Fermi
  | level can be extrapolated back to zero broadening by an electron-gas inspired
  | formula. For all systems that are not real metals, this value can be
  | meaningless and should be avoided.

------------------------------------------------------------------------------
  Methods described in the following list of references were used in this FHI-aims run.
  If you publish the results, please make sure to cite these reference if they apply.
  FHI-aims is an academic code, and for our developers (often, Ph.D. students
  and postdocs), scientific credit in the community is essential.
  Thank you for helping us!

  For any use of FHI-aims, please cite:

    Volker Blum, Ralf Gehrke, Felix Hanke, Paula Havu, Ville Havu,
    Xinguo Ren, Karsten Reuter, and Matthias Scheffler
    'Ab initio molecular simulations with numeric atom-centered orbitals'
    Computer Physics Communications 180, 2175-2196 (2009)
    http://dx.doi.org/10.1016/j.cpc.2009.06.022


  For the analytical stress tensor used in your run, please cite:

    Franz Knuth, Christian Carbogno, Viktor Atalla, Volker Blum, Matthias Scheffler
    'All-electron formalism for total energy strain derivatives and
    stress tensor components for numeric atom-centered orbitals'
    Computer Physics Communications 190, 33-50 (2015).
    http://dx.doi.org/10.1016/j.cpc.2015.01.003


  The provided symmetry information was generated with SPGlib:

    Atsushi Togo, Yusuke Seto, Dimitar Pashov
    SPGlib 1.7.3 obtained from http://spglib.sourceforge.net
    Copyright (C) 2008 Atsushi Togo


  The ELSI infrastructure was used in your run to solve the Kohn-Sham electronic structure.
  Please check out http://elsi-interchange.org to learn more.
  If scalability is important for your project, please acknowledge ELSI by citing:

    V. W-z. Yu, F. Corsetti, A. Garcia, W. P. Huhn, M. Jacquelin, W. Jia,
    B. Lange, L. Lin, J. Lu, W. Mi, A. Seifitokaldani, A. Vazquez-Mayagoitia,
    C. Yang, H. Yang, and V. Blum
    'ELSI: A unified software interface for Kohn-Sham electronic structure solvers'
    Computer Physics Communications 222, 267-285 (2018).
    http://dx.doi.org/10.1016/j.cpc.2017.09.007


  For the real-space grid partitioning and parallelization used in this calculation, please cite:

    Ville Havu, Volker Blum, Paula Havu, and Matthias Scheffler,
    'Efficient O(N) integration for all-electron electronic structure calculation'
    'using numerically tabulated basis functions'
    Journal of Computational Physics 228, 8367-8379 (2009).
    http://dx.doi.org/10.1016/j.jcp.2009.08.008

  Of course, there are many other important community references, e.g., those cited in the
  above references. Our list is limited to references that describe implementations in the
  FHI-aims code. The reason is purely practical (length of this list) - please credit others as well.

------------------------------------------------------------
          Leaving FHI-aims.
          Date     :  20190817, Time     :  153324.150

          Computational steps:
          | Number of self-consistency cycles          :           24
          | Number of SCF (re)initializations          :            1

          Detailed time accounting                     :  max(cpu_time)    wall_clock(cpu1)
          | Total time                                 :       18.670 s          18.682 s
          | Preparation time                           :        0.377 s           0.376 s
          | Boundary condition initalization           :        0.051 s           0.051 s
          | Grid partitioning                          :        0.023 s           0.022 s
          | Preloading free-atom quantities on grid    :        0.003 s           0.003 s
          | Free-atom superposition energy             :        0.007 s           0.007 s
          | Total time for integrations                :        4.129 s           4.135 s
          | Total time for solution of K.-S. equations :        0.034 s           0.029 s
          | Total time for density & force components  :        9.131 s           9.127 s
          | Total time for mixing & preconditioning    :        1.295 s           1.296 s
          | Total time for Hartree multipole update    :        0.024 s           0.023 s
          | Total time for Hartree multipole sum       :        3.363 s           3.362 s
          | Total time for total energy evaluation     :        0.003 s           0.008 s
          | Total time for scaled ZORA corrections     :        0.000 s           0.000 s

          Partial memory accounting:
          | Residual value for overall tracked memory usage across tasks:     0.000000 MB (should be 0.000000 MB)
          | Peak values for overall tracked memory usage:
          |   Minimum:       12.493 MB (on task 4 after allocating d_wave)
          |   Maximum:       13.700 MB (on task 7 after allocating d_wave)
          |   Average:       13.046 MB
          | Largest tracked array allocation:
          |   Minimum:        2.860 MB (hessian_basis_wave on task 4)
          |   Maximum:        3.106 MB (hessian_basis_wave on task 7)
          |   Average:        2.973 MB
          Note:  These values currently only include a subset of arrays which are explicitly tracked.
          The "true" memory usage will be greater.

          Have a nice day.
------------------------------------------------------------
