  MPI-parallelism will be employed.
------------------------------------------------------------
          Invoking FHI-aims ...

          When using FHI-aims, please cite the following reference:

          Volker Blum, Ralf Gehrke, Felix Hanke, Paula Havu,
          Ville Havu, Xinguo Ren, Karsten Reuter, and Matthias Scheffler,
          'Ab Initio Molecular Simulations with Numeric Atom-Centered Orbitals',
          Computer Physics Communications 180, 2175-2196 (2009)

          For any questions about FHI-aims, please visit the aimsclub website
          with its forums and wiki. Contributions to both the forums and the
          wiki are warmly encouraged - they are for you, and everyone is welcome there.

------------------------------------------------------------



  Date     :  20190817, Time     :  154309.598
  Time zero on CPU 1             :   0.310340000000000E-01  s.
  Internal wall clock time zero  :           335288589.598  s.

  FHI-aims created a unique identifier for this run for later identification
  aims_uuid : 720DB719-B552-4011-A29D-63265B224A77

  Build configuration of the current instance of FHI-aims
  -------------------------------------------------------
  FHI-aims version      : 190813
  Commit number         : 3da7baeb3
  CMake host system     : Linux-4.4.180-94.97-default
  CMake version         : 3.5.2
  Fortran compiler      : /mpcdf/soft/SLE_12_SP3/packages/x86_64/intel_parallel_studio/2018.4/compilers_and_libraries_2018.5.274/linux/mpi/bin64/mpiifort (Intel) version 18.0.5.20180823
  Fortran compiler flags: -O3 -ip -fp-model precise
  C compiler            : /mpcdf/soft/SLE_12_SP3/packages/skylake/intel/18.0.5/bin/icc (Intel) version 18.0.5.20180823
  C compiler flags      : -O3 -ip -fp-model precise
  Architecture          :
  Using MPI
  Using Scalapack
  Using C files
  Using SPGlib
  Using i-PI
  Linking against: /mpcdf/soft/SLE_12_SP3/packages/x86_64/anaconda/3.5.1.0/lib/libmkl_intel_lp64.so
                   /mpcdf/soft/SLE_12_SP3/packages/x86_64/anaconda/3.5.1.0/lib/libmkl_sequential.so
                   /mpcdf/soft/SLE_12_SP3/packages/x86_64/anaconda/3.5.1.0/lib/libmkl_core.so
                   /mpcdf/soft/SLE_12_SP3/packages/x86_64/anaconda/3.5.1.0/lib/libmkl_blacs_intelmpi_lp64.so
                   /mpcdf/soft/SLE_12_SP3/packages/x86_64/anaconda/3.5.1.0/lib/libmkl_scalapack_lp64.so

  Using        8 parallel tasks.
  Task        0 on host co1631 reporting.
  Task        1 on host co1631 reporting.
  Task        2 on host co1631 reporting.
  Task        3 on host co1631 reporting.
  Task        4 on host co1631 reporting.
  Task        5 on host co1631 reporting.
  Task        6 on host co1631 reporting.
  Task        7 on host co1631 reporting.

  Performing system and environment tests:
  | Environment variable OMP_NUM_THREADS correctly set to 1.
  | Maximum stacksize for task 0: unlimited
  | Maximum stacksize for task 1: unlimited
  | Maximum stacksize for task 2: unlimited
  | Maximum stacksize for task 3: unlimited
  | Maximum stacksize for task 4: unlimited
  | Maximum stacksize for task 5: unlimited
  | Maximum stacksize for task 6: unlimited
  | Maximum stacksize for task 7: unlimited
  | Current stacksize for task 0: unlimited
  | Current stacksize for task 1: unlimited
  | Current stacksize for task 2: unlimited
  | Current stacksize for task 3: unlimited
  | Current stacksize for task 4: unlimited
  | Current stacksize for task 5: unlimited
  | Current stacksize for task 6: unlimited
  | Current stacksize for task 7: unlimited
  | Checking for scalapack...
  | Testing pdtran()...
  | All pdtran() tests passed.

  Obtaining array dimensions for all initial allocations:
  
  -----------------------------------------------------------------------
  Parsing control.in (first pass over file, find array dimensions only).
  The contents of control.in will be repeated verbatim below
  unless switched off by setting 'verbatim_writeout .false.' .
  in the first line of control.in .
  -----------------------------------------------------------------------
  
  #  Volker Blum, FHI 2004 : Input file for LocalOrb code project
  #
  #  Input file control.in : All computational details for structure geometry.in
  #
  #  * First, general computational parameters:
  #         xc           - specifies type of exchange-correlation potential
  #         relativistic - specifies the type of kinetic energy expression
  #         empty_states - specifies the number of empty states per atom to be included
  #         KS_method    - specifies the treatment of the Kohn-Sham equations (e.g., full diagonalisation by Lapack)
  #         charge_mix_param - mixing parameter for linear charge-density mixing
  #         sc_accuracy_rho - convergence criterion for the average charge
  #                        density distance
  #         sc_accuracy_eev - convergence criterion for the sum of eigenvalues
  #                        between different sc iterations
  #         sc_accuracy_etot - convergence criterion for the total energy
  #                        between different sc iterations
  #         force_potential - Force the use of a debug-type potential,
  #                           e.g. superposition of free atoms
  #
    xc             pw-lda
    qpe_calc       gw
      frequency_points 40
      use_logsbt .false.
      anacon_type 0
    spin           none
    relativistic   none
    empty_states   300
  #  KS_method      lapack
    basis_threshold 1.e-6
    occupation_type gaussian 0.05
    occupation_acc 1e-08
    mixer          pulay
    ini_linear_mixing 0
    charge_mix_param  0.2
    sc_accuracy_rho  1E-6
    sc_accuracy_eev  1E-4
    sc_accuracy_etot 1E-6
    sc_iter_limit 30
    prodbas_threshold 1.e-4
  
    packed_matrix_format index
    use_local_index if_scalapack
    load_balancing if_scalapack
    distributed_spline_storage .true.
  #
  #  * Next, specify output options:
  #    - basis
  #    - matrices
  #    - grids
  #    - v_eff
  #    - v_hartree (partitioned Hartree potentials)
  #
  #  output       basis
  #  output       matrices
  #  output       grids
  #  output       v_eff
  #  output       v_hartree
  #  output       density
  #
  #  * Finally, all details relating to the chemical elements ("species"):
  ################################################################################
  #
  #  FHI-aims code project
  #  VB, Fritz-Haber Institut, 2007
  #
  #  Suggested "safe" defaults for Na atom (to be pasted into control.in file)
  #
  ################################################################################
    species        Na
  #     global species definitions
      nucleus             11
      mass                22.98976928
  #
      l_hartree           6
  #
      cut_pot             5.0          2.0  1.0
      basis_dep_cutoff    1e-4
  #
      radial_base         40 7.0
      radial_multiplier   2
      angular_grids       specified
        division   0.5925  110
        division   0.7843  194
        division   1.0201  302
        division   1.1879  434
  #      division   1.3799  590
  #      division   1.4503  770
  #      division   7.0005  974
  #      outer_grid  974
        outer_grid  434
  ################################################################################
  #
  #  Definition of "minimal" basis
  #
  ################################################################################
  #     valence basis states
      valence      3  s   1.
      valence      2  p   6.
  #     ion occupancy
      ion_occ      2  s   2.
      ion_occ      2  p   6.
  ################################################################################
  #
  #  Suggested additional basis functions. For production calculations,
  #  uncomment them one after another (the most important basis functions are
  #  listed first).
  #
  #  Constructed for dimers: 2.0 A, 2.5 A, 3.0 A, 3.75 A, 4.5 A
  #
  ################################################################################
  #  "First tier" - improvements: -60.09 meV to -10.02 meV
       hydro 2 p 1.2
       hydro 3 s 1.8
       hydro 3 d 3.8
  #  "Second tier" - improvements: -2.94 meV to -1.27 meV
  #     hydro 4 p 3.1
  #     hydro 3 s 10
  #     hydro 4 f 6.2
  #     hydro 4 d 1.3
  #  "Third tier" - improvements: -0.83 meV to -0.07 meV
  #     hydro 3 d 7.8
  #     hydro 3 p 2.3
  #     hydro 5 g 9.6
  #     hydro 4 p 0.85
  #     hydro 5 f 1.8
  #     hydro 2 s 0.6
  #  Further basis functions that fell out of the optimization - noise level...
  #     hydro 5 g 0.1
  #     hydro 4 d 3.4
  #     hydro 4 s 0.1
  
  
  -----------------------------------------------------------------------
  Completed first pass over input file control.in .
  -----------------------------------------------------------------------
  
  
  -----------------------------------------------------------------------
  Parsing geometry.in (first pass over file, find array dimensions only).
  The contents of geometry.in will be repeated verbatim below
  unless switched off by setting 'verbatim_writeout .false.' .
  in the first line of geometry.in .
  -----------------------------------------------------------------------
  
  # LDA relaxed structure for Na4
  #  Final atomic structure:
  #               x [A]             y [A]             z [A]       Atom
    atom        -3.07697712       -0.00000104        0.00000000  Na
    atom         3.07697603       -0.00000104        0.00000000  Na
    atom         0.00000055        1.50192909        0.00000000  Na
    atom         0.00000055       -1.50192702        0.00000000  Na
  
  -----------------------------------------------------------------------
  Completed first pass over input file geometry.in .
  -----------------------------------------------------------------------
  

  Basic array size parameters:
  | Number of species                 :        1
  | Number of atoms                   :        4
  | Max. basis fn. angular momentum   :        2
  | Max. atomic/ionic basis occupied n:        3
  | Max. number of basis fn. types    :        2
  | Max. radial fns per species/type  :        4
  | Max. logarithmic grid size        :     1327
  | Max. radial integration grid size :       81
  | Max. angular integration grid size:      434
  | Max. angular grid division number :        8
  | Radial grid for Hartree potential :     1327
  | Number of spin channels           :        1

------------------------------------------------------------
          Reading file control.in.
------------------------------------------------------------
  XC: Using Perdew-Wang parametrisation of Ceperley-Alder LDA.
  GW quasiparticle calculation of excited states will be started after the DFT/HF calculation.
  Number of frequency points used for the self-energy calculation:     40
  Using 3D grid integrations for auxiliary 2-center integrals.
  Using two-pole fitting for analytical continuation.
  Spin treatment: No spin polarisation.
  Non-relativistic treatment of kinetic energy.
  Number of empty states per atom:      300
  Threshold for basis singularities:  0.1000E-05
  Occupation type: Gaussian broadening, width =   0.500000E-01 eV.
  Accuracy of occupation numbers  :  0.1000E-07
  Using pulay charge density mixing.
  Number of initial iterations with linear charge density mixing:     0
  Charge density mixing - mixing parameter:     0.2000
  Convergence accuracy of self-consistent charge density:  0.1000E-05
  Convergence accuracy of sum of eigenvalues:  0.1000E-03
  Convergence accuracy of total energy:  0.1000E-05
  Maximum number of s.-c. iterations  :    30
  Threshold for auxiliary basis singularities:  0.1000E-03
 Using packed matrix format           2
  Requested to store only required components of Hartree potential.
 
  Reading configuration options for species Na                  .
  | Found nuclear charge :  11.0000
  | Found atomic mass :    22.9897692800000      amu
  | Found l_max for Hartree potential  :   6
  | Found cutoff potl. onset [A], width [A], scale factor :    5.00000    2.00000    1.00000
  | Threshold for basis-dependent cutoff potential is   0.100000E-03
  | Found data for basic radial integration grid :    40 points, outermost radius =    7.000 A
  | Found multiplier for basic radial grid :   2
  | Found angular grid specification: user-specified.
  | Specified grid contains     5 separate shells.
  | Check grid settings after all constraints further below.
  | Found free-atom valence shell :  3 s   1.000
  | Found free-atom valence shell :  2 p   6.000
  | No ionic wave fns used. Skipping ion_occ.
  | No ionic wave fns used. Skipping ion_occ.
  | Found hydrogenic basis function :  2 p   1.200
  | Found hydrogenic basis function :  3 s   1.800
  | Found hydrogenic basis function :  3 d   3.800
  Species Na                  : Missing cutoff potential type.
  Defaulting to exp(1/x)/(1-x)^2 type cutoff potential.
  Species Na: No 'logarithmic' tag. Using default grid for free atom:
  | Default logarithmic grid data [bohr] : 0.1000E-03 0.1000E+03 0.1012E+01
  Species Na: On-site basis accuracy parameter (for Gram-Schmidt orthonormalisation) not specified.
  Using default value basis_acc =  0.1000000E-03.
  Species Na                  : Using default innermost maximum threshold i_radial=  2 for radial functions.
  Species Na                  : Default cutoff onset for free atom density etc. is infinite
  since the product basis is used (hybrid functionals, Hartree-Fock, GW etc.).
  Species Na                  : Basic radial grid will be enhanced according to radial_multiplier =   2, to contain    81 grid points.
 
  Finished reading input file 'control.in'. Consistency checks are next.
 
  MPI_IN_PLACE appears to work with this MPI implementation.
  | Keeping use_mpi_in_place .true. (see manual).
  Explicit treatment of the Coulomb operator is needed, but the RI method is not specified.
  Coulomb operator: Defaulting to 'RI-V' resolution of identity - RI_type = V 
  Species Na: Using default value for prodbas_acc =   1.000000E-03.
  Species Na: Using default value max_l_prodbas =     5.
  Target number of points in a grid batch is not set. Defaulting to  100
  Method for grid partitioning is not set. Defaulting to parallel hash+maxmin partitioning.
  Batch size limit is not set. Defaulting to    200
  By default, will store active basis functions for each batch.
  If in need of memory, prune_basis_once .false. can be used to disable this option.
  communication_type for Hartree potential was not specified.
  Defaulting to calc_hartree .
  Pulay mixer: Number of relevant iterations not set.
  Defaulting to    8 iterations.
  Work space size for distributed Hartree potential not set.
  Defaulting to   0.200000E+03 MB.
  Algorithm-dependent basis array size parameters:
  | n_max_pulay                         :        8
  Presetting      1001 iterations before the initial mixing cycle
  is restarted anyway using the sc_init_iter criterion / keyword.
  Presetting a factor      1.000 between actual scf density residual
  and density convergence criterion sc_accuracy_rho below which sc_init_iter
  takes no effect.
  Calculation of forces was not defined in control.in. No forces will be calculated.
  Geometry relaxation not requested: no relaxation will be performed.
  No accuracy limit for integral partition fn. given. Defaulting to  0.1000E-14.
  No threshold value for u(r) in integrations given. Defaulting to  0.1000E-05.
  No threshold value for occupation numbers given. Defaulting to  0.0000E+00.
  No accuracy for fermi level given. Defaulting to  0.1000E-19.
  Maximum # of iterations to find E_F not set. Defaulting to  200.
  Preferred method for the eigenvalue solver ('KS_method') not specified in 'control.in'.
  Calling BLACS routine to test compilation state
  Since ScaLAPACK support is enabled, defaulting to ELPA (via ELSI).
  Have scalapack: Storing only matrices local to each thread.
  Have scalapack: Using load balancing for integrations.
  Will not use alltoall communication since running on < 1024 CPUs.
  partition_type (choice of integration weights) for integrals was not specified.
  | Using a version of the partition function of Stratmann and coworkers ('stratmann_sparse').
  | At each grid point, the set of atoms used to build the partition table is smoothly restricted to
  | only those atoms whose free-atom density would be non-zero at that grid point.
  Partitioning for Hartree potential was not defined. Using partition_type for integrals.
  | Adjusted default value of keyword multip_moments_threshold to:       0.10000000E-11
  | This value may affect high angular momentum components of the Hartree potential in periodic systems.
  * Doing correlated calculations, so all empty single-particle states will be included.
  No q(lm)/r^(l+1) cutoff set for long-range Hartree potential.
  | Using default value of  0.100000E-09 .
  | Verify using the multipole_threshold keyword.
  Defaulting to new monopole extrapolation.
  Density update method: automatic selection selected.
  Charge integration errors on the 3D integration grid will be compensated
  by explicit normalization and distribution of residual charges.
  Use the "compensate_multipole_errors" flag to change this behaviour.
  Default of use_2d_corr is to use the efficient 2D distribution where possible
------------------------------------------------------------


------------------------------------------------------------
          Reading geometry description geometry.in.
------------------------------------------------------------
 * Attention. You are trying to treat an element beyond Ne (Z=10) without
 * accounting for relativity. This will lead to slight deviations from the true
 * physics of the system. Check your results if in doubt.
  Input structure read successfully.
  The structure contains        4 atoms,  and a total of         44.000 electrons.

  Input geometry:
  | No unit cell requested.
  | Atomic structure:
  |       Atom                x [A]            y [A]            z [A]
  |    1: Species Na           -3.07697712       -0.00000104        0.00000000
  |    2: Species Na            3.07697603       -0.00000104        0.00000000
  |    3: Species Na            0.00000055        1.50192909        0.00000000
  |    4: Species Na            0.00000055       -1.50192702        0.00000000
  | The smallest distance between any two atoms is         3.00385611 AA.
  | The first atom of this pair is atom number                      3 .
  | The second atom of this pair is atom number                     4 .

  Number of empty states per atom not set in control.in .
  | Since you are using a method that relies on the unoccupied spectrum
  | (MP2,GW,RPA et al.), will use the full Hamiltonian size (see below)
  | as the max. possible number of states (occupied plus empty).

  Structure-dependent array size parameters: 
  | Maximum number of distinct radial functions  :        7
  | Maximum number of basis functions            :       60
  | Number of Kohn-Sham states (occupied + empty):       60
------------------------------------------------------------

------------------------------------------------------------
          Preparing all fixed parts of the calculation.
------------------------------------------------------------
  Determining machine precision:
    2.225073858507201E-308
  Setting up grids for atomic and cluster calculations.

  Creating wave function, potential, and density for free atoms.

  Species: Na

  List of occupied orbitals and eigenvalues:
    n    l              occ      energy [Ha]    energy [eV]
    1    0           2.0000       -37.719781     -1026.4075
    2    0           2.0000        -2.063096       -56.1397
    3    0           1.0000        -0.103473        -2.8156
    2    1           6.0000        -1.060346       -28.8535

  Creating fixed part of basis set: Ionic, confined, hydrogenic.
 
  Na                   hydrogenic:
 
  List of hydrogenic basis orbitals: 
    n    l      effective z      eigenvalue [eV]  inner max. [A]     outer max. [A]     outer radius [A]   
    2    1         1.200000        -4.8636           1.741750           1.741750           6.442804
    3    0         1.800000        -4.3244           0.217979           3.539338           6.522051
    3    2         3.800000       -21.8293           1.252092           1.252092           5.771541
 

  Adding cutoff potential to free-atom effective potential.
  Creating atomic-like basis functions for current effective potential.

  Species Na                  :

  List of atomic basis orbitals and eigenvalues:
    n    l      energy [Ha]    energy [eV]    outer radius [A]
    1    0       -37.719781     -1026.4075       1.017136
    2    0        -2.063096       -56.1397       4.251681
    3    0        -0.102515        -2.7896       6.442804
    2    1        -1.060346       -28.8535       5.496102

  Assembling full basis from fixed parts.
  | Species Na :   atomic orbital   1 s accepted.
  | Species Na :   atomic orbital   2 s accepted.
  | Species Na :   atomic orbital   3 s accepted.
  | Species Na :    hydro orbital   3 s accepted.
  | Species Na :   atomic orbital   2 p accepted.
  | Species Na :    hydro orbital   2 p accepted.
  | Species Na :    hydro orbital   3 d accepted.
 
  Basis size parameters after reduction:
  | Total number of radial functions:        7
  | Total number of basis functions :       60
 
  Per-task memory consumption for arrays in subroutine allocate_ext:
  |           1.190756MB.
  Testing on-site integration grid accuracy.
  |  Species  Function  <phi|h_atom|phi> (log., in eV)  <phi|h_atom|phi> (rad., in eV)
           1        1              -1026.4074614289              -1026.4074500714
           1        2                -56.1397101238                -56.1397099617
           1        3                 -2.7942687421                 -2.7944411153
           1        4                  2.1627248508                  2.1615570905
           1        5                -28.8534796411                -28.8534795942
           1        6                 -0.0448823591                 -0.0451118337
           1        7                  9.8964768214                  9.8964647176

  Preparing densities etc. for the partition functions (integrals / Hartree potential).

  Preparations completed.
  max(cpu_time)          :      0.088 s.
  Wall clock time (cpu1) :      0.086 s.
------------------------------------------------------------

------------------------------------------------------------
          Begin self-consistency loop: Initialization.

          Date     :  20190817, Time     :  154309.748
------------------------------------------------------------

  Initializing index lists of integration centers etc. from given atomic structure:
  | Number of centers in hartree potential         :         4
  | Number of centers in hartree multipole         :         4
  | Number of centers in electron density summation:         4
  | Number of centers in basis integrals           :         4
  | Number of centers in integrals                 :         4
  | Number of centers in hamiltonian               :         4
  * Using 8 tasks for Scalapack Eigenvalue solver.
  Detailed listing of tasks and assigned k-points:
  (for non-periodic systems, the "k-point" denotes an internal label only)
   Task     0 k-point     1 on co1631
   Task     1 k-point     1 on co1631
   Task     2 k-point     1 on co1631
   Task     3 k-point     1 on co1631
   Task     4 k-point     1 on co1631
   Task     5 k-point     1 on co1631
   Task     6 k-point     1 on co1631
   Task     7 k-point     1 on co1631
  Tasks:     8 split into      4 X      2 BLACS grid
  Calculating block size based on n_basis =           60  max_nprow =            4  max_npcol =            2
  ScaLAPACK block size set to:            8
  Allocating        0.004 MB for ovlp
  Allocating        0.004 MB for ham
  Allocating        0.004 MB for eigenvec
  Required Scalapack workspace - INTEGER:            1  REAL:             1
  Partitioning the integration grid into batches with parallel hashing+maxmin method.
  | Number of batches:     1003
  | Maximal batch size:     185
  | Minimal batch size:      68
  | Average batch size:      82.385
  | Standard deviation of batch sizes:      13.244

  Integration load balanced across      8 MPI tasks.
  Work distribution over tasks is as follows:
  Task      0 has      10434 integration points.
  Task      1 has      10269 integration points.
  Task      2 has      10332 integration points.
  Task      3 has      10281 integration points.
  Task      4 has      10430 integration points.
  Task      5 has      10266 integration points.
  Task      6 has      10350 integration points.
  Task      7 has      10270 integration points.
  Initializing partition tables, free-atom densities, potentials, etc. across the integration grid (initialize_grid_storage).
  | Species        1: outer_partition_radius set to             42.334883439487662 AA .
  | The sparse table of interatomic distances needs          0.16 kbyte instead of         0.13 kbyte of memory.
  | Using the partition_type stratmann_smoother will reduce your memory usage.
  | Net number of integration points:    82632
  | of which are non-zero points    :    79092
  Renormalizing the initial density to the exact electron count on the 3D integration grid.
  | Initial density: Formal number of electrons (from input files) :      44.0000000000
  | Integrated number of electrons on 3D grid     :      44.0000010407
  | Charge integration error                      :       0.0000010407
  | Normalization factor for density and gradient :       0.9999999763
  Renormalizing the free-atom superposition density to the exact electron count on the 3D integration grid.
  | Formal number of electrons (from input files) :      44.0000000000
  | Integrated number of electrons on 3D grid     :      44.0000010407
  | Charge integration error                      :       0.0000010407
  | Normalization factor for density and gradient :       0.9999999763
  Obtaining max. number of non-zero basis functions in each batch (get_n_compute_maxes).
  | Maximal number of non-zero basis functions:       57
  Selecting the method for density update.
  Loop over occupied states selected for charge density update.
  Hamiltonian matrix size:
  | Size of matrix non-packed:                  1830
  | Size of matrix packed:            1823
  Allocating        0.027 MB for KS_eigenvector
  use_local_index: Max. local matrix size =         1709
  Task:     0 matrix size:       1709
  Task:     1 matrix size:       1709
  Task:     2 matrix size:       1709
  Task:     3 matrix size:       1709
  Task:     4 matrix size:       1709
  Task:     5 matrix size:       1709
  Task:     6 matrix size:       1709
  Task:     7 matrix size:       1709
  Integrating Hamiltonian matrix: batch-based integration.
  Time summed over all CPUs for integration: real work        0.173 s, elapsed        0.176 s
  | Time get_set_sparse_local_matrix_scalapack:     0.000058 s
  Start compute_balanced_batch_distribution
  Done load balancing, time needed:      0.001 s
  Integrating overlap matrix with loadbalancing
  Time summed over all CPUs for integration: real work        0.093 s, elapsed        0.096 s
  | Time get_set_full_local_matrix_scalapack:     0.000068 s

  Updating Kohn-Sham eigenvalues and eigenvectors using ELSI and the ELPA eigensolver.
  Overlap matrix is not singular
  | Lowest and highest eigenvalues :  0.3081E-01,  0.3133E+01
  Finished singularity check of overlap matrix
  | Time :     0.001 s
  Starting ELPA eigensolver
  Finished Cholesky decomposition
  | Time :     0.000 s
  Finished transformation to standard eigenproblem
  | Time :     0.001 s
  Finished solving standard eigenproblem
  | Time :     0.001 s
  Finished back-transformation of eigenvectors
  | Time :     0.000 s

  Obtaining occupation numbers and chemical potential using ELSI.
  | Chemical potential (Fermi level):    -3.05320909 eV
  Writing Kohn-Sham eigenvalues.

  State    Occupation    Eigenvalue [Ha]    Eigenvalue [eV]
      1       2.00000         -37.729100        -1026.66105
      2       2.00000         -37.729100        -1026.66104
      3       2.00000         -37.724139        -1026.52604
      4       2.00000         -37.724139        -1026.52604
      5       2.00000          -2.073792          -56.43075
      6       2.00000          -2.073562          -56.42449
      7       2.00000          -2.068074          -56.27515
      8       2.00000          -2.068074          -56.27514
      9       2.00000          -1.073352          -29.20740
     10       2.00000          -1.071608          -29.15995
     11       2.00000          -1.071210          -29.14911
     12       2.00000          -1.070576          -29.13184
     13       2.00000          -1.070509          -29.13004
     14       2.00000          -1.070249          -29.12296
     15       2.00000          -1.066019          -29.00784
     16       2.00000          -1.065958          -29.00618
     17       2.00000          -1.065315          -28.98870
     18       2.00000          -1.065295          -28.98814
     19       2.00000          -1.065091          -28.98259
     20       2.00000          -1.065089          -28.98255
     21       2.00000          -0.180069           -4.89992
     22       2.00000          -0.128100           -3.48578
     23       0.00000          -0.096910           -2.63706
     24       0.00000          -0.075408           -2.05195
     25       0.00000          -0.068642           -1.86784
     26       0.00000          -0.039338           -1.07045
     27       0.00000          -0.032142           -0.87463
     28       0.00000          -0.032026           -0.87148
     29       0.00000          -0.014299           -0.38911
     30       0.00000           0.022902            0.62321
     31       0.00000           0.026077            0.70958
     32       0.00000           0.038427            1.04566
     33       0.00000           0.058003            1.57833
     34       0.00000           0.069986            1.90441
     35       0.00000           0.070874            1.92859
     36       0.00000           0.075796            2.06252
     37       0.00000           0.120562            3.28066
     38       0.00000           0.141578            3.85252
     39       0.00000           0.192097            5.22722
     40       0.00000           0.203045            5.52513
     41       0.00000           0.255405            6.94992
     42       0.00000           0.267007            7.26564
     43       0.00000           0.270160            7.35144
     44       0.00000           0.300321            8.17215
     45       0.00000           0.326053            8.87235
     46       0.00000           0.336346            9.15243
     47       0.00000           0.348399            9.48041
     48       0.00000           0.367226            9.99274
     49       0.00000           0.386962           10.52976
     50       0.00000           0.402737           10.95904
     51       0.00000           0.403300           10.97436
     52       0.00000           0.408662           11.12025
     53       0.00000           0.449642           12.23539
     54       0.00000           0.486573           13.24031
     55       0.00000           0.511135           13.90868
     56       0.00000           0.576657           15.69163
     57       0.00000           0.589024           16.02817
     58       0.00000           0.591320           16.09063
     59       0.00000           0.606686           16.50876
     60       0.00000           0.723310           19.68228

  Highest occupied state (VBM) at     -3.48577846 eV
  | Occupation number:      2.00000000

  Lowest unoccupied state (CBM) at    -2.63705979 eV
  | Occupation number:      0.00000000

  Overall HOMO-LUMO gap:      0.84871868 eV.
  Calculating total energy contributions from superposition of free atom densities.

  Total energy components:
  | Sum of eigenvalues            :        -344.63683523 Ha       -9378.04543623 eV
  | XC energy correction          :         -54.16277430 Ha       -1473.84407700 eV
  | XC potential correction       :          71.49264280 Ha        1945.41379203 eV
  | Free-atom electrostatic energy:        -318.56083557 Ha       -8668.48138324 eV
  | Hartree energy correction     :           0.00000000 Ha           0.00000000 eV
  | Entropy correction            :          -0.00000000 Ha          -0.00000000 eV
  | ---------------------------
  | Total energy                  :        -645.86780230 Ha      -17574.95710444 eV
  | Total energy, T -> 0          :        -645.86780230 Ha      -17574.95710444 eV  <-- do not rely on this value for anything but (periodic) metals
  | Electronic free energy        :        -645.86780230 Ha      -17574.95710444 eV

  Derived energy quantities:
  | Kinetic energy                :         643.60700655 Ha       17513.43772202 eV
  | Electrostatic energy          :       -1235.31203454 Ha      -33614.55074946 eV
  | Energy correction for multipole
  | error in Hartree potential    :           0.00000000 Ha           0.00000000 eV
  | Sum of eigenvalues per atom                           :       -2344.51135906 eV
  | Total energy (T->0) per atom                          :       -4393.73927611 eV  <-- do not rely on this value for anything but (periodic) metals
  | Electronic free energy per atom                       :       -4393.73927611 eV
  Initialize hartree_potential_storage
  Max. number of atoms included in rho_multipole:            4

  End scf initialization - timings             :  max(cpu_time)    wall_clock(cpu1)
  | Time for scf. initialization               :        0.092 s           0.093 s
  | Boundary condition initialization          :        0.000 s           0.000 s
  | Integration                                :        0.036 s           0.036 s
  | Solution of K.-S. eqns.                    :        0.004 s           0.004 s
  | Grid partitioning                          :        0.023 s           0.023 s
  | Preloading free-atom quantities on grid    :        0.005 s           0.004 s
  | Free-atom superposition energy             :        0.008 s           0.008 s
  | Total energy evaluation                    :        0.000 s           0.000 s

  Partial memory accounting:
  | Current value for overall tracked memory usage:
  |   Minimum:        0.042 MB (on task 7)
  |   Maximum:        0.046 MB (on task 0)
  |   Average:        0.045 MB
  | Peak value for overall tracked memory usage:
  |   Minimum:        0.322 MB (on task 6 after allocating wave)
  |   Maximum:        0.416 MB (on task 1 after allocating grid_partition)
  |   Average:        0.366 MB
  | Largest tracked array allocation so far:
  |   Minimum:        0.206 MB (all_coords on task 6)
  |   Maximum:        0.271 MB (all_coords on task 1)
  |   Average:        0.236 MB
  Note:  These values currently only include a subset of arrays which are explicitly tracked.
  The "true" memory usage will be greater.
------------------------------------------------------------

------------------------------------------------------------
          Begin self-consistency iteration #    1

  Date     :  20190817, Time     :  154309.841
------------------------------------------------------------
  Evaluating new KS density.
  Integration grid: deviation in total charge (<rho> - N_e) =   1.421085E-14
  Pulay mixing of updated and previous charge densities.
  Renormalizing the density to the exact electron count on the 3D integration grid.
  | Formal number of electrons (from input files) :      44.0000000000
  | Integrated number of electrons on 3D grid     :      44.0000000000
  | Charge integration error                      :       0.0000000000
  | Normalization factor for density and gradient :       1.0000000000

  Evaluating partitioned Hartree potential by multipole expansion.
  | Original multipole sum: apparent total charge =   0.451614E-13
  | Sum of charges compensated after spline to logarithmic grids =   0.906942E-05
  | Analytical far-field extrapolation by fixed multipoles:
  | Hartree multipole sum: apparent total charge =   0.451799E-13
  Summing up the Hartree potential with load balancing.
  Time summed over all CPUs for potential: real work        0.180 s, elapsed        0.182 s
  | RMS charge density error from multipole expansion :   0.256288E-03

  Start compute_balanced_batch_distribution
  Done load balancing, time needed:      0.001 s
  Reset hartree_potential_storage for load balanced distribution.
  Max. number of atoms included in rho_multipole:            4
  Integrating Hamiltonian matrix: batch-based integration with load balancing
  Time summed over all CPUs for integration: real work        0.168 s, elapsed        0.171 s
  | Time get_set_full_local_matrix_scalapack:     0.000063 s
  Start compute_balanced_batch_distribution
  Done load balancing, time needed:      0.001 s

  Updating Kohn-Sham eigenvalues and eigenvectors using ELSI and the ELPA eigensolver.
  Starting ELPA eigensolver
  Finished transformation to standard eigenproblem
  | Time :     0.000 s
  Finished solving standard eigenproblem
  | Time :     0.001 s
  Finished back-transformation of eigenvectors
  | Time :     0.000 s

  Obtaining occupation numbers and chemical potential using ELSI.
  | Chemical potential (Fermi level):    -2.86435618 eV
  Writing Kohn-Sham eigenvalues.

  State    Occupation    Eigenvalue [Ha]    Eigenvalue [eV]
      1       2.00000         -37.714524        -1026.26442
      2       2.00000         -37.714524        -1026.26442
      3       2.00000         -37.709583        -1026.12995
      4       2.00000         -37.709583        -1026.12995
      5       2.00000          -2.060031          -56.05630
      6       2.00000          -2.059808          -56.05021
      7       2.00000          -2.054673          -55.91050
      8       2.00000          -2.054673          -55.91049
      9       2.00000          -1.059463          -28.82946
     10       2.00000          -1.057551          -28.77743
     11       2.00000          -1.057159          -28.76677
     12       2.00000          -1.057146          -28.76641
     13       2.00000          -1.056827          -28.75772
     14       2.00000          -1.056675          -28.75360
     15       2.00000          -1.052357          -28.63610
     16       2.00000          -1.052292          -28.63432
     17       2.00000          -1.052088          -28.62878
     18       2.00000          -1.052065          -28.62814
     19       2.00000          -1.051854          -28.62241
     20       2.00000          -1.051853          -28.62237
     21       2.00000          -0.166588           -4.53310
     22       2.00000          -0.118527           -3.22528
     23       0.00000          -0.089760           -2.44249
     24       0.00000          -0.068958           -1.87644
     25       0.00000          -0.058639           -1.59564
     26       0.00000          -0.031804           -0.86542
     27       0.00000          -0.024617           -0.66987
     28       0.00000          -0.024463           -0.66566
     29       0.00000          -0.006812           -0.18536
     30       0.00000           0.031263            0.85072
     31       0.00000           0.032042            0.87191
     32       0.00000           0.045955            1.25049
     33       0.00000           0.067241            1.82973
     34       0.00000           0.076889            2.09225
     35       0.00000           0.078399            2.13334
     36       0.00000           0.081085            2.20643
     37       0.00000           0.127983            3.48259
     38       0.00000           0.147110            4.00306
     39       0.00000           0.200066            5.44407
     40       0.00000           0.210651            5.73210
     41       0.00000           0.267378            7.27571
     42       0.00000           0.277474            7.55044
     43       0.00000           0.281404            7.65738
     44       0.00000           0.310504            8.44924
     45       0.00000           0.336827            9.16553
     46       0.00000           0.347428            9.45401
     47       0.00000           0.359228            9.77510
     48       0.00000           0.376140           10.23529
     49       0.00000           0.395766           10.76934
     50       0.00000           0.413963           11.26450
     51       0.00000           0.414144           11.26944
     52       0.00000           0.419882           11.42556
     53       0.00000           0.460284           12.52496
     54       0.00000           0.498008           13.55149
     55       0.00000           0.523815           14.25372
     56       0.00000           0.589907           16.05219
     57       0.00000           0.603375           16.41867
     58       0.00000           0.604563           16.45101
     59       0.00000           0.621101           16.90102
     60       0.00000           0.739678           20.12766

  Highest occupied state (VBM) at     -3.22528014 eV
  | Occupation number:      2.00000000

  Lowest unoccupied state (CBM) at    -2.44249447 eV
  | Occupation number:      0.00000000

  Overall HOMO-LUMO gap:      0.78278568 eV.

  Total energy components:
  | Sum of eigenvalues            :        -344.03968759 Ha       -9361.79622233 eV
  | XC energy correction          :         -54.18025074 Ha       -1474.31963517 eV
  | XC potential correction       :          71.51550981 Ha        1946.03603507 eV
  | Free-atom electrostatic energy:        -318.56083557 Ha       -8668.48138324 eV
  | Hartree energy correction     :          -0.59395005 Ha         -16.16220308 eV
  | Entropy correction            :          -0.00000000 Ha          -0.00000000 eV
  | ---------------------------
  | Total energy                  :        -645.85921414 Ha      -17574.72340876 eV
  | Total energy, T -> 0          :        -645.85921414 Ha      -17574.72340876 eV  <-- do not rely on this value for anything but (periodic) metals
  | Electronic free energy        :        -645.85921414 Ha      -17574.72340876 eV

  Derived energy quantities:
  | Kinetic energy                :         643.69506779 Ha       17515.83399049 eV
  | Electrostatic energy          :       -1235.37403119 Ha      -33616.23776408 eV
  | Energy correction for multipole
  | error in Hartree potential    :          -0.00003503 Ha          -0.00095315 eV
  | Sum of eigenvalues per atom                           :       -2340.44905558 eV
  | Total energy (T->0) per atom                          :       -4393.68085219 eV  <-- do not rely on this value for anything but (periodic) metals
  | Electronic free energy per atom                       :       -4393.68085219 eV

  Self-consistency convergence accuracy:
  | Change of charge density      :  0.5911E-01
  | Change of sum of eigenvalues  :  0.1625E+02 eV
  | Change of total energy        :  0.2337E+00 eV

  End self-consistency iteration #     1       :  max(cpu_time)    wall_clock(cpu1)
  | Time for this iteration                    :        0.066 s           0.066 s
  | Charge density update                      :        0.012 s           0.012 s
  | Density mixing                             :        0.001 s           0.001 s
  | Hartree multipole update                   :        0.003 s           0.002 s
  | Hartree multipole summation                :        0.026 s           0.026 s
  | Integration                                :        0.022 s           0.022 s
  | Solution of K.-S. eqns.                    :        0.003 s           0.003 s
  | Total energy evaluation                    :        0.000 s           0.000 s

  Partial memory accounting:
  | Current value for overall tracked memory usage:
  |   Minimum:        0.042 MB (on task 7)
  |   Maximum:        0.046 MB (on task 0)
  |   Average:        0.045 MB
  | Peak value for overall tracked memory usage:
  |   Minimum:        0.322 MB (on task 6 after allocating wave)
  |   Maximum:        0.416 MB (on task 1 after allocating grid_partition)
  |   Average:        0.366 MB
  | Largest tracked array allocation so far:
  |   Minimum:        0.206 MB (all_coords on task 6)
  |   Maximum:        0.271 MB (all_coords on task 1)
  |   Average:        0.236 MB
  Note:  These values currently only include a subset of arrays which are explicitly tracked.
  The "true" memory usage will be greater.
------------------------------------------------------------

------------------------------------------------------------
          Begin self-consistency iteration #    2

  Date     :  20190817, Time     :  154309.908
------------------------------------------------------------
  Evaluating new KS density.
  Integration grid: deviation in total charge (<rho> - N_e) =  -2.131628E-14
  Pulay mixing of updated and previous charge densities.
  Renormalizing the density to the exact electron count on the 3D integration grid.
  | Formal number of electrons (from input files) :      44.0000000000
  | Integrated number of electrons on 3D grid     :      44.0000000000
  | Charge integration error                      :      -0.0000000000
  | Normalization factor for density and gradient :       1.0000000000

  Evaluating partitioned Hartree potential by multipole expansion.
  | Original multipole sum: apparent total charge =   0.133197E-13
  | Sum of charges compensated after spline to logarithmic grids =   0.344789E-04
  | Analytical far-field extrapolation by fixed multipoles:
  | Hartree multipole sum: apparent total charge =   0.132028E-13
  Summing up the Hartree potential with load balancing.
  Time summed over all CPUs for potential: real work        0.179 s, elapsed        0.190 s
  | RMS charge density error from multipole expansion :   0.750077E-03

  Integrating Hamiltonian matrix: batch-based integration with load balancing
  Time summed over all CPUs for integration: real work        0.168 s, elapsed        0.170 s
  | Time get_set_full_local_matrix_scalapack:     0.000057 s

  Updating Kohn-Sham eigenvalues and eigenvectors using ELSI and the ELPA eigensolver.
  Starting ELPA eigensolver
  Finished transformation to standard eigenproblem
  | Time :     0.000 s
  Finished solving standard eigenproblem
  | Time :     0.001 s
  Finished back-transformation of eigenvectors
  | Time :     0.000 s

  Obtaining occupation numbers and chemical potential using ELSI.
  | Chemical potential (Fermi level):    -2.41680252 eV
  Highest occupied state (VBM) at     -2.77092563 eV
  | Occupation number:      2.00000000

  Lowest unoccupied state (CBM) at    -2.11360111 eV
  | Occupation number:      0.00000000

  Overall HOMO-LUMO gap:      0.65732452 eV.

  Checking to see if s.c.f. parameters should be adjusted.

  Total energy components:
  | Sum of eigenvalues            :        -343.03807311 Ha       -9334.54090541 eV
  | XC energy correction          :         -54.21353342 Ha       -1475.22530311 eV
  | XC potential correction       :          71.55900706 Ha        1947.21965562 eV
  | Free-atom electrostatic energy:        -318.56083557 Ha       -8668.48138324 eV
  | Hartree energy correction     :          -1.60030201 Ha         -43.54643338 eV
  | Entropy correction            :          -0.00000000 Ha          -0.00000000 eV
  | ---------------------------
  | Total energy                  :        -645.85373705 Ha      -17574.57436951 eV
  | Total energy, T -> 0          :        -645.85373705 Ha      -17574.57436951 eV  <-- do not rely on this value for anything but (periodic) metals
  | Electronic free energy        :        -645.85373705 Ha      -17574.57436951 eV

  Derived energy quantities:
  | Kinetic energy                :         643.82133815 Ha       17519.26998175 eV
  | Electrostatic energy          :       -1235.46154177 Ha      -33618.61904815 eV
  | Energy correction for multipole
  | error in Hartree potential    :          -0.00009481 Ha          -0.00257991 eV
  | Sum of eigenvalues per atom                           :       -2333.63522635 eV
  | Total energy (T->0) per atom                          :       -4393.64359238 eV  <-- do not rely on this value for anything but (periodic) metals
  | Electronic free energy per atom                       :       -4393.64359238 eV

  Self-consistency convergence accuracy:
  | Change of charge density      :  0.3909E-01
  | Change of sum of eigenvalues  :  0.2726E+02 eV
  | Change of total energy        :  0.1490E+00 eV

  End self-consistency iteration #     2       :  max(cpu_time)    wall_clock(cpu1)
  | Time for this iteration                    :        0.063 s           0.062 s
  | Charge density update                      :        0.011 s           0.011 s
  | Density mixing                             :        0.001 s           0.000 s
  | Hartree multipole update                   :        0.002 s           0.002 s
  | Hartree multipole summation                :        0.025 s           0.025 s
  | Integration                                :        0.022 s           0.022 s
  | Solution of K.-S. eqns.                    :        0.002 s           0.002 s
  | Total energy evaluation                    :        0.000 s           0.000 s

  Partial memory accounting:
  | Current value for overall tracked memory usage:
  |   Minimum:        0.042 MB (on task 7)
  |   Maximum:        0.047 MB (on task 0)
  |   Average:        0.045 MB
  | Peak value for overall tracked memory usage:
  |   Minimum:        0.323 MB (on task 6 after allocating wave)
  |   Maximum:        0.416 MB (on task 1 after allocating grid_partition)
  |   Average:        0.366 MB
  | Largest tracked array allocation so far:
  |   Minimum:        0.206 MB (all_coords on task 6)
  |   Maximum:        0.271 MB (all_coords on task 1)
  |   Average:        0.236 MB
  Note:  These values currently only include a subset of arrays which are explicitly tracked.
  The "true" memory usage will be greater.
------------------------------------------------------------

------------------------------------------------------------
          Begin self-consistency iteration #    3

  Date     :  20190817, Time     :  154309.971
------------------------------------------------------------
  Evaluating new KS density.
  Integration grid: deviation in total charge (<rho> - N_e) =   2.131628E-14
  Pulay mixing of updated and previous charge densities.
  Renormalizing the density to the exact electron count on the 3D integration grid.
  | Formal number of electrons (from input files) :      44.0000000000
  | Integrated number of electrons on 3D grid     :      44.0000000000
  | Charge integration error                      :       0.0000000000
  | Normalization factor for density and gradient :       1.0000000000

  Evaluating partitioned Hartree potential by multipole expansion.
  | Original multipole sum: apparent total charge =   0.663770E-13
  | Sum of charges compensated after spline to logarithmic grids =   0.475193E-04
  | Analytical far-field extrapolation by fixed multipoles:
  | Hartree multipole sum: apparent total charge =   0.663032E-13
  Summing up the Hartree potential with load balancing.
  Time summed over all CPUs for potential: real work        0.178 s, elapsed        0.189 s
  | RMS charge density error from multipole expansion :   0.861183E-03

  Integrating Hamiltonian matrix: batch-based integration with load balancing
  Time summed over all CPUs for integration: real work        0.168 s, elapsed        0.170 s
  | Time get_set_full_local_matrix_scalapack:     0.000057 s

  Updating Kohn-Sham eigenvalues and eigenvectors using ELSI and the ELPA eigensolver.
  Starting ELPA eigensolver
  Finished transformation to standard eigenproblem
  | Time :     0.001 s
  Finished solving standard eigenproblem
  | Time :     0.000 s
  Finished back-transformation of eigenvectors
  | Time :     0.000 s

  Obtaining occupation numbers and chemical potential using ELSI.
  | Chemical potential (Fermi level):    -2.45389981 eV
  Highest occupied state (VBM) at     -2.74691866 eV
  | Occupation number:      2.00000000

  Lowest unoccupied state (CBM) at    -2.15072155 eV
  | Occupation number:      0.00000000

  Overall HOMO-LUMO gap:      0.59619711 eV.

  Total energy components:
  | Sum of eigenvalues            :        -343.11816813 Ha       -9336.72040204 eV
  | XC energy correction          :         -54.21075005 Ha       -1475.14956378 eV
  | XC potential correction       :          71.55529520 Ha        1947.11865073 eV
  | Free-atom electrostatic energy:        -318.56083557 Ha       -8668.48138324 eV
  | Hartree energy correction     :          -1.51901987 Ha         -41.33463374 eV
  | Entropy correction            :          -0.00000000 Ha          -0.00000000 eV
  | ---------------------------
  | Total energy                  :        -645.85347842 Ha      -17574.56733207 eV
  | Total energy, T -> 0          :        -645.85347842 Ha      -17574.56733207 eV  <-- do not rely on this value for anything but (periodic) metals
  | Electronic free energy        :        -645.85347842 Ha      -17574.56733207 eV

  Derived energy quantities:
  | Kinetic energy                :         643.79734214 Ha       17518.61701693 eV
  | Electrostatic energy          :       -1235.44007051 Ha      -33618.03478523 eV
  | Energy correction for multipole
  | error in Hartree potential    :          -0.00008307 Ha          -0.00226036 eV
  | Sum of eigenvalues per atom                           :       -2334.18010051 eV
  | Total energy (T->0) per atom                          :       -4393.64183302 eV  <-- do not rely on this value for anything but (periodic) metals
  | Electronic free energy per atom                       :       -4393.64183302 eV

  Self-consistency convergence accuracy:
  | Change of charge density      :  0.9600E-02
  | Change of sum of eigenvalues  : -0.2179E+01 eV
  | Change of total energy        :  0.7037E-02 eV

  End self-consistency iteration #     3       :  max(cpu_time)    wall_clock(cpu1)
  | Time for this iteration                    :        0.062 s           0.061 s
  | Charge density update                      :        0.011 s           0.011 s
  | Density mixing                             :        0.001 s           0.000 s
  | Hartree multipole update                   :        0.002 s           0.003 s
  | Hartree multipole summation                :        0.024 s           0.024 s
  | Integration                                :        0.021 s           0.021 s
  | Solution of K.-S. eqns.                    :        0.002 s           0.002 s
  | Total energy evaluation                    :        0.000 s           0.000 s

  Partial memory accounting:
  | Current value for overall tracked memory usage:
  |   Minimum:        0.043 MB (on task 7)
  |   Maximum:        0.047 MB (on task 0)
  |   Average:        0.045 MB
  | Peak value for overall tracked memory usage:
  |   Minimum:        0.323 MB (on task 6 after allocating wave)
  |   Maximum:        0.416 MB (on task 1 after allocating grid_partition)
  |   Average:        0.366 MB
  | Largest tracked array allocation so far:
  |   Minimum:        0.206 MB (all_coords on task 6)
  |   Maximum:        0.271 MB (all_coords on task 1)
  |   Average:        0.236 MB
  Note:  These values currently only include a subset of arrays which are explicitly tracked.
  The "true" memory usage will be greater.
------------------------------------------------------------

------------------------------------------------------------
          Begin self-consistency iteration #    4

  Date     :  20190817, Time     :  154310.033
------------------------------------------------------------
  Evaluating new KS density.
  Integration grid: deviation in total charge (<rho> - N_e) =   1.421085E-14
  Pulay mixing of updated and previous charge densities.
  Renormalizing the density to the exact electron count on the 3D integration grid.
  | Formal number of electrons (from input files) :      44.0000000000
  | Integrated number of electrons on 3D grid     :      44.0000000000
  | Charge integration error                      :      -0.0000000000
  | Normalization factor for density and gradient :       1.0000000000

  Evaluating partitioned Hartree potential by multipole expansion.
  | Original multipole sum: apparent total charge =   0.862151E-14
  | Sum of charges compensated after spline to logarithmic grids =   0.522197E-04
  | Analytical far-field extrapolation by fixed multipoles:
  | Hartree multipole sum: apparent total charge =   0.825254E-14
  Summing up the Hartree potential with load balancing.
  Time summed over all CPUs for potential: real work        0.178 s, elapsed        0.190 s
  | RMS charge density error from multipole expansion :   0.925598E-03

  Integrating Hamiltonian matrix: batch-based integration with load balancing
  Time summed over all CPUs for integration: real work        0.168 s, elapsed        0.170 s
  | Time get_set_full_local_matrix_scalapack:     0.000060 s

  Updating Kohn-Sham eigenvalues and eigenvectors using ELSI and the ELPA eigensolver.
  Starting ELPA eigensolver
  Finished transformation to standard eigenproblem
  | Time :     0.000 s
  Finished solving standard eigenproblem
  | Time :     0.001 s
  Finished back-transformation of eigenvectors
  | Time :     0.000 s

  Obtaining occupation numbers and chemical potential using ELSI.
  | Chemical potential (Fermi level):    -2.38281577 eV
  Highest occupied state (VBM) at     -2.70204855 eV
  | Occupation number:      2.00000000

  Lowest unoccupied state (CBM) at    -2.10832598 eV
  | Occupation number:      0.00000000

  Overall HOMO-LUMO gap:      0.59372257 eV.

  Total energy components:
  | Sum of eigenvalues            :        -343.02657765 Ha       -9334.22809804 eV
  | XC energy correction          :         -54.21415455 Ha       -1475.24220469 eV
  | XC potential correction       :          71.55973828 Ha        1947.23955309 eV
  | Free-atom electrostatic energy:        -318.56083557 Ha       -8668.48138324 eV
  | Hartree energy correction     :          -1.61167282 Ha         -43.85584888 eV
  | Entropy correction            :          -0.00000000 Ha          -0.00000000 eV
  | ---------------------------
  | Total energy                  :        -645.85350230 Ha      -17574.56798176 eV
  | Total energy, T -> 0          :        -645.85350230 Ha      -17574.56798176 eV  <-- do not rely on this value for anything but (periodic) metals
  | Electronic free energy        :        -645.85350230 Ha      -17574.56798176 eV

  Derived energy quantities:
  | Kinetic energy                :         643.80733463 Ha       17518.88892648 eV
  | Electrostatic energy          :       -1235.44668238 Ha      -33618.21470355 eV
  | Energy correction for multipole
  | error in Hartree potential    :          -0.00008378 Ha          -0.00227986 eV
  | Sum of eigenvalues per atom                           :       -2333.55702451 eV
  | Total energy (T->0) per atom                          :       -4393.64199544 eV  <-- do not rely on this value for anything but (periodic) metals
  | Electronic free energy per atom                       :       -4393.64199544 eV

  Self-consistency convergence accuracy:
  | Change of charge density      :  0.4626E-02
  | Change of sum of eigenvalues  :  0.2492E+01 eV
  | Change of total energy        : -0.6497E-03 eV

  End self-consistency iteration #     4       :  max(cpu_time)    wall_clock(cpu1)
  | Time for this iteration                    :        0.062 s           0.062 s
  | Charge density update                      :        0.011 s           0.011 s
  | Density mixing                             :        0.001 s           0.000 s
  | Hartree multipole update                   :        0.002 s           0.002 s
  | Hartree multipole summation                :        0.024 s           0.024 s
  | Integration                                :        0.021 s           0.022 s
  | Solution of K.-S. eqns.                    :        0.002 s           0.001 s
  | Total energy evaluation                    :        0.000 s           0.000 s

  Partial memory accounting:
  | Current value for overall tracked memory usage:
  |   Minimum:        0.043 MB (on task 7)
  |   Maximum:        0.047 MB (on task 0)
  |   Average:        0.045 MB
  | Peak value for overall tracked memory usage:
  |   Minimum:        0.323 MB (on task 6 after allocating wave)
  |   Maximum:        0.416 MB (on task 1 after allocating grid_partition)
  |   Average:        0.366 MB
  | Largest tracked array allocation so far:
  |   Minimum:        0.206 MB (all_coords on task 6)
  |   Maximum:        0.271 MB (all_coords on task 1)
  |   Average:        0.236 MB
  Note:  These values currently only include a subset of arrays which are explicitly tracked.
  The "true" memory usage will be greater.
------------------------------------------------------------

------------------------------------------------------------
          Begin self-consistency iteration #    5

  Date     :  20190817, Time     :  154310.095
------------------------------------------------------------
  Evaluating new KS density.
  Integration grid: deviation in total charge (<rho> - N_e) =  -7.105427E-15
  Pulay mixing of updated and previous charge densities.
  Renormalizing the density to the exact electron count on the 3D integration grid.
  | Formal number of electrons (from input files) :      44.0000000000
  | Integrated number of electrons on 3D grid     :      44.0000000000
  | Charge integration error                      :       0.0000000000
  | Normalization factor for density and gradient :       1.0000000000

  Evaluating partitioned Hartree potential by multipole expansion.
  | Original multipole sum: apparent total charge =   0.618510E-13
  | Sum of charges compensated after spline to logarithmic grids =   0.568405E-04
  | Analytical far-field extrapolation by fixed multipoles:
  | Hartree multipole sum: apparent total charge =   0.622077E-13
  Summing up the Hartree potential with load balancing.
  Time summed over all CPUs for potential: real work        0.178 s, elapsed        0.189 s
  | RMS charge density error from multipole expansion :   0.951234E-03

  Integrating Hamiltonian matrix: batch-based integration with load balancing
  Time summed over all CPUs for integration: real work        0.167 s, elapsed        0.169 s
  | Time get_set_full_local_matrix_scalapack:     0.000061 s

  Updating Kohn-Sham eigenvalues and eigenvectors using ELSI and the ELPA eigensolver.
  Starting ELPA eigensolver
  Finished transformation to standard eigenproblem
  | Time :     0.000 s
  Finished solving standard eigenproblem
  | Time :     0.001 s
  Finished back-transformation of eigenvectors
  | Time :     0.000 s

  Obtaining occupation numbers and chemical potential using ELSI.
  | Chemical potential (Fermi level):    -2.40335510 eV
  Highest occupied state (VBM) at     -2.71246123 eV
  | Occupation number:      2.00000000

  Lowest unoccupied state (CBM) at    -2.10895268 eV
  | Occupation number:      0.00000000

  Overall HOMO-LUMO gap:      0.60350855 eV.

  Total energy components:
  | Sum of eigenvalues            :        -343.06739972 Ha       -9335.33892326 eV
  | XC energy correction          :         -54.21261451 Ha       -1475.20029829 eV
  | XC potential correction       :          71.55771742 Ha        1947.18456275 eV
  | Free-atom electrostatic energy:        -318.56083557 Ha       -8668.48138324 eV
  | Hartree energy correction     :          -1.57037360 Ha         -42.73203981 eV
  | Entropy correction            :          -0.00000000 Ha          -0.00000000 eV
  | ---------------------------
  | Total energy                  :        -645.85350598 Ha      -17574.56808185 eV
  | Total energy, T -> 0          :        -645.85350598 Ha      -17574.56808185 eV  <-- do not rely on this value for anything but (periodic) metals
  | Electronic free energy        :        -645.85350598 Ha      -17574.56808185 eV

  Derived energy quantities:
  | Kinetic energy                :         643.80195921 Ha       17518.74265404 eV
  | Electrostatic energy          :       -1235.44285068 Ha      -33618.11043761 eV
  | Energy correction for multipole
  | error in Hartree potential    :          -0.00006988 Ha          -0.00190152 eV
  | Sum of eigenvalues per atom                           :       -2333.83473081 eV
  | Total energy (T->0) per atom                          :       -4393.64202046 eV  <-- do not rely on this value for anything but (periodic) metals
  | Electronic free energy per atom                       :       -4393.64202046 eV

  Self-consistency convergence accuracy:
  | Change of charge density      :  0.2654E-02
  | Change of sum of eigenvalues  : -0.1111E+01 eV
  | Change of total energy        : -0.1001E-03 eV

  End self-consistency iteration #     5       :  max(cpu_time)    wall_clock(cpu1)
  | Time for this iteration                    :        0.062 s           0.062 s
  | Charge density update                      :        0.011 s           0.011 s
  | Density mixing                             :        0.001 s           0.001 s
  | Hartree multipole update                   :        0.002 s           0.002 s
  | Hartree multipole summation                :        0.024 s           0.024 s
  | Integration                                :        0.021 s           0.022 s
  | Solution of K.-S. eqns.                    :        0.002 s           0.002 s
  | Total energy evaluation                    :        0.000 s           0.000 s

  Partial memory accounting:
  | Current value for overall tracked memory usage:
  |   Minimum:        0.043 MB (on task 7)
  |   Maximum:        0.047 MB (on task 0)
  |   Average:        0.045 MB
  | Peak value for overall tracked memory usage:
  |   Minimum:        0.323 MB (on task 6 after allocating wave)
  |   Maximum:        0.416 MB (on task 1 after allocating grid_partition)
  |   Average:        0.366 MB
  | Largest tracked array allocation so far:
  |   Minimum:        0.206 MB (all_coords on task 6)
  |   Maximum:        0.271 MB (all_coords on task 1)
  |   Average:        0.236 MB
  Note:  These values currently only include a subset of arrays which are explicitly tracked.
  The "true" memory usage will be greater.
------------------------------------------------------------

------------------------------------------------------------
          Begin self-consistency iteration #    6

  Date     :  20190817, Time     :  154310.157
------------------------------------------------------------
  Evaluating new KS density.
  Integration grid: deviation in total charge (<rho> - N_e) =   4.263256E-14
  Pulay mixing of updated and previous charge densities.
  Renormalizing the density to the exact electron count on the 3D integration grid.
  | Formal number of electrons (from input files) :      44.0000000000
  | Integrated number of electrons on 3D grid     :      44.0000000000
  | Charge integration error                      :       0.0000000000
  | Normalization factor for density and gradient :       1.0000000000

  Evaluating partitioned Hartree potential by multipole expansion.
  | Original multipole sum: apparent total charge =   0.216337E-13
  | Sum of charges compensated after spline to logarithmic grids =   0.570814E-04
  | Analytical far-field extrapolation by fixed multipoles:
  | Hartree multipole sum: apparent total charge =   0.216706E-13
  Summing up the Hartree potential with load balancing.
  Time summed over all CPUs for potential: real work        0.180 s, elapsed        0.191 s
  | RMS charge density error from multipole expansion :   0.947864E-03

  Integrating Hamiltonian matrix: batch-based integration with load balancing
  Time summed over all CPUs for integration: real work        0.169 s, elapsed        0.171 s
  | Time get_set_full_local_matrix_scalapack:     0.000060 s

  Updating Kohn-Sham eigenvalues and eigenvectors using ELSI and the ELPA eigensolver.
  Starting ELPA eigensolver
  Finished transformation to standard eigenproblem
  | Time :     0.000 s
  Finished solving standard eigenproblem
  | Time :     0.001 s
  Finished back-transformation of eigenvectors
  | Time :     0.000 s

  Obtaining occupation numbers and chemical potential using ELSI.
  | Chemical potential (Fermi level):    -2.41674755 eV
  Highest occupied state (VBM) at     -2.72156008 eV
  | Occupation number:      2.00000000

  Lowest unoccupied state (CBM) at    -2.11518861 eV
  | Occupation number:      0.00000000

  Overall HOMO-LUMO gap:      0.60637147 eV.

  Total energy components:
  | Sum of eigenvalues            :        -343.08672889 Ha       -9335.86489668 eV
  | XC energy correction          :         -54.21215192 Ha       -1475.18771051 eV
  | XC potential correction       :          71.55711965 Ha        1947.16829646 eV
  | Free-atom electrostatic energy:        -318.56083557 Ha       -8668.48138324 eV
  | Hartree energy correction     :          -1.55090983 Ha         -42.20240364 eV
  | Entropy correction            :          -0.00000000 Ha          -0.00000000 eV
  | ---------------------------
  | Total energy                  :        -645.85350656 Ha      -17574.56809762 eV
  | Total energy, T -> 0          :        -645.85350656 Ha      -17574.56809762 eV  <-- do not rely on this value for anything but (periodic) metals
  | Electronic free energy        :        -645.85350656 Ha      -17574.56809762 eV

  Derived energy quantities:
  | Kinetic energy                :         643.80276639 Ha       17518.76461839 eV
  | Electrostatic energy          :       -1235.44412103 Ha      -33618.14500550 eV
  | Energy correction for multipole
  | error in Hartree potential    :          -0.00006553 Ha          -0.00178305 eV
  | Sum of eigenvalues per atom                           :       -2333.96622417 eV
  | Total energy (T->0) per atom                          :       -4393.64202441 eV  <-- do not rely on this value for anything but (periodic) metals
  | Electronic free energy per atom                       :       -4393.64202441 eV

  Self-consistency convergence accuracy:
  | Change of charge density      :  0.4888E-03
  | Change of sum of eigenvalues  : -0.5260E+00 eV
  | Change of total energy        : -0.1577E-04 eV

  End self-consistency iteration #     6       :  max(cpu_time)    wall_clock(cpu1)
  | Time for this iteration                    :        0.062 s           0.063 s
  | Charge density update                      :        0.011 s           0.011 s
  | Density mixing                             :        0.001 s           0.001 s
  | Hartree multipole update                   :        0.002 s           0.003 s
  | Hartree multipole summation                :        0.024 s           0.024 s
  | Integration                                :        0.022 s           0.022 s
  | Solution of K.-S. eqns.                    :        0.002 s           0.001 s
  | Total energy evaluation                    :        0.000 s           0.000 s

  Partial memory accounting:
  | Current value for overall tracked memory usage:
  |   Minimum:        0.043 MB (on task 7)
  |   Maximum:        0.047 MB (on task 0)
  |   Average:        0.045 MB
  | Peak value for overall tracked memory usage:
  |   Minimum:        0.323 MB (on task 6 after allocating wave)
  |   Maximum:        0.416 MB (on task 1 after allocating grid_partition)
  |   Average:        0.366 MB
  | Largest tracked array allocation so far:
  |   Minimum:        0.206 MB (all_coords on task 6)
  |   Maximum:        0.271 MB (all_coords on task 1)
  |   Average:        0.236 MB
  Note:  These values currently only include a subset of arrays which are explicitly tracked.
  The "true" memory usage will be greater.
------------------------------------------------------------

------------------------------------------------------------
          Begin self-consistency iteration #    7

  Date     :  20190817, Time     :  154310.220
------------------------------------------------------------
  Evaluating new KS density.
  Integration grid: deviation in total charge (<rho> - N_e) =   7.105427E-15
  Pulay mixing of updated and previous charge densities.
  Renormalizing the density to the exact electron count on the 3D integration grid.
  | Formal number of electrons (from input files) :      44.0000000000
  | Integrated number of electrons on 3D grid     :      44.0000000000
  | Charge integration error                      :      -0.0000000000
  | Normalization factor for density and gradient :       1.0000000000

  Evaluating partitioned Hartree potential by multipole expansion.
  | Original multipole sum: apparent total charge =  -0.281767E-13
  | Sum of charges compensated after spline to logarithmic grids =   0.574569E-04
  | Analytical far-field extrapolation by fixed multipoles:
  | Hartree multipole sum: apparent total charge =  -0.282136E-13
  Summing up the Hartree potential with load balancing.
  Time summed over all CPUs for potential: real work        0.181 s, elapsed        0.192 s
  | RMS charge density error from multipole expansion :   0.953956E-03

  Integrating Hamiltonian matrix: batch-based integration with load balancing
  Time summed over all CPUs for integration: real work        0.168 s, elapsed        0.170 s
  | Time get_set_full_local_matrix_scalapack:     0.000060 s

  Updating Kohn-Sham eigenvalues and eigenvectors using ELSI and the ELPA eigensolver.
  Starting ELPA eigensolver
  Finished transformation to standard eigenproblem
  | Time :     0.000 s
  Finished solving standard eigenproblem
  | Time :     0.001 s
  Finished back-transformation of eigenvectors
  | Time :     0.000 s

  Obtaining occupation numbers and chemical potential using ELSI.
  | Chemical potential (Fermi level):    -2.40899982 eV
  Highest occupied state (VBM) at     -2.71712928 eV
  | Occupation number:      2.00000000

  Lowest unoccupied state (CBM) at    -2.11058586 eV
  | Occupation number:      0.00000000

  Overall HOMO-LUMO gap:      0.60654343 eV.

  Total energy components:
  | Sum of eigenvalues            :        -343.07656465 Ha       -9335.58831352 eV
  | XC energy correction          :         -54.21260348 Ha       -1475.19999813 eV
  | XC potential correction       :          71.55771111 Ha        1947.18439106 eV
  | Free-atom electrostatic energy:        -318.56083557 Ha       -8668.48138324 eV
  | Hartree energy correction     :          -1.56121349 Ha         -42.48278064 eV
  | Entropy correction            :          -0.00000000 Ha          -0.00000000 eV
  | ---------------------------
  | Total energy                  :        -645.85350607 Ha      -17574.56808448 eV
  | Total energy, T -> 0          :        -645.85350607 Ha      -17574.56808448 eV  <-- do not rely on this value for anything but (periodic) metals
  | Electronic free energy        :        -645.85350607 Ha      -17574.56808448 eV

  Derived energy quantities:
  | Kinetic energy                :         643.80463271 Ha       17518.81540349 eV
  | Electrostatic energy          :       -1235.44553530 Ha      -33618.18348983 eV
  | Energy correction for multipole
  | error in Hartree potential    :          -0.00006544 Ha          -0.00178084 eV
  | Sum of eigenvalues per atom                           :       -2333.89707838 eV
  | Total energy (T->0) per atom                          :       -4393.64202112 eV  <-- do not rely on this value for anything but (periodic) metals
  | Electronic free energy per atom                       :       -4393.64202112 eV

  Self-consistency convergence accuracy:
  | Change of charge density      :  0.4199E-03
  | Change of sum of eigenvalues  :  0.2766E+00 eV
  | Change of total energy        :  0.1315E-04 eV

  End self-consistency iteration #     7       :  max(cpu_time)    wall_clock(cpu1)
  | Time for this iteration                    :        0.063 s           0.063 s
  | Charge density update                      :        0.011 s           0.011 s
  | Density mixing                             :        0.001 s           0.001 s
  | Hartree multipole update                   :        0.002 s           0.003 s
  | Hartree multipole summation                :        0.024 s           0.024 s
  | Integration                                :        0.022 s           0.022 s
  | Solution of K.-S. eqns.                    :        0.002 s           0.001 s
  | Total energy evaluation                    :        0.000 s           0.000 s

  Partial memory accounting:
  | Current value for overall tracked memory usage:
  |   Minimum:        0.043 MB (on task 7)
  |   Maximum:        0.047 MB (on task 0)
  |   Average:        0.045 MB
  | Peak value for overall tracked memory usage:
  |   Minimum:        0.323 MB (on task 6 after allocating wave)
  |   Maximum:        0.416 MB (on task 1 after allocating grid_partition)
  |   Average:        0.366 MB
  | Largest tracked array allocation so far:
  |   Minimum:        0.206 MB (all_coords on task 6)
  |   Maximum:        0.271 MB (all_coords on task 1)
  |   Average:        0.236 MB
  Note:  These values currently only include a subset of arrays which are explicitly tracked.
  The "true" memory usage will be greater.
------------------------------------------------------------

------------------------------------------------------------
          Begin self-consistency iteration #    8

  Date     :  20190817, Time     :  154310.283
------------------------------------------------------------
  Evaluating new KS density.
  Integration grid: deviation in total charge (<rho> - N_e) =   2.842171E-14
  Pulay mixing of updated and previous charge densities.
  Renormalizing the density to the exact electron count on the 3D integration grid.
  | Formal number of electrons (from input files) :      44.0000000000
  | Integrated number of electrons on 3D grid     :      44.0000000000
  | Charge integration error                      :      -0.0000000000
  | Normalization factor for density and gradient :       1.0000000000

  Evaluating partitioned Hartree potential by multipole expansion.
  | Original multipole sum: apparent total charge =  -0.420867E-13
  | Sum of charges compensated after spline to logarithmic grids =   0.574531E-04
  | Analytical far-field extrapolation by fixed multipoles:
  | Hartree multipole sum: apparent total charge =  -0.420375E-13
  Summing up the Hartree potential with load balancing.
  Time summed over all CPUs for potential: real work        0.179 s, elapsed        0.190 s
  | RMS charge density error from multipole expansion :   0.954235E-03

  Integrating Hamiltonian matrix: batch-based integration with load balancing
  Time summed over all CPUs for integration: real work        0.166 s, elapsed        0.168 s
  | Time get_set_full_local_matrix_scalapack:     0.000059 s

  Updating Kohn-Sham eigenvalues and eigenvectors using ELSI and the ELPA eigensolver.
  Starting ELPA eigensolver
  Finished transformation to standard eigenproblem
  | Time :     0.001 s
  Finished solving standard eigenproblem
  | Time :     0.000 s
  Finished back-transformation of eigenvectors
  | Time :     0.000 s

  Obtaining occupation numbers and chemical potential using ELSI.
  | Chemical potential (Fermi level):    -2.40886519 eV
  Highest occupied state (VBM) at     -2.71702675 eV
  | Occupation number:      2.00000000

  Lowest unoccupied state (CBM) at    -2.11050654 eV
  | Occupation number:      0.00000000

  Overall HOMO-LUMO gap:      0.60652021 eV.

  Total energy components:
[...]

------------------------------------------------------------
 
 --------------------------------------------
  Constructing auxiliary basis (full product) ...
 
  Product basis:
  | charge radius: extent of product basis function
  | field radius: extent of its Coulomb potential
  | Species   l  charge radius    field radius  multipol momen
  |    Na     0     1.449931 A      1.449931 A       -1.116180E-16 a.u.
  |    Na     0     3.855553 A      3.855553 A       -1.046980E-18 a.u.
  |    Na     1     4.200021 A      4.200021 A        1.760831E-17 a.u.
  |    Na     0     5.842531 A      5.842531 A        2.388490E-16 a.u.
  |    Na     3     5.987141 A      5.987141 A        1.072479E-15 a.u.
  |    Na     1     6.060783 A      6.060783 A        3.136920E-17 a.u.
  |    Na     2     6.060783 A      6.060783 A        1.159728E-16 a.u.
  |    Na     3     6.060783 A      6.060783 A        2.764634E-16 a.u.
  |    Na     1     6.210795 A      6.210795 A       -1.122618E-16 a.u.
  |    Na     1     6.287188 A      6.287188 A        4.532547E-16 a.u.
  |    Na     0     6.364521 A      6.364521 A        7.640613E-18 a.u.
  |    Na     2     6.364521 A      6.364521 A       -4.974741E-16 a.u.
  |    Na     2     6.364521 A      6.364521 A       -1.602734E-15 a.u.
  |    Na     2     6.364521 A      6.364521 A        2.001666E-15 a.u.
  |    Na     0     6.364521 A      6.442804 A       -2.230945E-16 a.u.
  |    Na     1     6.364521 A      6.442804 A        5.985976E-16 a.u.
  |    Na     2     6.442804 A      6.442804 A        3.973192E-15 a.u.
  |    Na     0     6.442804 A      6.522051 A       -2.174407E-16 a.u.
  |    Na     0     6.442804 A      6.522051 A        3.385054E-16 a.u.
  |    Na     1     6.442804 A      6.522051 A        8.828432E-16 a.u.
  |    Na     1     6.442804 A      6.522051 A        4.492100E-16 a.u.
  |    Na     2     6.442804 A      6.522051 A        9.053667E-15 a.u.
  |    Na     4     5.771541 A  4.467983E+02 A           34.146169 a.u.
  |    Na     3     6.060783 A  2.494633E+03 A           39.301766 a.u.
  |    Na     2     6.442804 A  3.418818E+04 A           21.459257 a.u.
  |    Na     1     6.442804 A  3.483140E+06 A            3.447701 a.u.
  |    Na     0     6.442804 A  5.276567E+12 A            0.793488 a.u.

  | Shrink_full_auxil_basis : there are       27  radial auxiliary wave functions
                            accepted and      15 rejected.
  | Shrink_full_auxil_basis : there are totally                 388 partial auxiliary wave functions.
 
  | Maximal number of product basis functions per thread :    52    52
 
  | Minimal total memory requirement for three-center overlap :       0.008 Gbs
  | Number of local auxiliary basis functions on task:      0    52
  | Number of local auxiliary basis functions on task:      1    48
  | Number of local auxiliary basis functions on task:      2    48
  | Number of local auxiliary basis functions on task:      3    48
  | Number of local auxiliary basis functions on task:      4    48
  | Number of local auxiliary basis functions on task:      5    48
  | Number of local auxiliary basis functions on task:      6    48
  | Number of local auxiliary basis functions on task:      7    48
  | 2D aux task distribution:      2 X      4
  | 2D block size (nb_aux_2d):     64
  | Task at    0 x    0 gets    196 x    128 entries of 2D aux
  | Task at    0 x    1 gets    196 x    128 entries of 2D aux
  | Task at    0 x    2 gets    196 x     68 entries of 2D aux
  | Task at    0 x    3 gets    196 x     64 entries of 2D aux
  | Task at    1 x    0 gets    192 x    128 entries of 2D aux
  | Task at    1 x    1 gets    192 x    128 entries of 2D aux
  | Task at    1 x    2 gets    192 x     68 entries of 2D aux
  | Task at    1 x    3 gets    192 x     64 entries of 2D aux
 
  Basis pair condensation :      1830  -->       1822
 
 ----------------------------------------------------
  Integrating the 3-basis-function Coulomb matrix ...
  | i_atom:            1
  | i_atom:            2
  | i_atom:            3
  | i_atom:            4
 
  Integrating the coulomb interaction matrix for basis functions ...
 
  Diagonalizing the Coulomb matrix and checking for singularities with ScaLapack .
 
  Difference of Coulomb matrix to its transposed:  6.4527E-05
  Eigenvalues of the Coulomb matrix range from    3.9424E+00 to    1.0150E-05.
  Using      385   eigenvalues out of rank      388   Coulomb matrix (auxiliary basis).
  Still using eigenvalue     3.4042E-04 while cutting     3.3558E-05 in Coulomb matrix.
 
  Multiplying ovlp_3fn x V^-0.5 (2d-scalapack)

  End of correlation preparation               :  max(cpu_time)    wall_clock(cpu1)
  | Product basis setup: Total time            :        1.747 s           1.748 s
  | Product basis: | 3-center integrations     :        0.854 s           0.855 s
  | Product basis: | 2-center integrations     :        0.831 s           0.831 s
  | Product basis: | 2-center linear algebra   :        0.017 s           0.017 s
  | Product basis: | 3-center x 2-center       :        0.012 s           0.012 s

--------------------------------------------
          GW quasiparticle calculation starts ...

  The ovlp_3KS matrix takes another      1 MiB x      8 procs =       0.006 GiB.


  Initialising transformed Gauss-Legendre time and frequency grids
  Number of frequency points for self energy.....: 40
  Number of frequency points....................: 40
 
  Starts to calculate the exchange energy ...
 
  Integrating the xc potential matrix  for basis functions ...
 
 -------------------------------------------------
  Start to calculate the self energy ... 
  HOMO and first non-fully-occupied orbitals:   22   23
 
 | i_freq    1            0.000441
 | i_freq    2            0.002329
 | i_freq    3            0.005750
 | i_freq    4            0.010747
 | i_freq    5            0.017381
 | i_freq    6            0.025735
 | i_freq    7            0.035917
 | i_freq    8            0.048062
 | i_freq    9            0.062333
 | i_freq   10            0.078932
 | i_freq   11            0.098102
 | i_freq   12            0.120134
 | i_freq   13            0.145383
 | i_freq   14            0.174274
 | i_freq   15            0.207324
 | i_freq   16            0.245160
 | i_freq   17            0.288549
 | i_freq   18            0.338436
 | i_freq   19            0.395990
 | i_freq   20            0.462675
 | i_freq   21            0.540336
 | i_freq   22            0.631329
 | i_freq   23            0.738693
 | i_freq   24            0.866404
 | i_freq   25            1.019743
 | i_freq   26            1.205842
 | i_freq   27            1.434520
 | i_freq   28            1.719594
 | i_freq   29            2.081004
 | i_freq   30            2.548378
 | i_freq   31            3.167279
 | i_freq   32            4.010715
 | i_freq   33            5.201652
 | i_freq   34            6.960432
 | i_freq   35            9.714380
 | i_freq   36           14.383789
 | i_freq   37           23.262462
 | i_freq   38           43.475277
 | i_freq   39          107.331113
 | i_freq   40          566.943404
 --------------------------------------------
 
  Analytical continuation (two-pole fitting) starts...
 
  Quasi particle energy calculation using analytic continuation starts...
 
------------------------------------------------------------------------------------------------------
               GW quasi-particle energy levels
 
               e_qp = e_gs + e_x^ex - e_xc^gs + e_c^nloc
 
  state     occ_num        e_gs        e_x^ex        e_xc^gs        e_c^nloc        e_qp
------------------------------------------------------------------------------------------------------
------------------------------------------------------------------------------------------------------
       1    2.0000    -1025.8933     -186.7948     -110.9081        7.6316    -1094.1484
       2    2.0000    -1025.8933     -186.7948     -110.9081        7.6316    -1094.1484
       3    2.0000    -1025.2481     -186.8010     -110.9080        6.4801    -1094.6609
       4    2.0000    -1025.2481     -186.8010     -110.9080        6.4801    -1094.6610
       5    2.0000      -55.7356      -53.5005      -33.1977        8.6414      -67.3970
       6    2.0000      -55.7299      -53.5141      -33.2095        8.6398      -67.3946
       7    2.0000      -55.0494      -53.5346      -33.2054        8.8005      -66.5781
       8    2.0000      -55.0494      -53.5346      -33.2054        8.8001      -66.5785
       9    2.0000      -28.5016      -44.9658      -32.0194        5.0922      -36.3558
      10    2.0000      -28.4599      -45.0505      -32.1000        5.0019      -36.4084
      11    2.0000      -28.4517      -45.0752      -32.1255        5.0098      -36.3915
      12    2.0000      -28.4297      -45.1540      -32.1957        5.1023      -36.2856
      13    2.0000      -28.4189      -45.0952      -32.1075        5.1384      -36.2682
      14    2.0000      -28.4101      -45.1236      -32.1371        5.1386      -36.2580
      15    2.0000      -27.7743      -45.0522      -32.1126        4.9462      -35.7677
      16    2.0000      -27.7741      -45.0555      -32.1153        4.9461      -35.7683
      17    2.0000      -27.7696      -45.0604      -32.1159        4.9175      -35.7966
      18    2.0000      -27.7696      -45.0601      -32.1159        4.9180      -35.7958
      19    2.0000      -27.7649      -45.0572      -32.1099        5.0161      -35.6961
      20    2.0000      -27.7645      -45.0648      -32.1165        5.0142      -35.6986
      21    2.0000       -3.9415       -7.7332       -6.2042        0.4602       -5.0102
      22    2.0000       -2.7171       -6.3994       -5.5665       -0.3637       -3.9138
      23    0.0000       -2.1106       -1.9727       -4.6909       -1.2618       -0.6542
      24    0.0000       -1.4867       -2.2959       -4.7670       -1.0976       -0.1131
      25    0.0000       -1.1332       -2.0424       -5.0766       -1.3724        0.5285
      26    0.0000       -0.4800       -2.3193       -5.5408       -1.2335        1.5080
      27    0.0000       -0.2451       -1.8757       -4.9009       -1.7002        1.0799
      28    0.0000       -0.2169       -2.3836       -5.4899       -1.1816        1.7078
      29    0.0000        0.2640       -2.0609       -5.3706       -1.2424        2.3313
      30    0.0000        1.2207       -1.7448       -5.3512       -2.2601        2.5671
      31    0.0000        1.2570       -2.0081       -5.6643       -0.1759        4.7373
      32    0.0000        1.6873       -2.0197       -5.7681        0.2824        5.7181
------------------------------------------------------------------------------------------------------
 
   DFT/Hartree-Fock HOMO level (eV):    -2.7171   -2.7171
 
   Quasiparticle HOMO level (eV):       -3.9138   -3.9138
 
------------------------------------------------------------------------------------------------------
 
          | Total time for transforming the 3-center integrals :        0.004 s
          | Total time for calculating the exchange-correlation
                                  energy matrix elements   :        0.020 s
          | Total time for calculating polarisability     
                        for imaginary frequencies          :        0.063 s
          | Total time for calculating self energy 
                        on imaginary frequency axis        :        0.710 s
          | Total time for calculating the quasiparticle 
                  energies with analytic continuation      :        0.000 s
          | Total time for calculating the quasiparticle 
                  energies with contour deformation        :        0.000 s
  |------------------------------------------------------
  | Final ELSI Output
  |------------------------------------------------------
  |
  | Physical Properties
  |   Number of electrons       :        0.44000000E+02
  |   Number of spins           :                     1
  |   Number of k-points        :                     1
  |   Number of states          :                    60
  |
  | Matrix Properties
  |   Matrix format             :           BLACS_DENSE
  |   Number of basis functions :                    60
  |   Matrix sparsity           :        0.40555556E+00
  |
  | Computational Details
  |   Parallel mode             :            MULTI_PROC
  |   Number of MPI tasks       :                     8
  |   Solver requested          :                  ELPA
  |   Number of ELSI calls      :                    12
  |
  |------------------------------------------------------
  | ELSI Project (c)  elsi-interchange.org
  |------------------------------------------------------

------------------------------------------------------------------------------
  Final output of selected total energy values:

  The following output summarizes some interesting total energy values
  at the end of a run (AFTER all relaxation, molecular dynamics, etc.).

  | Total energy of the DFT / Hartree-Fock s.c.f. calculation      :         -17574.568084525 eV
  | Final zero-broadening corrected energy (caution - metals only) :         -17574.568084525 eV
  | For reference only, the value of 1 Hartree used in FHI-aims is :             27.211384500 eV

  Before relying on these values, please be sure to understand exactly which
  total energy value is referred to by a given number. Different objects may
  all carry the same name 'total energy'. Definitions:

  Total energy of the DFT / Hartree-Fock s.c.f. calculation:
  | Note that this energy does not include ANY quantities calculated after the
  | s.c.f. cycle, in particular not ANY RPA, MP2, etc. many-body perturbation terms.

  Final zero-broadening corrected energy:
  | For metallic systems only, a broadening of the occupation numbers at the Fermi
  | level can be extrapolated back to zero broadening by an electron-gas inspired
  | formula. For all systems that are not real metals, this value can be
  | meaningless and should be avoided.

------------------------------------------------------------------------------
  Methods described in the following list of references were used in this FHI-aims run.
  If you publish the results, please make sure to cite these reference if they apply.
  FHI-aims is an academic code, and for our developers (often, Ph.D. students
  and postdocs), scientific credit in the community is essential.
  Thank you for helping us!

  For any use of FHI-aims, please cite:

    Volker Blum, Ralf Gehrke, Felix Hanke, Paula Havu, Ville Havu,
    Xinguo Ren, Karsten Reuter, and Matthias Scheffler
    'Ab initio molecular simulations with numeric atom-centered orbitals'
    Computer Physics Communications 180, 2175-2196 (2009)
    http://dx.doi.org/10.1016/j.cpc.2009.06.022


  For Hartree-Fock, hybrid functionals, or many-body perturbation theory used in your run, please cite:

    Xinguo Ren, Patrick Rinke, Volker Blum, Juergen Wieferink, Alex Tkatchenko,
    Andrea Sanfilippo, Karsten Reuter, and Matthias Scheffler,
    'Resolution-of-identity approach to Hartree-Fock, hybrid density functionals,
    RPA, MP2, and GW with numeric atom-centered orbital basis functions'
    New Journal of Physics 14, 053020 (2012).
    http://dx.doi.org/10.1088/1367-2630/14/5/053020


  The ELSI infrastructure was used in your run to solve the Kohn-Sham electronic structure.
  Please check out http://elsi-interchange.org to learn more.
  If scalability is important for your project, please acknowledge ELSI by citing:

    V. W-z. Yu, F. Corsetti, A. Garcia, W. P. Huhn, M. Jacquelin, W. Jia,
    B. Lange, L. Lin, J. Lu, W. Mi, A. Seifitokaldani, A. Vazquez-Mayagoitia,
    C. Yang, H. Yang, and V. Blum
    'ELSI: A unified software interface for Kohn-Sham electronic structure solvers'
    Computer Physics Communications 222, 267-285 (2018).
    http://dx.doi.org/10.1016/j.cpc.2017.09.007


  For the real-space grid partitioning and parallelization used in this calculation, please cite:

    Ville Havu, Volker Blum, Paula Havu, and Matthias Scheffler,
    'Efficient O(N) integration for all-electron electronic structure calculation'
    'using numerically tabulated basis functions'
    Journal of Computational Physics 228, 8367-8379 (2009).
    http://dx.doi.org/10.1016/j.jcp.2009.08.008

  Of course, there are many other important community references, e.g., those cited in the
  above references. Our list is limited to references that describe implementations in the
  FHI-aims code. The reason is purely practical (length of this list) - please credit others as well.

------------------------------------------------------------
          Leaving FHI-aims.
          Date     :  20190817, Time     :  154313.093

          Computational steps:
          | Number of self-consistency cycles          :           11
          | Number of SCF (re)initializations          :            1

          Detailed time accounting                     :  max(cpu_time)    wall_clock(cpu1)
          | Total time                                 :        3.481 s           3.495 s
          | Preparation time                           :        0.088 s           0.086 s
          | Boundary condition initalization           :        0.000 s           0.000 s
          | Grid partitioning                          :        0.023 s           0.023 s
          | Preloading free-atom quantities on grid    :        0.005 s           0.004 s
          | Free-atom superposition energy             :        0.008 s           0.008 s
          | Total time for integrations                :        0.273 s           0.276 s
          | Product basis setup: Total time            :        0.000 s           0.000 s
          | Product basis: | 3-center integrations     :(       0.854 s)  (       0.855 s)
          | Product basis: | 2-center integrations     :(       0.831 s)  (       0.831 s)
          | Product basis: | 2-center linear algebra   :(       0.017 s)  (       0.017 s)
          | Product basis: | 3-center x 2-center       :(       0.012 s)  (       0.012 s)
          | Transforming ovlp_3fn to ovlp_3KS          :        0.004 s           0.004 s
          | Total time for GW calculation              :        0.800 s           0.801 s
          | GW self-energy (analytic cont.)            :        0.771 s           0.771 s
          | Screened Coulomb matrix W_mn(iw)           :        0.767 s           0.768 s
          | Polarisability matrix Pi_PQ(iw)            :        0.063 s           0.063 s
          | Total time for solution of K.-S. equations :        0.024 s           0.022 s
          | Total time for density update              :        0.122 s           0.122 s
          | Total time for mixing                      :        0.010 s           0.008 s
          | Total time for Hartree multipole update    :        0.026 s           0.028 s
          | Total time for Hartree multipole sum       :        0.269 s           0.267 s
          | Total time for total energy evaluation     :        0.002 s           0.000 s

          Partial memory accounting:
          | Residual value for overall tracked memory usage across tasks:     0.000000 MB (should be 0.000000 MB)
          | Peak values for overall tracked memory usage:
          |   Minimum:        0.323 MB (on task 6 after allocating wave)
          |   Maximum:        0.416 MB (on task 1 after allocating grid_partition)
          |   Average:        0.366 MB
          | Largest tracked array allocation:
          |   Minimum:        0.206 MB (all_coords on task 6)
          |   Maximum:        0.271 MB (all_coords on task 1)
          |   Average:        0.236 MB
          Note:  These values currently only include a subset of arrays which are explicitly tracked.
          The "true" memory usage will be greater.

          Have a nice day.
------------------------------------------------------------
