  MPI-parallelism will be employed.
------------------------------------------------------------
          Invoking FHI-aims ...

          When using FHI-aims, please cite the following reference:

          Volker Blum, Ralf Gehrke, Felix Hanke, Paula Havu,
          Ville Havu, Xinguo Ren, Karsten Reuter, and Matthias Scheffler,
          'Ab Initio Molecular Simulations with Numeric Atom-Centered Orbitals',
          Computer Physics Communications 180, 2175-2196 (2009)

          For any questions about FHI-aims, please visit the aimsclub website
          with its forums and wiki. Contributions to both the forums and the
          wiki are warmly encouraged - they are for you, and everyone is welcome there.

------------------------------------------------------------



  Date     :  20190817, Time     :  154300.486
  Time zero on CPU 1             :   0.296550000000000E-01  s.
  Internal wall clock time zero  :           335288580.486  s.

  FHI-aims created a unique identifier for this run for later identification
  aims_uuid : 2C1BE4B2-1877-48CB-A873-EED6BFF414AD

  Build configuration of the current instance of FHI-aims
  -------------------------------------------------------
  FHI-aims version      : 190813
  Commit number         : 3da7baeb3
  CMake host system     : Linux-4.4.180-94.97-default
  CMake version         : 3.5.2
  Fortran compiler      : /mpcdf/soft/SLE_12_SP3/packages/x86_64/intel_parallel_studio/2018.4/compilers_and_libraries_2018.5.274/linux/mpi/bin64/mpiifort (Intel) version 18.0.5.20180823
  Fortran compiler flags: -O3 -ip -fp-model precise
  C compiler            : /mpcdf/soft/SLE_12_SP3/packages/skylake/intel/18.0.5/bin/icc (Intel) version 18.0.5.20180823
  C compiler flags      : -O3 -ip -fp-model precise
  Architecture          :
  Using MPI
  Using Scalapack
  Using C files
  Using SPGlib
  Using i-PI
  Linking against: /mpcdf/soft/SLE_12_SP3/packages/x86_64/anaconda/3.5.1.0/lib/libmkl_intel_lp64.so
                   /mpcdf/soft/SLE_12_SP3/packages/x86_64/anaconda/3.5.1.0/lib/libmkl_sequential.so
                   /mpcdf/soft/SLE_12_SP3/packages/x86_64/anaconda/3.5.1.0/lib/libmkl_core.so
                   /mpcdf/soft/SLE_12_SP3/packages/x86_64/anaconda/3.5.1.0/lib/libmkl_blacs_intelmpi_lp64.so
                   /mpcdf/soft/SLE_12_SP3/packages/x86_64/anaconda/3.5.1.0/lib/libmkl_scalapack_lp64.so

  Using        8 parallel tasks.
  Task        0 on host co1631 reporting.
  Task        1 on host co1631 reporting.
  Task        2 on host co1631 reporting.
  Task        3 on host co1631 reporting.
  Task        4 on host co1631 reporting.
  Task        5 on host co1631 reporting.
  Task        6 on host co1631 reporting.
  Task        7 on host co1631 reporting.

  Performing system and environment tests:
  | Environment variable OMP_NUM_THREADS correctly set to 1.
  | Maximum stacksize for task 0: unlimited
  | Maximum stacksize for task 1: unlimited
  | Maximum stacksize for task 2: unlimited
  | Maximum stacksize for task 3: unlimited
  | Maximum stacksize for task 4: unlimited
  | Maximum stacksize for task 5: unlimited
  | Maximum stacksize for task 6: unlimited
  | Maximum stacksize for task 7: unlimited
  | Current stacksize for task 0: unlimited
  | Current stacksize for task 1: unlimited
  | Current stacksize for task 2: unlimited
  | Current stacksize for task 3: unlimited
  | Current stacksize for task 4: unlimited
  | Current stacksize for task 5: unlimited
  | Current stacksize for task 6: unlimited
  | Current stacksize for task 7: unlimited
  | Checking for scalapack...
  | Testing pdtran()...
  | All pdtran() tests passed.

  Obtaining array dimensions for all initial allocations:
  
  -----------------------------------------------------------------------
  Parsing control.in (first pass over file, find array dimensions only).
  The contents of control.in will be repeated verbatim below
  unless switched off by setting 'verbatim_writeout .false.' .
  in the first line of control.in .
  -----------------------------------------------------------------------
  
  ### Physical model
    xc                 hf
    spin               none
    relativistic       none
    charge             0.
  
    total_energy_method rpa
    total_energy_method mp2
    qpe_calc mp2
    anacon_type pade
  
  ### RI
  
    RI_method LVL_full
    use_logsbt .true.
  
  ### SCF convergence
  
    occupation_type    gaussian 0.01
    mixer              pulay
      n_max_pulay        10
      charge_mix_param   0.5
    sc_accuracy_rho    1E-4
    sc_accuracy_eev    1E-2
    sc_accuracy_etot   1E-6
  #  sc_accuracy_forces 1e-3
    sc_iter_limit      100
  
  ################################################################################
  #
  #  FHI-aims code project
  # Volker Blum, Fritz Haber Institute Berlin, 2009
  #
  #  Suggested "tight" defaults for H atom (to be pasted into control.in file)
  #
  ################################################################################
    species        H
  #     global species definitions
      nucleus             1
      mass                1.00794
  #
      l_hartree           6
  #
      cut_pot             4.0  2.0  1.0
      basis_dep_cutoff    1e-4
  #
      radial_base         24 7.0
      radial_multiplier   2
      angular_grids       specified
        division   0.1930   50
        division   0.3175  110
        division   0.4293  194
        division   0.5066  302
        division   0.5626  434
  #      division   0.5922  590
  #      division   0.6227  974
  #      division   0.6868 1202
  #      outer_grid  770
        outer_grid  434
  ################################################################################
  #
  #  Definition of "minimal" basis
  #
  ################################################################################
  #     valence basis states
      valence      1  s   1.
  #     ion occupancy
      ion_occ      1  s   0.5
  ################################################################################
  #
  #  Suggested additional basis functions. For production calculations,
  #  uncomment them one after another (the most important basis functions are
  #  listed first).
  #
  #  Basis constructed for dimers: 0.5 A, 0.7 A, 1.0 A, 1.5 A, 2.5 A
  #
  ################################################################################
  #  "First tier" - improvements: -1014.90 meV to -62.69 meV
       hydro 2 s 2.1
       hydro 2 p 3.5
  #  "Second tier" - improvements: -12.89 meV to -1.83 meV
  #     hydro 1 s 0.85
  #     hydro 2 p 3.7
  #     hydro 2 s 1.2
  #     hydro 3 d 7
  #  "Third tier" - improvements: -0.25 meV to -0.12 meV
  #     hydro 4 f 11.2
  #     hydro 3 p 4.8
  #     hydro 4 d 9
  #     hydro 3 s 3.2
  ################################################################################
  #
  #  FHI-aims code project
  # Volker Blum, Fritz Haber Institute Berlin, 2009
  #
  #  Suggested "tight" defaults for O atom (to be pasted into control.in file)
  #
  ################################################################################
    species        O
  #     global species definitions
      nucleus             8
      mass                15.9994
  #
      l_hartree           6
  #
      cut_pot             4.0  2.0  1.0
      basis_dep_cutoff    1e-4
  #
      radial_base         36 7.0
      radial_multiplier   2
       angular_grids specified
        division   0.1817   50
        division   0.3417  110
        division   0.4949  194
        division   0.6251  302
        division   0.8014  434
  #      division   0.8507  590
  #      division   0.8762  770
  #      division   0.9023  974
  #      division   1.2339 1202
  #      outer_grid 974
        outer_grid  434
  ################################################################################
  #
  #  Definition of "minimal" basis
  #
  ################################################################################
  #     valence basis states
      valence      2  s   2.
      valence      2  p   4.
  #     ion occupancy
      ion_occ      2  s   1.
      ion_occ      2  p   3.
  ################################################################################
  #
  #  Suggested additional basis functions. For production calculations,
  #  uncomment them one after another (the most important basis functions are
  #  listed first).
  #
  #  Constructed for dimers: 1.0 A, 1.208 A, 1.5 A, 2.0 A, 3.0 A
  #
  ################################################################################
  #  "First tier" - improvements: -699.05 meV to -159.38 meV
       hydro 2 p 1.8
       hydro 3 d 7.6
       hydro 3 s 6.4
  #  "Second tier" - improvements: -49.91 meV to -5.39 meV
  #     hydro 4 f 11.6
  #     hydro 3 p 6.2
  #     hydro 3 d 5.6
  #     hydro 5 g 17.6
  #     hydro 1 s 0.75
  #  "Third tier" - improvements: -2.83 meV to -0.50 meV
  #     ionic 2 p auto
  #     hydro 4 f 10.8
  #     hydro 4 d 4.7
  #     hydro 2 s 6.8
  #  "Fourth tier" - improvements: -0.40 meV to -0.12 meV
  #     hydro 3 p 5
  #     hydro 3 s 3.3
  #     hydro 5 g 15.6
  #     hydro 4 f 17.6
  #     hydro 4 d 14
  # Further basis functions - -0.08 meV and below
  #     hydro 3 s 2.1
  #     hydro 4 d 11.6
  #     hydro 3 p 16
  #     hydro 2 s 17.2
  
  -----------------------------------------------------------------------
  Completed first pass over input file control.in .
  -----------------------------------------------------------------------
  
  
  -----------------------------------------------------------------------
  Parsing geometry.in (first pass over file, find array dimensions only).
  The contents of geometry.in will be repeated verbatim below
  unless switched off by setting 'verbatim_writeout .false.' .
  in the first line of geometry.in .
  -----------------------------------------------------------------------
  
  atom    0.00000000    0.00000000    0.00000000    O
  atom    0.70700000   -0.70700000    0.00000000    H
  atom   -0.70700000   -0.70700000    0.00000000    H
  
  atom    0.00000000    0.00000000    10.00000000    O
  atom    0.70700000   -0.70700000    10.00000000    H
  atom   -0.70700000   -0.70700000    10.00000000    H
  
  -----------------------------------------------------------------------
  Completed first pass over input file geometry.in .
  -----------------------------------------------------------------------
  

  Basic array size parameters:
  | Number of species                 :        2
  | Number of atoms                   :        6
  | Max. basis fn. angular momentum   :        2
  | Max. atomic/ionic basis occupied n:        2
  | Max. number of basis fn. types    :        2
  | Max. radial fns per species/type  :        3
  | Max. logarithmic grid size        :     1301
  | Max. radial integration grid size :       73
  | Max. angular integration grid size:      434
  | Max. angular grid division number :        8
  | Radial grid for Hartree potential :     1301
  | Number of spin channels           :        1

------------------------------------------------------------
          Reading file control.in.
------------------------------------------------------------
 
  Hartree-Fock calculation starts ...... 
  Attention: this version of Hartree-Fock employs an auxiliary basis. 
 
  Spin treatment: No spin polarisation.
  Non-relativistic treatment of kinetic energy.
  Charge =   0.000000E+00: Neutral system requested explicitly.
  RPA correlation energy calculation will be started after the DFT/HF calculation.
  MP2 correlation energy calculation will be started after the DFT/HF calculation.
  MP2 quasiparticle calculation of excited states will be started after the DFT/HF calculation.
  Using Pade approximation for analytical continuation.
  Using RI-LVL with dense matrices (LVL_full).
  ** Please note that this gathers the drawbacks of both RI-V and RI-LVL
  Using 1D integrations for auxiliary 2-center integrals.
  Occupation type: Gaussian broadening, width =   0.100000E-01 eV.
  Using pulay charge density mixing.
  Pulay mixing - number of memorized iterations:   10
  Charge density mixing - mixing parameter:     0.5000
  Convergence accuracy of self-consistent charge density:  0.1000E-03
  Convergence accuracy of sum of eigenvalues:  0.1000E-01
  Convergence accuracy of total energy:  0.1000E-05
  Maximum number of s.-c. iterations  :   100
 
  Reading configuration options for species H                   .
  | Found nuclear charge :   1.0000
  | Found atomic mass :    1.00794000000000      amu
  | Found l_max for Hartree potential  :   6
  | Found cutoff potl. onset [A], width [A], scale factor :    4.00000    2.00000    1.00000
  | Threshold for basis-dependent cutoff potential is   0.100000E-03
  | Found data for basic radial integration grid :    24 points, outermost radius =    7.000 A
  | Found multiplier for basic radial grid :   2
  | Found angular grid specification: user-specified.
  | Specified grid contains     6 separate shells.
  | Check grid settings after all constraints further below.
  | Found free-atom valence shell :  1 s   1.000
  | No ionic wave fns used. Skipping ion_occ.
  | Found hydrogenic basis function :  2 s   2.100
  | Found hydrogenic basis function :  2 p   3.500
  Species H                   : Missing cutoff potential type.
  Defaulting to exp(1/x)/(1-x)^2 type cutoff potential.
  Species H : No 'logarithmic' tag. Using default grid for free atom:
  | Default logarithmic grid data [bohr] : 0.1000E-03 0.1000E+03 0.1012E+01
  Species H : On-site basis accuracy parameter (for Gram-Schmidt orthonormalisation) not specified.
  Using default value basis_acc =  0.1000000E-03.
  Species H                   : Using default innermost maximum threshold i_radial=  2 for radial functions.
  Species H                   : Default cutoff onset for free atom density etc. : 0.40000000E+01 AA.
  Species H                   : Basic radial grid will be enhanced according to radial_multiplier =   2, to contain    49 grid points.
 
  Reading configuration options for species O                   .
  | Found nuclear charge :   8.0000
  | Found atomic mass :    15.9994000000000      amu
  | Found l_max for Hartree potential  :   6
  | Found cutoff potl. onset [A], width [A], scale factor :    4.00000    2.00000    1.00000
  | Threshold for basis-dependent cutoff potential is   0.100000E-03
  | Found data for basic radial integration grid :    36 points, outermost radius =    7.000 A
  | Found multiplier for basic radial grid :   2
  | Found angular grid specification: user-specified.
  | Specified grid contains     6 separate shells.
  | Check grid settings after all constraints further below.
  | Found free-atom valence shell :  2 s   2.000
  | Found free-atom valence shell :  2 p   4.000
  | No ionic wave fns used. Skipping ion_occ.
  | No ionic wave fns used. Skipping ion_occ.
  | Found hydrogenic basis function :  2 p   1.800
  | Found hydrogenic basis function :  3 d   7.600
  | Found hydrogenic basis function :  3 s   6.400
  Species O                   : Missing cutoff potential type.
  Defaulting to exp(1/x)/(1-x)^2 type cutoff potential.
  Species O : No 'logarithmic' tag. Using default grid for free atom:
  | Default logarithmic grid data [bohr] : 0.1000E-03 0.1000E+03 0.1012E+01
  Species O : On-site basis accuracy parameter (for Gram-Schmidt orthonormalisation) not specified.
  Using default value basis_acc =  0.1000000E-03.
  Species O                   : Using default innermost maximum threshold i_radial=  2 for radial functions.
  Species O                   : Default cutoff onset for free atom density etc. : 0.40000000E+01 AA.
  Species O                   : Basic radial grid will be enhanced according to radial_multiplier =   2, to contain    73 grid points.
 
  Finished reading input file 'control.in'. Consistency checks are next.
 
  MPI_IN_PLACE appears to work with this MPI implementation.
  | Keeping use_mpi_in_place .true. (see manual).
  Species H: Using default value for prodbas_acc =   1.000000E-04.
  Species H: Using default value max_l_prodbas =    20.
  Species O: Using default value for prodbas_acc =   1.000000E-04.
  Species O: Using default value max_l_prodbas =    20.
  Target number of points in a grid batch is not set. Defaulting to  100
  Method for grid partitioning is not set. Defaulting to parallel hash+maxmin partitioning.
  Batch size limit is not set. Defaulting to    200
  By default, will store active basis functions for each batch.
  If in need of memory, prune_basis_once .false. can be used to disable this option.
  communication_type for Hartree potential was not specified.
  Defaulting to calc_hartree .
  Pulay mixer: Number of initial linear mixing iterations not set.
  Defaulting to    0 iterations.
  Work space size for distributed Hartree potential not set.
  Defaulting to   0.200000E+03 MB.
  Algorithm-dependent basis array size parameters:
  | n_max_pulay                         :       10
  Presetting      1001 iterations before the initial mixing cycle
  is restarted anyway using the sc_init_iter criterion / keyword.
  Presetting a factor      1.000 between actual scf density residual
  and density convergence criterion sc_accuracy_rho below which sc_init_iter
  takes no effect.
  Calculation of forces was not defined in control.in. No forces will be calculated.
  Geometry relaxation not requested: no relaxation will be performed.
  No accuracy limit for integral partition fn. given. Defaulting to  0.1000E-14.
  No threshold value for u(r) in integrations given. Defaulting to  0.1000E-05.
  No accuracy for occupation numbers given. Defaulting to  0.1000E-12.
  No threshold value for occupation numbers given. Defaulting to  0.0000E+00.
  No accuracy for fermi level given. Defaulting to  0.1000E-19.
  Maximum # of iterations to find E_F not set. Defaulting to  200.
  Preferred method for the eigenvalue solver ('KS_method') not specified in 'control.in'.
  Calling BLACS routine to test compilation state
  Since ScaLAPACK support is enabled, defaulting to ELPA (via ELSI).
  Will not use alltoall communication since running on < 1024 CPUs.
  Threshold for basis singularities not set.
  Default threshold for basis singularities:  0.1000E-04
  partition_type (choice of integration weights) for integrals was not specified.
  | Using a version of the partition function of Stratmann and coworkers ('stratmann_sparse').
  | At each grid point, the set of atoms used to build the partition table is smoothly restricted to
  | only those atoms whose free-atom density would be non-zero at that grid point.
  Partitioning for Hartree potential was not defined. Using partition_type for integrals.
  | Adjusted default value of keyword multip_moments_threshold to:       0.10000000E-11
  | This value may affect high angular momentum components of the Hartree potential in periodic systems.
  Threshold for auxiliary basis singularities not set.
  Default threshold for auxiliary basis singularities:  0.1000E-04
  No q(lm)/r^(l+1) cutoff set for long-range Hartree potential.
  | Using default value of  0.100000E-09 .
  | Verify using the multipole_threshold keyword.
  Defaulting to new monopole extrapolation.
  Density update method: automatic selection selected.
  KS-based density update method is selected as as Hartree-Fock with RI-V needs packed_matrix_format "none"
  Charge integration errors on the 3D integration grid will be compensated
  by explicit normalization and distribution of residual charges.
  Use the "compensate_multipole_errors" flag to change this behaviour.
  Default onset of logarithmic r-grid for SBT is-38.000000000000
  Default onset of logarithmic k-grid for SBT is-25.000000000000
  Default range of logarithmic r- and k-grid for SBT is 45.000000000000
  Default number of logarithmic r- and k-grid for SBT is  4096
  Default of use_2d_corr is to use the efficient 2D distribution where possible
------------------------------------------------------------


------------------------------------------------------------
          Reading geometry description geometry.in.
------------------------------------------------------------
  Input structure read successfully.
  The structure contains        6 atoms,  and a total of         20.000 electrons.

  Input geometry:
  | No unit cell requested.
  | Atomic structure:
  |       Atom                x [A]            y [A]            z [A]
  |    1: Species O             0.00000000        0.00000000        0.00000000
  |    2: Species H             0.70700000       -0.70700000        0.00000000
  |    3: Species H            -0.70700000       -0.70700000        0.00000000
  |    4: Species O             0.00000000        0.00000000       10.00000000
  |    5: Species H             0.70700000       -0.70700000       10.00000000
  |    6: Species H            -0.70700000       -0.70700000       10.00000000
  | The smallest distance between any two atoms is         0.99984899 AA.
  | The first atom of this pair is atom number                      1 .
  | The second atom of this pair is atom number                     2 .

  Number of empty states per atom not set in control.in .
  | Since you are using a method that relies on the unoccupied spectrum
  | (MP2,GW,RPA et al.), will use the full Hamiltonian size (see below)
  | as the max. possible number of states (occupied plus empty).

  Structure-dependent array size parameters: 
  | Maximum number of distinct radial functions  :        9
  | Maximum number of basis functions            :       48
  | Number of Kohn-Sham states (occupied + empty):       48
------------------------------------------------------------

------------------------------------------------------------
          Preparing all fixed parts of the calculation.
------------------------------------------------------------
  Determining machine precision:
    2.225073858507201E-308
  Setting up grids for atomic and cluster calculations.

  Creating wave function, potential, and density for free atoms.

  Species: H

  List of occupied orbitals and eigenvalues:
    n    l              occ      energy [Ha]    energy [eV]
    1    0           1.0000        -0.233220        -6.3462


  Species: O

  List of occupied orbitals and eigenvalues:
    n    l              occ      energy [Ha]    energy [eV]
    1    0           2.0000       -18.758091      -510.4336
    2    0           2.0000        -0.871176       -23.7059
    2    1           4.0000        -0.338214        -9.2033

  Creating fixed part of basis set: Ionic, confined, hydrogenic.
 
  H                    hydrogenic:
 
  List of hydrogenic basis orbitals: 
    n    l      effective z      eigenvalue [eV]  inner max. [A]     outer max. [A]     outer radius [A]   
    2    0         2.100000       -14.9965           0.193243           1.317208           5.373006
    2    1         3.500000       -41.6672           0.602369           0.602369           4.056063
 
 
  O                    hydrogenic:
 
  List of hydrogenic basis orbitals: 
    n    l      effective z      eigenvalue [eV]  inner max. [A]     outer max. [A]     outer radius [A]   
    2    1         1.800000       -11.0118           1.178562           1.178562           5.432602
    3    2         7.600000       -87.3182           0.624125           0.624125           3.541477
    3    0         6.400000       -61.9209           0.061167           1.081902           4.306578
 

  Adding cutoff potential to free-atom effective potential.
  Creating atomic-like basis functions for current effective potential.

  Species H                   :

  List of atomic basis orbitals and eigenvalues:
    n    l      energy [Ha]    energy [eV]    outer radius [A]
    1    0        -0.233220        -6.3462       5.373006


  Species O                   :

  List of atomic basis orbitals and eigenvalues:
    n    l      energy [Ha]    energy [eV]    outer radius [A]
    1    0       -18.758091      -510.4336       1.433179
    2    0        -0.871176       -23.7059       5.048385
    2    1        -0.338214        -9.2033       5.301386

  Assembling full basis from fixed parts.
  | Species H :   atomic orbital   1 s accepted.
  | Species H :    hydro orbital   2 s accepted.
  | Species H :    hydro orbital   2 p accepted.
  | Species O :   atomic orbital   1 s accepted.
  | Species O :    hydro orbital   3 s accepted.
  | Species O :   atomic orbital   2 s accepted.
  | Species O :   atomic orbital   2 p accepted.
  | Species O :    hydro orbital   2 p accepted.
  | Species O :    hydro orbital   3 d accepted.
 
  Basis size parameters after reduction:
  | Total number of radial functions:        9
  | Total number of basis functions :       48
 
  Per-task memory consumption for arrays in subroutine allocate_ext:
  |           1.500568MB.
  Testing on-site integration grid accuracy.
  |  Species  Function  <phi|h_atom|phi> (log., in eV)  <phi|h_atom|phi> (rad., in eV)
           1        1                 -6.3465499670                 -6.3466517897
           1        2                 13.9255123248                 13.9252158366
           1        3                 25.3403473927                 25.3403477008
           2        4               -510.4336245859               -510.4336201980
           2        5                 14.9009230803                 14.9009083643
           2        6                -21.2083409586                -21.2083501229
           2        7                 -9.2032994205                 -9.2032996209
           2        8                  7.7992630884                  7.7992591453
           2        9                 45.7831922006                 45.7831921804

  Preparing densities etc. for the partition functions (integrals / Hartree potential).

  Preparations completed.
  max(cpu_time)          :      0.096 s.
  Wall clock time (cpu1) :      0.095 s.
------------------------------------------------------------

------------------------------------------------------------
          Begin self-consistency loop: Initialization.

          Date     :  20190817, Time     :  154300.645
------------------------------------------------------------

  Initializing index lists of integration centers etc. from given atomic structure:
  | Number of centers in hartree potential         :         6
  | Number of centers in hartree multipole         :         6
  | Number of centers in electron density summation:         6
  | Number of centers in basis integrals           :         6
  | Number of centers in integrals                 :         6
  | Number of centers in hamiltonian               :         6
  * Using 8 tasks for Scalapack Eigenvalue solver.
  Detailed listing of tasks and assigned k-points:
  (for non-periodic systems, the "k-point" denotes an internal label only)
   Task     0 k-point     1 on co1631
   Task     1 k-point     1 on co1631
   Task     2 k-point     1 on co1631
   Task     3 k-point     1 on co1631
   Task     4 k-point     1 on co1631
   Task     5 k-point     1 on co1631
   Task     6 k-point     1 on co1631
   Task     7 k-point     1 on co1631
  Tasks:     8 split into      4 X      2 BLACS grid
  Calculating block size based on n_basis =           48  max_nprow =            4  max_npcol =            2
  ScaLAPACK block size set to:            8
  Allocating        0.003 MB for ovlp
  Allocating        0.003 MB for ham
  Allocating        0.003 MB for eigenvec
  Required Scalapack workspace - INTEGER:            1  REAL:             1
  Partitioning the integration grid into batches with parallel hashing+maxmin method.
  | Number of batches:     1139
  | Maximal batch size:     192
  | Minimal batch size:      49
  | Average batch size:      86.107
  | Standard deviation of batch sizes:      23.608

  Integration load balanced across     8 MPI tasks.
  Work distribution over tasks is as follows:
  Task     0 has      12287 integration points.
  Task     1 has      12237 integration points.
  Task     2 has      12286 integration points.
  Task     3 has      12233 integration points.
  Task     4 has      12264 integration points.
  Task     5 has      12301 integration points.
  Task     6 has      12209 integration points.
  Task     7 has      12259 integration points.
  Initializing partition tables, free-atom densities, potentials, etc. across the integration grid (initialize_grid_storage).
  | initialize_grid_storage: Actual outermost partition radius vs. multipole_radius_free
  | (-- VB: in principle, multipole_radius_free should be larger, hence this output)
  | Species        1: Confinement radius =              6.000000000000000 AA, multipole_radius_free =              6.071692442739658 AA.
  | Species        1: outer_partition_radius set to              6.071692442739658 AA .
  | Species        2: Confinement radius =              6.000000000000000 AA, multipole_radius_free =              6.064445521808699 AA.
  | Species        2: outer_partition_radius set to              6.064445521808699 AA .
  | The sparse table of interatomic distances needs          0.39 kbyte instead of         0.29 kbyte of memory.
  | Using the partition_type stratmann_smoother will reduce your memory usage.
  | Net number of integration points:    98076
  | of which are non-zero points    :    87578
  Renormalizing the initial density to the exact electron count on the 3D integration grid.
  | Initial density: Formal number of electrons (from input files) :      20.0000000000
  | Integrated number of electrons on 3D grid     :      19.9999998049
  | Charge integration error                      :      -0.0000001951
  | Normalization factor for density and gradient :       1.0000000098
  Renormalizing the free-atom superposition density to the exact electron count on the 3D integration grid.
  | Formal number of electrons (from input files) :      20.0000000000
  | Integrated number of electrons on 3D grid     :      19.9999998049
  | Charge integration error                      :      -0.0000001951
  | Normalization factor for density and gradient :       1.0000000098
  Obtaining max. number of non-zero basis functions in each batch (get_n_compute_maxes).
  | Maximal number of non-zero basis functions:       24 in task     0
  | Maximal number of non-zero basis functions:       34 in task     1
  | Maximal number of non-zero basis functions:       34 in task     2
  | Maximal number of non-zero basis functions:       34 in task     3
  | Maximal number of non-zero basis functions:       34 in task     4
  | Maximal number of non-zero basis functions:       34 in task     5
  | Maximal number of non-zero basis functions:       34 in task     6
  | Maximal number of non-zero basis functions:       34 in task     7
  Allocating        0.018 MB for KS_eigenvector
  Integrating Hamiltonian matrix: batch-based integration.
  Time summed over all CPUs for integration: real work        0.128 s, elapsed        0.131 s
  Integrating overlap matrix.
  Time summed over all CPUs for integration: real work        0.059 s, elapsed        0.062 s
  Deallocating overlap matrix.

  Updating Kohn-Sham eigenvalues and eigenvectors using ELSI and the ELPA eigensolver.
  Overlap matrix is not singular
  | Lowest and highest eigenvalues :  0.1897E-01,  0.2746E+01
  Finished singularity check of overlap matrix
  | Time :     0.001 s
  Starting ELPA eigensolver
  Finished Cholesky decomposition
  | Time :     0.000 s
  Finished transformation to standard eigenproblem
  | Time :     0.000 s
  Finished solving standard eigenproblem
  | Time :     0.000 s
  Finished back-transformation of eigenvectors
  | Time :     0.001 s

  Obtaining occupation numbers and chemical potential using ELSI.
  | Chemical potential (Fermi level):    -7.92480204 eV
  Writing Kohn-Sham eigenvalues.

  State    Occupation    Eigenvalue [Ha]    Eigenvalue [eV]
      1       2.00000         -18.859404         -513.19049
      2       2.00000         -18.859404         -513.19049
      3       2.00000          -1.084947          -29.52290
      4       2.00000          -1.084947          -29.52290
      5       2.00000          -0.591562          -16.09722
      6       2.00000          -0.591562          -16.09722
      7       2.00000          -0.529813          -14.41693
      8       2.00000          -0.529813          -14.41693
      9       2.00000          -0.440668          -11.99120
     10       2.00000          -0.440668          -11.99120
     11       0.00000          -0.067284           -1.83088
     12       0.00000          -0.067284           -1.83088
     13       0.00000           0.015135            0.41185
     14       0.00000           0.015135            0.41185
     15       0.00000           0.191211            5.20311
     16       0.00000           0.191211            5.20311
     17       0.00000           0.227190            6.18216
     18       0.00000           0.227191            6.18217
     19       0.00000           0.269971            7.34629
     20       0.00000           0.269971            7.34629
     21       0.00000           0.549573           14.95465
     22       0.00000           0.549573           14.95466
     23       0.00000           0.709279           19.30046
     24       0.00000           0.709279           19.30046
     25       0.00000           0.712132           19.37810
     26       0.00000           0.712132           19.37810
     27       0.00000           0.920468           25.04720
     28       0.00000           0.920468           25.04720
     29       0.00000           0.936492           25.48325
     30       0.00000           0.936492           25.48325
     31       0.00000           1.000554           27.22645
     32       0.00000           1.000554           27.22645
     33       0.00000           1.528896           41.60338
     34       0.00000           1.528896           41.60338
     35       0.00000           1.797401           48.90978
     36       0.00000           1.797401           48.90978
     37       0.00000           1.894499           51.55194
     38       0.00000           1.894499           51.55194
     39       0.00000           2.149091           58.47974
     40       0.00000           2.149091           58.47974
     41       0.00000           2.187367           59.52129
     42       0.00000           2.187367           59.52130
     43       0.00000           2.301910           62.63816
     44       0.00000           2.301910           62.63816
     45       0.00000           2.430548           66.13859
     46       0.00000           2.430548           66.13859
     47       0.00000           3.147319           85.64292
     48       0.00000           3.147319           85.64292

  Highest occupied state (VBM) at    -11.99119722 eV
  | Occupation number:      2.00000000

  Lowest unoccupied state (CBM) at    -1.83088028 eV
  | Occupation number:      0.00000000

  Overall HOMO-LUMO gap:     10.16031694 eV.
  Calculating total energy contributions from superposition of free atom densities.

  Total energy components:
  | Sum of eigenvalues            :         -86.02557403 Ha       -2340.87497170 eV
  | XC energy correction          :         -16.98421296 Ha        -462.16394927 eV
  | XC potential correction       :          22.37104116 Ha         608.74700261 eV
  | Free-atom electrostatic energy:         -71.31216998 Ha       -1940.50287688 eV
  | Hartree energy correction     :           0.00000000 Ha           0.00000000 eV
  | Entropy correction            :           0.00000000 Ha           0.00000000 eV
  | ---------------------------
  | Total energy                  :        -151.95091581 Ha       -4134.79479524 eV
  | Total energy, T -> 0          :        -151.95091581 Ha       -4134.79479524 eV  <-- do not rely on this value for anything but (periodic) metals
  | Electronic free energy        :        -151.95091581 Ha       -4134.79479524 eV

  Derived energy quantities:
  | Kinetic energy                :         149.71494385 Ha        4073.95090238 eV
  | Electrostatic energy          :        -284.68164670 Ha       -7746.58174835 eV
  | Energy correction for multipole
  | error in Hartree potential    :           0.00000000 Ha           0.00000000 eV
  | Sum of eigenvalues per atom                           :        -390.14582862 eV
  | Total energy (T->0) per atom                          :        -689.13246587 eV  <-- do not rely on this value for anything but (periodic) metals
  | Electronic free energy per atom                       :        -689.13246587 eV
 
 --------------------------------------------
  Constructing auxiliary basis (full product) ...
 
  Product basis:
  | charge radius: extent of product basis function
  | field radius: extent of its Coulomb potential
  | Species   l  charge radius    field radius  multipol momen
  |    H      1     4.311724 A      4.311724 A       -8.669615E-17 a.u.
  |    H      1     4.364758 A      4.364758 A        6.543577E-17 a.u.
  |    H      0     5.243229 A      5.243229 A       -2.477245E-16 a.u.
  |    H      0     5.307721 A      5.307721 A        1.845843E-16 a.u.
  |    H      0     5.307721 A      5.373006 A       -3.392616E-17 a.u.
  |    H      2     4.006780 A  1.012133E+04 A            0.556801 a.u.
  |    H      1     4.364758 A  1.725009E+06 A            0.845611 a.u.
  |    H      0     5.373006 A  3.888340E+12 A            0.584727 a.u.
  |    O      0     2.043000 A      2.043000 A       -8.845581E-17 a.u.
  |    O      3     3.905335 A      3.905335 A       -8.886894E-16 a.u.
  |    O      3     3.905335 A      3.905335 A       -1.176133E-15 a.u.
  |    O      0     4.202559 A      4.202559 A        1.940779E-16 a.u.
  |    O      0     4.202559 A      4.202559 A       -2.731883E-17 a.u.
  |    O      0     4.467453 A      4.467453 A       -1.238583E-16 a.u.
  |    O      1     4.467453 A      4.467453 A       -1.513195E-18 a.u.
  |    O      0     4.987044 A      4.987044 A        1.337957E-16 a.u.
  |    O      1     5.110480 A      5.110480 A       -1.463203E-17 a.u.
  |    O      1     5.301386 A      5.301386 A       -2.078101E-16 a.u.
  |    O      1     5.301386 A      5.301386 A       -2.266507E-16 a.u.
  |    O      2     5.301386 A      5.301386 A       -2.324477E-16 a.u.
  |    O      1     5.366593 A      5.366593 A       -3.145489E-16 a.u.
  |    O      2     5.366593 A      5.366593 A        1.686414E-15 a.u.
  |    O      2     5.366593 A      5.366593 A       -5.683405E-16 a.u.
  |    O      2     5.366593 A      5.366593 A       -1.154804E-15 a.u.
  |    O      0     5.366593 A      5.432602 A       -1.673432E-16 a.u.
  |    O      2     5.432602 A      5.432602 A       -3.443265E-15 a.u.
  |    O      0     5.432602 A      5.499423 A       -7.859147E-17 a.u.
  |    O      1     5.432602 A      5.499423 A        3.400911E-16 a.u.
  |    O      4     3.541477 A  2.396117E+02 A            1.514693 a.u.
  |    O      3     3.953371 A  1.438800E+03 A            4.348977 a.u.
  |    O      2     5.432602 A  2.423014E+04 A            7.639317 a.u.
  |    O      1     5.432602 A  2.755133E+06 A            2.157113 a.u.
  |    O      0     5.432602 A  4.233087E+12 A            0.636570 a.u.

  | Shrink_full_auxil_basis : there are       33  radial auxiliary wave functions
                            accepted and      10 rejected.
  | Shrink_full_auxil_basis : there are totally                 250 partial auxiliary wave functions.
 
  | Maximal number of product basis functions per thread :    32    32
 
  | Minimal total memory requirement for three-center overlap :       0.003 Gbs
  | Number of local auxiliary basis functions on task:      0    32
  | Number of local auxiliary basis functions on task:      1    32
  | Number of local auxiliary basis functions on task:      2    32
  | Number of local auxiliary basis functions on task:      3    32
  | Number of local auxiliary basis functions on task:      4    32
  | Number of local auxiliary basis functions on task:      5    32
  | Number of local auxiliary basis functions on task:      6    32
  | Number of local auxiliary basis functions on task:      7    26
  | 2D aux task distribution:      2 X      4
  | 2D block size (nb_aux_2d):     64
  | Task at    0 x    0 gets    128 x     64 entries of 2D aux
  | Task at    0 x    1 gets    128 x     64 entries of 2D aux
  | Task at    0 x    2 gets    128 x     64 entries of 2D aux
  | Task at    0 x    3 gets    128 x     58 entries of 2D aux
  | Task at    1 x    0 gets    122 x     64 entries of 2D aux
  | Task at    1 x    1 gets    122 x     64 entries of 2D aux
  | Task at    1 x    2 gets    122 x     64 entries of 2D aux
  | Task at    1 x    3 gets    122 x     58 entries of 2D aux
 
  Basis pair condensation :      1176  -->        741
  | Tensor "coeff3fn" needs      1 MiB per node.
  |   It stores   1.03E+05 numbers. Per node: min:  8.10E+02; avg:  1.28E+04; max:  2.92E+04
  |   It stores   3.60E+01 blocks.  Per node: min:  3.00E+00; avg:  4.50E+00; max:  6.00E+00

  The resident memory for O3fn + V2fn is       0 MiB x    8 procs =       0.002 GiB
  | Part O3fn (temporarily alloced  2x) is      0 MiB x    8 procs =       0.002 GiB
  | Part V2fn (temporarily alloced ~3x) is      0 MiB x    8 procs =       0.000 GiB
  | Original full ovlp_3fn would have been      0 MiB x    8 procs =       0.001 GiB

  Integrating the Coulomb interaction matrix for auxiliary basis functions (by atoms)

  SBT integration errors (all should be 'small'):
  large logFT aliasing -> increase N/lnrange
  large SBT aliasing -> decrease lnk0 & increase lnk0+lnrange
  large SBT ringing -> decrease lnr0 & increase lnr0+lnrange
  |            El't  L: logFT-al.   small-k   large-k   small-r   large-r
  Atomic logSBT for 2-center Coulomb matrix    :  max(cpu_time)    wall_clock(cpu1)
  | Multiplication with kernel                 :        0.004 s           0.000 s
  | Main matrix multiplication                 :        0.016 s           0.008 s
  | Analytic angular integration               :        0.010 s           0.006 s
  | Kernel construction                        :        0.005 s           0.001 s
  | Overall 2-center overlap time              :        0.056 s           0.025 s


  Get 3-center expansion coefficients

  | Storage requirements for basis-basbas products (processor-local):
  |   Species H: n_prodsfn:    28; storage:        0.88 MiB.
  |   Species O: n_prodsfn:   211; storage:        6.59 MiB.

  Preparing TB like auxiliary 2-center Coulomb matrix
  SBT integration errors (all should be 'small'):
  large logFT aliasing -> increase N/lnrange
  large SBT aliasing -> decrease lnk0 & increase lnk0+lnrange
  large SBT ringing -> decrease lnr0 & increase lnr0+lnrange
  |            El't  L: logFT-al.   small-k   large-k   small-r   large-r
  | Need to store   869 splines of   221 points taking       1520 KiB.
  | Spline reduction from  4096 to   221 points by (cutting and)     1 x coarsening gives error:  0.00E+00
  get_coeff3fn_ten: Temporary array needs      6 MiB buffer space on CPU 0.
  Atomic logSBT for LVL-triples                :  max(cpu_time)    wall_clock(cpu1)
  | Multiplication with kernel                 :        0.001 s           0.000 s
  | Main matrix multiplication                 :        0.016 s           0.005 s
  | Analytic angular integration               :        0.002 s           0.001 s
  | Kernel construction                        :        0.002 s           0.001 s
  | Overall 2-center overlap time              :        0.025 s           0.010 s
  | 3-center preparation multiplications       :        0.006 s           0.005 s
  | 3-center preparation SBTs                  :        0.144 s           0.106 s
  | 3-center combinations                      :        0.027 s           0.013 s
  | Overal 3-center time                       :        0.174 s           0.124 s
  | LVL initialization                         :        0.044 s           0.044 s
  | Whole LVL-triples                          :        0.044 s           0.044 s

  Atomic logSBT for 2-center Coulomb matrix    :  max(cpu_time)    wall_clock(cpu1)
  | TB initialization                          :        0.055 s           0.055 s
  | TB usage                                   :        0.000 s           0.000 s

  Redistribute 3-center expansion coefficients

  | Redistributing coeff3fn to final_coeff3fn according to 3fn-1D-blocking.

  LVL product basis initialization             :  max(cpu_time)    wall_clock(cpu1)
  | 3-center integration                       :        0.292 s           0.294 s
  | 3-center distribution                      :        0.004 s           0.005 s
  | 2-center integration                       :        0.098 s           0.098 s
  | 2-center distribution                      :        0.000 s           0.000 s

  Diagonalizing the Coulomb matrix and checking for singularities with ScaLapack .
 
  Difference of Coulomb matrix to its transposed:  1.9429E-16
  Eigenvalues of the Coulomb matrix range from    3.5933E+00 to    2.7624E-05.
  Using      250   eigenvalues out of rank      250   Coulomb matrix (auxiliary basis).
 
  Multiplying V^-0.5 x ovlp_3fn (1d-scalapack)
  Initialize hartree_potential_storage
  Max. number of atoms included in rho_multipole:            6

  End scf initialization - timings             :  max(cpu_time)    wall_clock(cpu1)
  | Time for scf. initialization               :        0.523 s           0.528 s
  | Boundary condition initialization          :        0.000 s           0.000 s
  | Integration                                :        0.025 s           0.025 s
  | Solution of K.-S. eqns.                    :        0.003 s           0.003 s
  | Grid partitioning                          :        0.024 s           0.024 s
  | Preloading free-atom quantities on grid    :        0.008 s           0.008 s
  | Free-atom superposition energy             :        0.008 s           0.008 s
  | Total energy evaluation                    :        0.000 s           0.000 s
  | Product basis setup: Total time            :        0.442 s           0.447 s
  | Product basis: | 2-center integrations     :        0.098 s           0.098 s
  | Product basis: | 2-center linear algebra   :        0.009 s           0.008 s
  | Product basis: | LVL 3-center & coefficient:        0.003 s           0.004 s

  Partial memory accounting:
  | Current value for overall tracked memory usage:
  |   Minimum:        0.031 MB (on task 4)
  |   Maximum:        0.036 MB (on task 0)
  |   Average:        0.033 MB
  | Peak value for overall tracked memory usage:
  |   Minimum:        0.408 MB (on task 5 after allocating grid_partition)
  |   Maximum:        0.457 MB (on task 2 after allocating grid_partition)
  |   Average:        0.428 MB
  | Largest tracked array allocation so far:
  |   Minimum:        0.269 MB (all_coords on task 1)
  |   Maximum:        0.298 MB (all_coords on task 2)
  |   Average:        0.281 MB
  Note:  These values currently only include a subset of arrays which are explicitly tracked.
  The "true" memory usage will be greater.
------------------------------------------------------------

------------------------------------------------------------
          Begin self-consistency iteration #    1

  Date     :  20190817, Time     :  154301.173
------------------------------------------------------------
  Evaluating new KS density.
  Integration grid: deviation in total charge (<rho> - N_e) =   7.105427E-15
  Pulay mixing of updated and previous charge densities.
  Renormalizing the density to the exact electron count on the 3D integration grid.
  | Formal number of electrons (from input files) :      20.0000000000
  | Integrated number of electrons on 3D grid     :      20.0000000000
  | Charge integration error                      :      -0.0000000000
  | Normalization factor for density and gradient :       1.0000000000

  Evaluating partitioned Hartree potential by multipole expansion.
  | Original multipole sum: apparent total charge =  -0.120529E-13
  | Sum of charges compensated after spline to logarithmic grids =   0.331686E-05
  | Analytical far-field extrapolation by fixed multipoles:
  | Hartree multipole sum: apparent total charge =  -0.152506E-13
  Summing up the Hartree potential.
  Time summed over all CPUs for potential: real work        0.287 s, elapsed        0.295 s
  | RMS charge density error from multipole expansion :   0.175333E-02

  Integrating Hamiltonian matrix: batch-based integration.
  Time summed over all CPUs for integration: real work        0.089 s, elapsed        0.094 s
  Evaluating the exchange matrix ... 

  Updating Kohn-Sham eigenvalues and eigenvectors using ELSI and the ELPA eigensolver.
  Starting ELPA eigensolver
  Finished transformation to standard eigenproblem
  | Time :     0.000 s
  Finished solving standard eigenproblem
  | Time :     0.000 s
  Finished back-transformation of eigenvectors
  | Time :     0.001 s

  Obtaining occupation numbers and chemical potential using ELSI.
  | Chemical potential (Fermi level):    -0.08262982 eV
  Writing Kohn-Sham eigenvalues.

  State    Occupation    Eigenvalue [Ha]    Eigenvalue [eV]
      1       2.00000         -20.432567         -555.99843
      2       2.00000         -20.432567         -555.99843
      3       2.00000          -1.364563          -37.13166
      4       2.00000          -1.364563          -37.13166
      5       2.00000          -0.690240          -18.78237
      6       2.00000          -0.690240          -18.78237
      7       2.00000          -0.627812          -17.08363
      8       2.00000          -0.627812          -17.08363
      9       2.00000          -0.535694          -14.57696
     10       2.00000          -0.535694          -14.57696
     11       0.00000           0.139255            3.78931
     12       0.00000           0.139255            3.78932
     13       0.00000           0.276116            7.51351
     14       0.00000           0.276116            7.51351
     15       0.00000           0.453687           12.34546
     16       0.00000           0.453687           12.34546
     17       0.00000           0.508273           13.83082
     18       0.00000           0.508274           13.83083
     19       0.00000           0.516725           14.06080
     20       0.00000           0.516725           14.06080
     21       0.00000           0.887898           24.16093
     22       0.00000           0.887898           24.16093
     23       0.00000           1.056004           28.73534
     24       0.00000           1.056004           28.73534
     25       0.00000           1.070621           29.13308
     26       0.00000           1.070621           29.13308
     27       0.00000           1.279087           34.80572
     28       0.00000           1.279087           34.80572
     29       0.00000           1.298127           35.32384
     30       0.00000           1.298127           35.32384
     31       0.00000           1.428430           38.86955
     32       0.00000           1.428430           38.86955
     33       0.00000           1.907026           51.89280
     34       0.00000           1.907026           51.89280
     35       0.00000           2.294335           62.43203
     36       0.00000           2.294335           62.43203
     37       0.00000           2.356014           64.11039
     38       0.00000           2.356014           64.11039
     39       0.00000           2.698909           73.44104
     40       0.00000           2.698909           73.44104
     41       0.00000           2.731985           74.34109
     42       0.00000           2.731985           74.34109
     43       0.00000           2.882891           78.44744
     44       0.00000           2.882891           78.44744
     45       0.00000           3.014321           82.02386
     46       0.00000           3.014321           82.02386
     47       0.00000           3.780210          102.86474
     48       0.00000           3.780210          102.86474

  Highest occupied state (VBM) at    -14.57696309 eV
  | Occupation number:      2.00000000

  Lowest unoccupied state (CBM) at     3.78931443 eV
  | Occupation number:      0.00000000

  Overall HOMO-LUMO gap:     18.36627752 eV.

  Total energy components:
  | Sum of eigenvalues            :         -94.60349992 Ha       -2574.29221145 eV
  | XC energy correction          :          18.36901834 Ha         499.84642101 eV
  | XC potential correction       :           0.00000000 Ha           0.00000000 eV
  | Free-atom electrostatic energy:         -71.31216998 Ha       -1940.50287688 eV
  | Hartree energy correction     :          -4.49730575 Ha        -122.37791588 eV
  | Entropy correction            :           0.00000000 Ha           0.00000000 eV
  | ---------------------------
  | Total energy                  :        -152.04395731 Ha       -4137.32658320 eV
  | Total energy, T -> 0          :        -152.04395731 Ha       -4137.32658320 eV  <-- do not rely on this value for anything but (periodic) metals
  | Electronic free energy        :        -152.04395731 Ha       -4137.32658320 eV

  Derived energy quantities:
  | Kinetic energy                :         153.15702366 Ha        4167.61465978 eV
  | Electrostatic energy          :        -286.83196263 Ha       -7805.09482198 eV
  | Energy correction for multipole
  | error in Hartree potential    :          -0.00296102 Ha          -0.08057346 eV
  | Sum of eigenvalues per atom                           :        -429.04870191 eV
  | Total energy (T->0) per atom                          :        -689.55443053 eV  <-- do not rely on this value for anything but (periodic) metals
  | Electronic free energy per atom                       :        -689.55443053 eV

  Self-consistency convergence accuracy:
  | Change of charge density      :  0.4266E+00
  | Change of sum of eigenvalues  : -0.2334E+03 eV
  | Change of total energy        : -0.2532E+01 eV

  End self-consistency iteration #     1       :  max(cpu_time)    wall_clock(cpu1)
  | Time for this iteration                    :        0.063 s           0.063 s
  | Charge density update                      :        0.008 s           0.008 s
  | Density mixing                             :        0.000 s           0.001 s
  | Hartree multipole update                   :        0.003 s           0.003 s
  | Hartree multipole summation                :        0.037 s           0.037 s
  | Integration                                :        0.012 s           0.012 s
  | Fock matrix evaluation                     :        0.001 s           0.001 s
  | Solution of K.-S. eqns.                    :        0.001 s           0.001 s
  | Total energy evaluation                    :        0.000 s           0.000 s

  Partial memory accounting:
  | Current value for overall tracked memory usage:
  |   Minimum:        0.031 MB (on task 4)
  |   Maximum:        0.036 MB (on task 0)
  |   Average:        0.033 MB
  | Peak value for overall tracked memory usage:
  |   Minimum:        0.408 MB (on task 5 after allocating grid_partition)
  |   Maximum:        0.457 MB (on task 2 after allocating grid_partition)
  |   Average:        0.428 MB
  | Largest tracked array allocation so far:
  |   Minimum:        0.269 MB (all_coords on task 1)
  |   Maximum:        0.298 MB (all_coords on task 2)
  |   Average:        0.281 MB
  Note:  These values currently only include a subset of arrays which are explicitly tracked.
  The "true" memory usage will be greater.
------------------------------------------------------------

------------------------------------------------------------
          Begin self-consistency iteration #    2

  Date     :  20190817, Time     :  154301.236
------------------------------------------------------------
  Evaluating new KS density.
  Integration grid: deviation in total charge (<rho> - N_e) =   0.000000E+00
  Pulay mixing of updated and previous charge densities.
  Renormalizing the density to the exact electron count on the 3D integration grid.
  | Formal number of electrons (from input files) :      20.0000000000
  | Integrated number of electrons on 3D grid     :      20.0000000000
  | Charge integration error                      :       0.0000000000
  | Normalization factor for density and gradient :       1.0000000000

  Evaluating partitioned Hartree potential by multipole expansion.
  | Original multipole sum: apparent total charge =   0.472277E-14
  | Sum of charges compensated after spline to logarithmic grids =   0.348916E-05
  | Analytical far-field extrapolation by fixed multipoles:
  | Hartree multipole sum: apparent total charge =   0.425541E-14
  Summing up the Hartree potential.
  Time summed over all CPUs for potential: real work        0.293 s, elapsed        0.303 s
  | RMS charge density error from multipole expansion :   0.265960E-02

  Integrating Hamiltonian matrix: batch-based integration.
  Time summed over all CPUs for integration: real work        0.086 s, elapsed        0.090 s
  Evaluating the exchange matrix ... 

  Updating Kohn-Sham eigenvalues and eigenvectors using ELSI and the ELPA eigensolver.
  Starting ELPA eigensolver
  Finished transformation to standard eigenproblem
  | Time :     0.000 s
  Finished solving standard eigenproblem
  | Time :     0.001 s
  Finished back-transformation of eigenvectors
  | Time :     0.000 s

  Obtaining occupation numbers and chemical potential using ELSI.
  | Chemical potential (Fermi level):     0.75956790 eV
  Highest occupied state (VBM) at    -13.32897627 eV
  | Occupation number:      2.00000000

  Lowest unoccupied state (CBM) at     3.85484183 eV
  | Occupation number:      0.00000000

  Overall HOMO-LUMO gap:     17.18381810 eV.

  Checking to see if s.c.f. parameters should be adjusted.

  Total energy components:
  | Sum of eigenvalues            :         -93.84216025 Ha       -2553.57510500 eV
  | XC energy correction          :          18.05284457 Ha         491.24289500 eV
  | XC potential correction       :           0.00000000 Ha           0.00000000 eV
  | Free-atom electrostatic energy:         -71.31216998 Ha       -1940.50287688 eV
  | Hartree energy correction     :          -5.06554534 Ha        -137.84050207 eV
  | Entropy correction            :           0.00000000 Ha           0.00000000 eV
  | ---------------------------
  | Total energy                  :        -152.16703101 Ha       -4140.67558894 eV
  | Total energy, T -> 0          :        -152.16703101 Ha       -4140.67558894 eV  <-- do not rely on this value for anything but (periodic) metals
  | Electronic free energy        :        -152.16703101 Ha       -4140.67558894 eV

  Derived energy quantities:
  | Kinetic energy                :         152.59914767 Ha        4152.43408154 eV
  | Electrostatic energy          :        -286.71333410 Ha       -7801.86677548 eV
  | Energy correction for multipole
  | error in Hartree potential    :          -0.00337884 Ha          -0.09194285 eV
  | Sum of eigenvalues per atom                           :        -425.59585083 eV
  | Total energy (T->0) per atom                          :        -690.11259816 eV  <-- do not rely on this value for anything but (periodic) metals
  | Electronic free energy per atom                       :        -690.11259816 eV

  Self-consistency convergence accuracy:
  | Change of charge density      :  0.1533E+00
  | Change of sum of eigenvalues  :  0.2072E+02 eV
  | Change of total energy        : -0.3349E+01 eV

  End self-consistency iteration #     2       :  max(cpu_time)    wall_clock(cpu1)
  | Time for this iteration                    :        0.064 s           0.064 s
  | Charge density update                      :        0.008 s           0.008 s
  | Density mixing                             :        0.001 s           0.001 s
  | Hartree multipole update                   :        0.002 s           0.003 s
  | Hartree multipole summation                :        0.039 s           0.039 s
  | Integration                                :        0.011 s           0.011 s
  | Fock matrix evaluation                     :        0.001 s           0.001 s
  | Solution of K.-S. eqns.                    :        0.001 s           0.001 s
  | Total energy evaluation                    :        0.000 s           0.000 s

  Partial memory accounting:
  | Current value for overall tracked memory usage:
  |   Minimum:        0.032 MB (on task 4)
  |   Maximum:        0.036 MB (on task 0)
  |   Average:        0.034 MB
  | Peak value for overall tracked memory usage:
  |   Minimum:        0.408 MB (on task 5 after allocating grid_partition)
  |   Maximum:        0.457 MB (on task 2 after allocating grid_partition)
  |   Average:        0.428 MB
  | Largest tracked array allocation so far:
  |   Minimum:        0.269 MB (all_coords on task 1)
  |   Maximum:        0.298 MB (all_coords on task 2)
  |   Average:        0.281 MB
  Note:  These values currently only include a subset of arrays which are explicitly tracked.
  The "true" memory usage will be greater.
------------------------------------------------------------

------------------------------------------------------------
          Begin self-consistency iteration #    3

  Date     :  20190817, Time     :  154301.300
------------------------------------------------------------
  Evaluating new KS density.
  Integration grid: deviation in total charge (<rho> - N_e) =   2.842171E-14
  Pulay mixing of updated and previous charge densities.
  Renormalizing the density to the exact electron count on the 3D integration grid.
  | Formal number of electrons (from input files) :      20.0000000000
  | Integrated number of electrons on 3D grid     :      20.0000000000
  | Charge integration error                      :       0.0000000000
  | Normalization factor for density and gradient :       1.0000000000

  Evaluating partitioned Hartree potential by multipole expansion.
  | Original multipole sum: apparent total charge =  -0.772369E-14
  | Sum of charges compensated after spline to logarithmic grids =   0.200660E-05
  | Analytical far-field extrapolation by fixed multipoles:
  | Hartree multipole sum: apparent total charge =  -0.836323E-14
  Summing up the Hartree potential.
  Time summed over all CPUs for potential: real work        0.292 s, elapsed        0.300 s
  | RMS charge density error from multipole expansion :   0.367777E-02

  Integrating Hamiltonian matrix: batch-based integration.
  Time summed over all CPUs for integration: real work        0.088 s, elapsed        0.092 s
  Evaluating the exchange matrix ... 

  Updating Kohn-Sham eigenvalues and eigenvectors using ELSI and the ELPA eigensolver.
  Starting ELPA eigensolver
  Finished transformation to standard eigenproblem
  | Time :     0.000 s
  Finished solving standard eigenproblem
  | Time :     0.000 s
  Finished back-transformation of eigenvectors
  | Time :     0.000 s

  Obtaining occupation numbers and chemical potential using ELSI.
  | Chemical potential (Fermi level):    -0.92754126 eV
  Highest occupied state (VBM) at    -14.27766729 eV
  | Occupation number:      2.00000000

  Lowest unoccupied state (CBM) at     3.64655200 eV
  | Occupation number:      0.00000000

  Overall HOMO-LUMO gap:     17.92421929 eV.

  Total energy components:
  | Sum of eigenvalues            :         -95.06356006 Ha       -2586.81108476 eV
  | XC energy correction          :          17.76726571 Ha         483.47189884 eV
  | XC potential correction       :           0.00000000 Ha           0.00000000 eV
  | Free-atom electrostatic energy:         -71.31216998 Ha       -1940.50287688 eV
  | Hartree energy correction     :          -3.47693664 Ha         -94.61225975 eV
  | Entropy correction            :           0.00000000 Ha           0.00000000 eV
  | ---------------------------
  | Total energy                  :        -152.08540097 Ha       -4138.45432255 eV
  | Total energy, T -> 0          :        -152.08540097 Ha       -4138.45432255 eV  <-- do not rely on this value for anything but (periodic) metals
  | Electronic free energy        :        -152.08540097 Ha       -4138.45432255 eV

  Derived energy quantities:
  | Kinetic energy                :         151.02158673 Ha        4109.50646420 eV
  | Electrostatic energy          :        -285.33972198 Ha       -7764.48888790 eV
  | Energy correction for multipole
  | error in Hartree potential    :          -0.00241821 Ha          -0.06580274 eV
  | Sum of eigenvalues per atom                           :        -431.13518079 eV
  | Total energy (T->0) per atom                          :        -689.74238709 eV  <-- do not rely on this value for anything but (periodic) metals
  | Electronic free energy per atom                       :        -689.74238709 eV

  Self-consistency convergence accuracy:
  | Change of charge density      :  0.1282E+00
  | Change of sum of eigenvalues  : -0.3324E+02 eV
  | Change of total energy        :  0.2221E+01 eV

  End self-consistency iteration #     3       :  max(cpu_time)    wall_clock(cpu1)
  | Time for this iteration                    :        0.063 s           0.063 s
  | Charge density update                      :        0.008 s           0.008 s
  | Density mixing                             :        0.001 s           0.002 s
  | Hartree multipole update                   :        0.002 s           0.002 s
  | Hartree multipole summation                :        0.038 s           0.038 s
  | Integration                                :        0.012 s           0.012 s
  | Fock matrix evaluation                     :        0.001 s           0.000 s
  | Solution of K.-S. eqns.                    :        0.001 s           0.001 s
  | Total energy evaluation                    :        0.000 s           0.000 s

  Partial memory accounting:
  | Current value for overall tracked memory usage:
  |   Minimum:        0.032 MB (on task 4)
  |   Maximum:        0.037 MB (on task 0)
  |   Average:        0.034 MB
  | Peak value for overall tracked memory usage:
  |   Minimum:        0.408 MB (on task 5 after allocating grid_partition)
  |   Maximum:        0.457 MB (on task 2 after allocating grid_partition)
  |   Average:        0.428 MB
  | Largest tracked array allocation so far:
  |   Minimum:        0.269 MB (all_coords on task 1)
  |   Maximum:        0.298 MB (all_coords on task 2)
  |   Average:        0.281 MB
  Note:  These values currently only include a subset of arrays which are explicitly tracked.
  The "true" memory usage will be greater.
------------------------------------------------------------

------------------------------------------------------------
          Begin self-consistency iteration #    4

  Date     :  20190817, Time     :  154301.364
------------------------------------------------------------
  Evaluating new KS density.
  Integration grid: deviation in total charge (<rho> - N_e) =  -7.105427E-15
  Pulay mixing of updated and previous charge densities.
  Renormalizing the density to the exact electron count on the 3D integration grid.
  | Formal number of electrons (from input files) :      20.0000000000
  | Integrated number of electrons on 3D grid     :      20.0000000000
  | Charge integration error                      :       0.0000000000
  | Normalization factor for density and gradient :       1.0000000000

  Evaluating partitioned Hartree potential by multipole expansion.
  | Original multipole sum: apparent total charge =   0.533525E-13
  | Sum of charges compensated after spline to logarithmic grids =   0.202835E-05
  | Analytical far-field extrapolation by fixed multipoles:
  | Hartree multipole sum: apparent total charge =   0.541888E-13
  Summing up the Hartree potential.
  Time summed over all CPUs for potential: real work        0.298 s, elapsed        0.318 s
  | RMS charge density error from multipole expansion :   0.391686E-02

  Integrating Hamiltonian matrix: batch-based integration.
  Time summed over all CPUs for integration: real work        0.090 s, elapsed        0.094 s
  Evaluating the exchange matrix ... 

  Updating Kohn-Sham eigenvalues and eigenvectors using ELSI and the ELPA eigensolver.
  Starting ELPA eigensolver
  Finished transformation to standard eigenproblem
  | Time :     0.000 s
  Finished solving standard eigenproblem
  | Time :     0.000 s
  Finished back-transformation of eigenvectors
  | Time :     0.000 s

  Obtaining occupation numbers and chemical potential using ELSI.
  | Chemical potential (Fermi level):    -0.65394492 eV
  Highest occupied state (VBM) at    -13.94087264 eV
  | Occupation number:      2.00000000

  Lowest unoccupied state (CBM) at     3.67503455 eV
  | Occupation number:      0.00000000

  Overall HOMO-LUMO gap:     17.61590719 eV.

  Total energy components:
  | Sum of eigenvalues            :         -94.82715332 Ha       -2580.37813007 eV
  | XC energy correction          :          17.76190324 Ha         483.32597864 eV
  | XC potential correction       :           0.00000000 Ha           0.00000000 eV
  | Free-atom electrostatic energy:         -71.31216998 Ha       -1940.50287688 eV
  | Hartree energy correction     :          -3.68394739 Ha        -100.24530896 eV
  | Entropy correction            :           0.00000000 Ha           0.00000000 eV
  | ---------------------------
  | Total energy                  :        -152.06136745 Ha       -4137.80033726 eV
  | Total energy, T -> 0          :        -152.06136745 Ha       -4137.80033726 eV  <-- do not rely on this value for anything but (periodic) metals
  | Electronic free energy        :        -152.06136745 Ha       -4137.80033726 eV

  Derived energy quantities:
  | Kinetic energy                :         151.10530074 Ha        4111.78443848 eV
  | Electrostatic energy          :        -285.40476495 Ha       -7766.25879710 eV
  | Energy correction for multipole
  | error in Hartree potential    :          -0.00254356 Ha          -0.06921388 eV
  | Sum of eigenvalues per atom                           :        -430.06302168 eV
  | Total energy (T->0) per atom                          :        -689.63338954 eV  <-- do not rely on this value for anything but (periodic) metals
  | Electronic free energy per atom                       :        -689.63338954 eV

  Self-consistency convergence accuracy:
  | Change of charge density      :  0.3634E-01
  | Change of sum of eigenvalues  :  0.6433E+01 eV
  | Change of total energy        :  0.6540E+00 eV

  End self-consistency iteration #     4       :  max(cpu_time)    wall_clock(cpu1)
  | Time for this iteration                    :        0.066 s           0.066 s
  | Charge density update                      :        0.008 s           0.008 s
  | Density mixing                             :        0.001 s           0.001 s
  | Hartree multipole update                   :        0.003 s           0.002 s
  | Hartree multipole summation                :        0.040 s           0.040 s
  | Integration                                :        0.012 s           0.012 s
  | Fock matrix evaluation                     :        0.001 s           0.001 s
  | Solution of K.-S. eqns.                    :        0.001 s           0.001 s
  | Total energy evaluation                    :        0.000 s           0.000 s

  Partial memory accounting:
  | Current value for overall tracked memory usage:
  |   Minimum:        0.032 MB (on task 4)
  |   Maximum:        0.037 MB (on task 0)
  |   Average:        0.034 MB
  | Peak value for overall tracked memory usage:
  |   Minimum:        0.408 MB (on task 5 after allocating grid_partition)
  |   Maximum:        0.457 MB (on task 2 after allocating grid_partition)
  |   Average:        0.428 MB
  | Largest tracked array allocation so far:
  |   Minimum:        0.269 MB (all_coords on task 1)
  |   Maximum:        0.298 MB (all_coords on task 2)
  |   Average:        0.281 MB
  Note:  These values currently only include a subset of arrays which are explicitly tracked.
  The "true" memory usage will be greater.
------------------------------------------------------------

------------------------------------------------------------
          Begin self-consistency iteration #    5

  Date     :  20190817, Time     :  154301.430
------------------------------------------------------------
  Evaluating new KS density.
  Integration grid: deviation in total charge (<rho> - N_e) =   3.552714E-15
  Pulay mixing of updated and previous charge densities.
  Renormalizing the density to the exact electron count on the 3D integration grid.
  | Formal number of electrons (from input files) :      20.0000000000
  | Integrated number of electrons on 3D grid     :      20.0000000000
  | Charge integration error                      :       0.0000000000
  | Normalization factor for density and gradient :       1.0000000000

  Evaluating partitioned Hartree potential by multipole expansion.
  | Original multipole sum: apparent total charge =  -0.140453E-13
  | Sum of charges compensated after spline to logarithmic grids =   0.191403E-05
  | Analytical far-field extrapolation by fixed multipoles:
  | Hartree multipole sum: apparent total charge =  -0.130122E-13
  Summing up the Hartree potential.
  Time summed over all CPUs for potential: real work        0.295 s, elapsed        0.313 s
  | RMS charge density error from multipole expansion :   0.396119E-02

  Integrating Hamiltonian matrix: batch-based integration.
  Time summed over all CPUs for integration: real work        0.090 s, elapsed        0.097 s
  Evaluating the exchange matrix ... 

  Updating Kohn-Sham eigenvalues and eigenvectors using ELSI and the ELPA eigensolver.
  Starting ELPA eigensolver
  Finished transformation to standard eigenproblem
  | Time :     0.000 s
  Finished solving standard eigenproblem
  | Time :     0.001 s
  Finished back-transformation of eigenvectors
  | Time :     0.000 s

  Obtaining occupation numbers and chemical potential using ELSI.
  | Chemical potential (Fermi level):    -0.69456762 eV
  Highest occupied state (VBM) at    -13.96481276 eV
  | Occupation number:      2.00000000

  Lowest unoccupied state (CBM) at     3.66639201 eV
  | Occupation number:      0.00000000

  Overall HOMO-LUMO gap:     17.63120477 eV.

  Total energy components:
  | Sum of eigenvalues            :         -94.84315569 Ha       -2580.81357680 eV
  | XC energy correction          :          17.72586838 Ha         482.34542011 eV
  | XC potential correction       :           0.00000000 Ha           0.00000000 eV
  | Free-atom electrostatic energy:         -71.31216998 Ha       -1940.50287688 eV
  | Hartree energy correction     :          -3.64749913 Ha         -99.25350121 eV
  | Entropy correction            :           0.00000000 Ha           0.00000000 eV
  | ---------------------------
  | Total energy                  :        -152.07695642 Ha       -4138.22453478 eV
  | Total energy, T -> 0          :        -152.07695642 Ha       -4138.22453478 eV  <-- do not rely on this value for anything but (periodic) metals
  | Electronic free energy        :        -152.07695642 Ha       -4138.22453478 eV

  Derived energy quantities:
  | Kinetic energy                :         151.11678224 Ha        4112.09686598 eV
  | Electrostatic energy          :        -285.46787028 Ha       -7767.97598065 eV
  | Energy correction for multipole
  | error in Hartree potential    :          -0.00249251 Ha          -0.06782456 eV
  | Sum of eigenvalues per atom                           :        -430.13559613 eV
  | Total energy (T->0) per atom                          :        -689.70408913 eV  <-- do not rely on this value for anything but (periodic) metals
  | Electronic free energy per atom                       :        -689.70408913 eV

  Self-consistency convergence accuracy:
  | Change of charge density      :  0.8668E-02
  | Change of sum of eigenvalues  : -0.4354E+00 eV
  | Change of total energy        : -0.4242E+00 eV

  End self-consistency iteration #     5       :  max(cpu_time)    wall_clock(cpu1)
  | Time for this iteration                    :        0.066 s           0.067 s
  | Charge density update                      :        0.008 s           0.008 s
  | Density mixing                             :        0.001 s           0.001 s
  | Hartree multipole update                   :        0.003 s           0.003 s
  | Hartree multipole summation                :        0.039 s           0.039 s
  | Integration                                :        0.012 s           0.012 s
  | Fock matrix evaluation                     :        0.001 s           0.002 s
  | Solution of K.-S. eqns.                    :        0.002 s           0.001 s
  | Total energy evaluation                    :        0.000 s           0.000 s

  Partial memory accounting:
  | Current value for overall tracked memory usage:
  |   Minimum:        0.032 MB (on task 4)
  |   Maximum:        0.037 MB (on task 0)
  |   Average:        0.034 MB
  | Peak value for overall tracked memory usage:
  |   Minimum:        0.408 MB (on task 5 after allocating grid_partition)
  |   Maximum:        0.457 MB (on task 2 after allocating grid_partition)
  |   Average:        0.428 MB
  | Largest tracked array allocation so far:
  |   Minimum:        0.269 MB (all_coords on task 1)
  |   Maximum:        0.298 MB (all_coords on task 2)
  |   Average:        0.281 MB
  Note:  These values currently only include a subset of arrays which are explicitly tracked.
  The "true" memory usage will be greater.
------------------------------------------------------------

------------------------------------------------------------
          Begin self-consistency iteration #    6

  Date     :  20190817, Time     :  154301.497
------------------------------------------------------------
  Evaluating new KS density.
  Integration grid: deviation in total charge (<rho> - N_e) =   2.842171E-14
  Pulay mixing of updated and previous charge densities.
  Renormalizing the density to the exact electron count on the 3D integration grid.
  | Formal number of electrons (from input files) :      20.0000000000
  | Integrated number of electrons on 3D grid     :      20.0000000000
  | Charge integration error                      :       0.0000000000
  | Normalization factor for density and gradient :       1.0000000000

  Evaluating partitioned Hartree potential by multipole expansion.
  | Original multipole sum: apparent total charge =   0.122989E-14
  | Sum of charges compensated after spline to logarithmic grids =   0.194022E-05
  | Analytical far-field extrapolation by fixed multipoles:
  | Hartree multipole sum: apparent total charge =   0.393564E-14
  Summing up the Hartree potential.
  Time summed over all CPUs for potential: real work        0.290 s, elapsed        0.297 s
  | RMS charge density error from multipole expansion :   0.396098E-02

  Integrating Hamiltonian matrix: batch-based integration.
  Time summed over all CPUs for integration: real work        0.085 s, elapsed        0.086 s
  Evaluating the exchange matrix ... 

  Updating Kohn-Sham eigenvalues and eigenvectors using ELSI and the ELPA eigensolver.
  Starting ELPA eigensolver
  Finished transformation to standard eigenproblem
  | Time :     0.000 s
  Finished solving standard eigenproblem
  | Time :     0.000 s
  Finished back-transformation of eigenvectors
  | Time :     0.000 s

  Obtaining occupation numbers and chemical potential using ELSI.
  | Chemical potential (Fermi level):    -0.66521334 eV
  Highest occupied state (VBM) at    -13.94949408 eV
  | Occupation number:      2.00000000

  Lowest unoccupied state (CBM) at     3.67314364 eV
  | Occupation number:      0.00000000

[...]
 | i_freq   10            0.011797
 | i_freq   11            0.014389
 | i_freq   12            0.017253
 | i_freq   13            0.020397
 | i_freq   14            0.023826
 | i_freq   15            0.027548
 | i_freq   16            0.031570
 | i_freq   17            0.035901
 | i_freq   18            0.040551
 | i_freq   19            0.045529
 | i_freq   20            0.050846
 | i_freq   21            0.056515
 | i_freq   22            0.062547
 | i_freq   23            0.068958
 | i_freq   24            0.075762
 | i_freq   25            0.082975
 | i_freq   26            0.090615
 | i_freq   27            0.098701
 | i_freq   28            0.107252
 | i_freq   29            0.116291
 | i_freq   30            0.125842
 | i_freq   31            0.135929
 | i_freq   32            0.146581
 | i_freq   33            0.157826
 | i_freq   34            0.169698
 | i_freq   35            0.182230
 | i_freq   36            0.195460
 | i_freq   37            0.209429
 | i_freq   38            0.224180
 | i_freq   39            0.239761
 | i_freq   40            0.256224
 | i_freq   41            0.273624
 | i_freq   42            0.292024
 | i_freq   43            0.311489
 | i_freq   44            0.332092
 | i_freq   45            0.353913
 | i_freq   46            0.377037
 | i_freq   47            0.401559
 | i_freq   48            0.427585
 | i_freq   49            0.455227
 | i_freq   50            0.484612
 | i_freq   51            0.515877
 | i_freq   52            0.549177
 | i_freq   53            0.584679
 | i_freq   54            0.622573
 | i_freq   55            0.663065
 | i_freq   56            0.706389
 | i_freq   57            0.752803
 | i_freq   58            0.802596
 | i_freq   59            0.856094
 | i_freq   60            0.913662
 | i_freq   61            0.975711
 | i_freq   62            1.042706
 | i_freq   63            1.115177
 | i_freq   64            1.193725
 | i_freq   65            1.279035
 | i_freq   66            1.371894
 | i_freq   67            1.473207
 | i_freq   68            1.584019
 | i_freq   69            1.705543
 | i_freq   70            1.839192
 | i_freq   71            1.986619
 | i_freq   72            2.149771
 | i_freq   73            2.330952
 | i_freq   74            2.532904
 | i_freq   75            2.758913
 | i_freq   76            3.012940
 | i_freq   77            3.299798
 | i_freq   78            3.625381
 | i_freq   79            3.996967
 | i_freq   80            4.423632
 | i_freq   81            4.916802
 | i_freq   82            5.491033
 | i_freq   83            6.165091
 | i_freq   84            6.963505
 | i_freq   85            7.918832
 | i_freq   86            9.075026
 | i_freq   87           10.492583
 | i_freq   88           12.256615
 | i_freq   89           14.489927
 | i_freq   90           17.374976
 | i_freq   91           21.192342
 | i_freq   92           26.391591
 | i_freq   93           33.729901
 | i_freq   94           44.564042
 | i_freq   95           61.525277
 | i_freq   96           90.280309
 | i_freq   97          144.953213
 | i_freq   98          269.415349
 | i_freq   99          662.608268
 | i_freq  100         3492.666343
 
 ------------------------------------------------------------------------------
    RPA correlation energy :          -0.45713994  Ha,       -12.43941078  eV
 
 --------------------------------------------------------------------
    Exact exchange energy             :          -17.72587153 Ha,        -482.34550579 eV
    DFT/HF exchange energy            :          -16.11334277 Ha,        -438.46636565 eV
 
    DFT/HF total energy               :         -152.08497583 Ha,       -4138.44275401 eV
    Exchange-only total energy        :         -152.08497583 Ha,       -4138.44275390 eV
    RPA total energy                  :         -152.54211577 Ha,       -4150.88216468 eV
 
    RPA+SE total energy               :         -152.54211577 Ha,       -4150.88216468 eV
    RPA+rSE (diag) total energy       :         -152.54211577 Ha,       -4150.88216468 eV
    RPA+rSE total energy              :         -152.54211577 Ha,       -4150.88216468 eV
 
    RPA+ total energy                 :         -152.15680237 Ha,       -4140.39725348 eV
 
 ----------------------------------------------------------------------------
 
 
  Integrating the xc potential matrix  for basis functions ...

---------------------------------------------
 | MP2 quasiparticle calculation starts ...
---------------------------------------------
  | Note : Non spin-polarized system 
---------------------------------------------
  | Homo level                                       10
  | Lumo level                                       11
  | Total Number of states                           48
  | Number of k-points                                1
  | Homo-Lumo Gap                            0.64806 Ha         17.63464 eV
---------------------------------------------
  | Virt i_spin, i_state =            1           1
  | Virt i_spin, i_state =            1           2
  | Virt i_spin, i_state =            1           3
  | Virt i_spin, i_state =            1           4
  | Virt i_spin, i_state =            1           5
  | Virt i_spin, i_state =            1           6
  | Virt i_spin, i_state =            1           7
  | Virt i_spin, i_state =            1           8
  | Virt i_spin, i_state =            1           9
  | Virt i_spin, i_state =            1          10
  | Virt i_spin, i_state =            1          11
  | Virt i_spin, i_state =            1          12
  | Virt i_spin, i_state =            1          13
  | Virt i_spin, i_state =            1          14
  | Virt i_spin, i_state =            1          15
  | Virt i_spin, i_state =            1          16
  | Virt i_spin, i_state =            1          17
  | Virt i_spin, i_state =            1          18
  | Virt i_spin, i_state =            1          19
  | Virt i_spin, i_state =            1          20
  | Occ  i_spin, i_state =            1           1
  | Occ  i_spin, i_state =            1           2
  | Occ  i_spin, i_state =            1           3
  | Occ  i_spin, i_state =            1           4
  | Occ  i_spin, i_state =            1           5
  | Occ  i_spin, i_state =            1           6
  | Occ  i_spin, i_state =            1           7
  | Occ  i_spin, i_state =            1           8
  | Occ  i_spin, i_state =            1           9
  | Occ  i_spin, i_state =            1          10
  | Occ  i_spin, i_state =            1          11
  | Occ  i_spin, i_state =            1          12
  | Occ  i_spin, i_state =            1          13
  | Occ  i_spin, i_state =            1          14
  | Occ  i_spin, i_state =            1          15
  | Occ  i_spin, i_state =            1          16
  | Occ  i_spin, i_state =            1          17
  | Occ  i_spin, i_state =            1          18
  | Occ  i_spin, i_state =            1          19
  | Occ  i_spin, i_state =            1          20
 --------------------------------------------
 
          | Total time MP2 selfenergy                      :        0.071 s        0.071 s
 
 --------------------------------------------
 
  Analytical continuation (Pade approximation) starts...
 
  Quasi particle energy calculation using analytic continuation starts...
 
------------------------------------------------------------------------------------------------------
               MP2 quasi-particle energy levels
 
               e_qp = e_gs + e_x^ex - e_xc^gs + e_c^nloc
 
  state     occ_num        e_gs        e_x^ex        e_xc^gs        e_c^nloc        e_qp
------------------------------------------------------------------------------------------------------
------------------------------------------------------------------------------------------------------
       1    2.0000     -559.6407        0.0000        0.0000       14.6776     -544.9631
       2    2.0000     -559.6407        0.0000        0.0000       14.7142     -544.9265
       3    2.0000      -36.6259        0.0000        0.0000        5.0429      -31.5830
       4    2.0000      -36.6259        0.0000        0.0000        5.0429      -31.5830
       5    2.0000      -18.2849        0.0000        0.0000        1.6399      -16.6450
       6    2.0000      -18.2849        0.0000        0.0000        1.6399      -16.6450
       7    2.0000      -16.5745        0.0000        0.0000        2.4404      -14.1342
       8    2.0000      -16.5745        0.0000        0.0000        2.4404      -14.1342
       9    2.0000      -13.9603        0.0000        0.0000        2.9900      -10.9703
      10    2.0000      -13.9603        0.0000        0.0000        2.9900      -10.9703
      11    0.0000        3.6744        0.0000        0.0000       -0.6001        3.0742
      12    0.0000        3.6744        0.0000        0.0000       -0.6001        3.0742
      13    0.0000        7.4192        0.0000        0.0000       -0.8317        6.5875
      14    0.0000        7.4192        0.0000        0.0000       -0.8317        6.5875
      15    0.0000       12.5952        0.0000        0.0000       -0.9349       11.6603
      16    0.0000       12.5952        0.0000        0.0000       -0.9349       11.6603
      17    0.0000       14.1202        0.0000        0.0000       -0.6371       13.4831
      18    0.0000       14.1202        0.0000        0.0000       -0.6371       13.4831
      19    0.0000       14.2037        0.0000        0.0000       -0.6741       13.5296
      20    0.0000       14.2037        0.0000        0.0000       -0.6741       13.5296
------------------------------------------------------------------------------------------------------
 
   DFT/Hartree-Fock HOMO level (eV):   -13.9603  -13.9603
 
   Quasiparticle HOMO level (eV):      -10.9703  -10.9703
 
------------------------------------------------------------------------------------------------------
 
---------------------------------------------
---------------------------------------------
 | MP2 calculation starts ...
---------------------------------------------
---------------------------------------------

  | Note : Resolution of identity applied 
  | Note : Non spin-polarized system 
---------------------------------------------
  | Homo level                                       10
  | Lumo level                                       11
  | Total Number of states                           48
  | Number of k-points                                1
  | Homo-Lumo Gap                            0.64806115 Ha         17.63464122 eV
---------------------------------------------
  The ovlp_3KS matrix takes another      0 MiB x      8 procs =       0.001 GiB.

---------------------------------------------
 
 
 
          ---------------------------------------------
          | MP2 calculation comes to stop ...  
 
          ---------------------------------------------
          | Total time for calculating MP2 correction              :        0.001 s

          ---------------------------------------------

---------------------------------------------
  | HF Energy                      :       -152.08497583 Ha      -4138.44275401 eV
  | MP2 correction                 :         -0.41804054 Ha        -11.37546197 eV
---------------------------------------------
  | Total Energy + MP2 correction  :       -152.50301637 Ha      -4149.81821598 eV
---------------------------------------------
  |------------------------------------------------------
  | Final ELSI Output
  |------------------------------------------------------
  |
  | Physical Properties
  |   Number of electrons       :        0.20000000E+02
  |   Number of spins           :                     1
  |   Number of k-points        :                     1
  |   Number of states          :                    48
  |
  | Matrix Properties
  |   Matrix format             :           BLACS_DENSE
  |   Number of basis functions :                    48
  |   Matrix sparsity           :        0.50694444E+00
  |
  | Computational Details
  |   Parallel mode             :            MULTI_PROC
  |   Number of MPI tasks       :                     8
  |   Solver requested          :                  ELPA
  |   Number of ELSI calls      :                    15
  |
  |------------------------------------------------------
  | ELSI Project (c)  elsi-interchange.org
  |------------------------------------------------------

------------------------------------------------------------------------------
  Final output of selected total energy values:

  The following output summarizes some interesting total energy values
  at the end of a run (AFTER all relaxation, molecular dynamics, etc.).

  | Total energy of the DFT / Hartree-Fock s.c.f. calculation      :          -4138.442754014 eV
  | Final zero-broadening corrected energy (caution - metals only) :          -4138.442754014 eV
  | Total energy after the post-s.c.f. correlation calculation     :          -4149.818215980 eV
  | For reference only, the value of 1 Hartree used in FHI-aims is :             27.211384500 eV

  Before relying on these values, please be sure to understand exactly which
  total energy value is referred to by a given number. Different objects may
  all carry the same name 'total energy'. Definitions:

  Total energy of the DFT / Hartree-Fock s.c.f. calculation:
  | Note that this energy does not include ANY quantities calculated after the
  | s.c.f. cycle, in particular not ANY RPA, MP2, etc. many-body perturbation terms.

  Final zero-broadening corrected energy:
  | For metallic systems only, a broadening of the occupation numbers at the Fermi
  | level can be extrapolated back to zero broadening by an electron-gas inspired
  | formula. For all systems that are not real metals, this value can be
  | meaningless and should be avoided.

  Total energy of the post-s.c.f. correlation calculation        :
  Total energy of the post-s.c.f. correlation calculation        :
  | The actual meaning of this energy depends on the setting for the 'total_energy_method'
  | keyword (MP2, RPA, rPT2, etc). If not sure, compare to the results listed above.

------------------------------------------------------------------------------
  Methods described in the following list of references were used in this FHI-aims run.
  If you publish the results, please make sure to cite these reference if they apply.
  FHI-aims is an academic code, and for our developers (often, Ph.D. students
  and postdocs), scientific credit in the community is essential.
  Thank you for helping us!

  For any use of FHI-aims, please cite:

    Volker Blum, Ralf Gehrke, Felix Hanke, Paula Havu, Ville Havu,
    Xinguo Ren, Karsten Reuter, and Matthias Scheffler
    'Ab initio molecular simulations with numeric atom-centered orbitals'
    Computer Physics Communications 180, 2175-2196 (2009)
    http://dx.doi.org/10.1016/j.cpc.2009.06.022


  For Hartree-Fock, hybrid functionals, or many-body perturbation theory used in your run, please cite:

    Xinguo Ren, Patrick Rinke, Volker Blum, Juergen Wieferink, Alex Tkatchenko,
    Andrea Sanfilippo, Karsten Reuter, and Matthias Scheffler,
    'Resolution-of-identity approach to Hartree-Fock, hybrid density functionals,
    RPA, MP2, and GW with numeric atom-centered orbital basis functions'
    New Journal of Physics 14, 053020 (2012).
    http://dx.doi.org/10.1088/1367-2630/14/5/053020


  The ELSI infrastructure was used in your run to solve the Kohn-Sham electronic structure.
  Please check out http://elsi-interchange.org to learn more.
  If scalability is important for your project, please acknowledge ELSI by citing:

    V. W-z. Yu, F. Corsetti, A. Garcia, W. P. Huhn, M. Jacquelin, W. Jia,
    B. Lange, L. Lin, J. Lu, W. Mi, A. Seifitokaldani, A. Vazquez-Mayagoitia,
    C. Yang, H. Yang, and V. Blum
    'ELSI: A unified software interface for Kohn-Sham electronic structure solvers'
    Computer Physics Communications 222, 267-285 (2018).
    http://dx.doi.org/10.1016/j.cpc.2017.09.007


  For the real-space grid partitioning and parallelization used in this calculation, please cite:

    Ville Havu, Volker Blum, Paula Havu, and Matthias Scheffler,
    'Efficient O(N) integration for all-electron electronic structure calculation'
    'using numerically tabulated basis functions'
    Journal of Computational Physics 228, 8367-8379 (2009).
    http://dx.doi.org/10.1016/j.jcp.2009.08.008

  Of course, there are many other important community references, e.g., those cited in the
  above references. Our list is limited to references that describe implementations in the
  FHI-aims code. The reason is purely practical (length of this list) - please credit others as well.

------------------------------------------------------------
          Leaving FHI-aims.
          Date     :  20190817, Time     :  154302.355

          Computational steps:
          | Number of self-consistency cycles          :           14
          | Number of SCF (re)initializations          :            1

          Detailed time accounting                     :  max(cpu_time)    wall_clock(cpu1)
          | Total time                                 :        1.846 s           1.869 s
          | Preparation time                           :        0.096 s           0.095 s
          | Boundary condition initalization           :        0.000 s           0.000 s
          | Grid partitioning                          :        0.024 s           0.024 s
          | Preloading free-atom quantities on grid    :        0.008 s           0.008 s
          | Free-atom superposition energy             :        0.008 s           0.008 s
          | Total time for integrations                :        0.189 s           0.188 s
          | Product basis setup: Total time            :        0.442 s           0.447 s
          | Product basis: | 2-center integrations     :(       0.098 s)  (       0.098 s)
          | Product basis: | 2-center linear algebra   :(       0.009 s)  (       0.008 s)
          | Product basis: | LVL 3-center & coefficient:(       0.300 s)  (       0.303 s)
          | Total time evaluating exchange matrix      :        0.015 s           0.016 s
          | Transforming ovlp_3fn to ovlp_3KS          :        0.002 s           0.001 s
          | Total time for evaluating polarisability   :        0.058 s           0.057 s
          | Total time for RPA corr. energy            :        0.077 s           0.077 s
          | Total time for solution of K.-S. equations :        0.018 s           0.018 s
          | Total time for density update              :        0.113 s           0.114 s
          | Total time for mixing                      :        0.018 s           0.018 s
          | Total time for Hartree multipole update    :        0.038 s           0.038 s
          | Total time for Hartree multipole sum       :        0.557 s           0.557 s
          | Total time for total energy evaluation     :        0.002 s           0.003 s

          Partial memory accounting:
          | Residual value for overall tracked memory usage across tasks:     0.000000 MB (should be 0.000000 MB)
          | Peak values for overall tracked memory usage:
          |   Minimum:        0.408 MB (on task 5 after allocating grid_partition)
          |   Maximum:        0.457 MB (on task 2 after allocating grid_partition)
          |   Average:        0.428 MB
          | Largest tracked array allocation:
          |   Minimum:        0.269 MB (all_coords on task 1)
          |   Maximum:        0.298 MB (all_coords on task 2)
          |   Average:        0.281 MB
          Note:  These values currently only include a subset of arrays which are explicitly tracked.
          The "true" memory usage will be greater.

          Have a nice day.
------------------------------------------------------------
