  MPI-parallelism will be employed.
------------------------------------------------------------
          Invoking FHI-aims ...

          When using FHI-aims, please cite the following reference:

          Volker Blum, Ralf Gehrke, Felix Hanke, Paula Havu,
          Ville Havu, Xinguo Ren, Karsten Reuter, and Matthias Scheffler,
          'Ab Initio Molecular Simulations with Numeric Atom-Centered Orbitals',
          Computer Physics Communications 180, 2175-2196 (2009)

          For any questions about FHI-aims, please visit the aimsclub website
          with its forums and wiki. Contributions to both the forums and the
          wiki are warmly encouraged - they are for you, and everyone is welcome there.

------------------------------------------------------------



  Date     :  20190902, Time     :  135131.056
  Time zero on CPU 1             :   0.419920000000000E-01  s.
  Internal wall clock time zero  :           336664291.056  s.

  FHI-aims created a unique identifier for this run for later identification
  aims_uuid : E1C66EE3-CED4-4FE6-A0B7-3870E356ACD9

  Build configuration of the current instance of FHI-aims
  -------------------------------------------------------
  FHI-aims version      : 190824
  Commit number         : 2e5b160f6
  CMake host system     : Linux-2.6.32-754.14.2.el6.x86_64
  CMake version         : 3.13.5
  Fortran compiler      : /opt/intel/impi/2018.2.199/bin64/mpiifort (Intel) version 18.0.2.20180210
  Fortran compiler flags: -O3 -ip -fp-model precise -check bounds -check uninit -check pointers -traceback -g -fpe0 -warn all -warn nounused -warn nointerfaces
  C compiler            : /opt/intel/impi/2018.2.199/bin64/mpiicc (Intel) version 18.0.2.20180210
  C compiler flags      : -O3 -ip -std=c99
  Architecture          :
  Using MPI
  Using Scalapack
  Using C files
  Using LibXC
  Using SPGlib
  Linking against: /opt/intel/mkl/lib/intel64/libmkl_scalapack_lp64.so
                   /opt/intel/mkl/lib/intel64/libmkl_blacs_intelmpi_lp64.so
                   /opt/intel/mkl/lib/intel64/libmkl_intel_lp64.so
                   /opt/intel/mkl/lib/intel64/libmkl_sequential.so
                   /opt/intel/mkl/lib/intel64/libmkl_core.so

  Using       20 parallel tasks.
  Task        0 on host node15.timewarp reporting.
  Task        1 on host node15.timewarp reporting.
  Task        2 on host node15.timewarp reporting.
  Task        3 on host node15.timewarp reporting.
  Task        4 on host node15.timewarp reporting.
  Task        5 on host node15.timewarp reporting.
  Task        6 on host node15.timewarp reporting.
  Task        7 on host node15.timewarp reporting.
  Task        8 on host node15.timewarp reporting.
  Task        9 on host node15.timewarp reporting.
  Task       10 on host node15.timewarp reporting.
  Task       11 on host node15.timewarp reporting.
  Task       12 on host node15.timewarp reporting.
  Task       13 on host node15.timewarp reporting.
  Task       14 on host node15.timewarp reporting.
  Task       15 on host node15.timewarp reporting.
  Task       16 on host node15.timewarp reporting.
  Task       17 on host node15.timewarp reporting.
  Task       18 on host node15.timewarp reporting.
  Task       19 on host node15.timewarp reporting.

  Performing system and environment tests:
  | Environment variable OMP_NUM_THREADS correctly set to 1.
  | Maximum stacksize for task 0: unlimited
  | Maximum stacksize for task 1: unlimited
  | Maximum stacksize for task 2: unlimited
  | Maximum stacksize for task 3: unlimited
  | Maximum stacksize for task 4: unlimited
  | Maximum stacksize for task 5: unlimited
  | Maximum stacksize for task 6: unlimited
  | Maximum stacksize for task 7: unlimited
  | Maximum stacksize for task 8: unlimited
  | Maximum stacksize for task 9: unlimited
  | Maximum stacksize for task 10: unlimited
  | Maximum stacksize for task 11: unlimited
  | Maximum stacksize for task 12: unlimited
  | Maximum stacksize for task 13: unlimited
  | Maximum stacksize for task 14: unlimited
  | Maximum stacksize for task 15: unlimited
  | Maximum stacksize for task 16: unlimited
  | Maximum stacksize for task 17: unlimited
  | Maximum stacksize for task 18: unlimited
  | Maximum stacksize for task 19: unlimited
  | Current stacksize for task 0: unlimited
  | Current stacksize for task 1: unlimited
  | Current stacksize for task 2: unlimited
  | Current stacksize for task 3: unlimited
  | Current stacksize for task 4: unlimited
  | Current stacksize for task 5: unlimited
  | Current stacksize for task 6: unlimited
  | Current stacksize for task 7: unlimited
  | Current stacksize for task 8: unlimited
  | Current stacksize for task 9: unlimited
  | Current stacksize for task 10: unlimited
  | Current stacksize for task 11: unlimited
  | Current stacksize for task 12: unlimited
  | Current stacksize for task 13: unlimited
  | Current stacksize for task 14: unlimited
  | Current stacksize for task 15: unlimited
  | Current stacksize for task 16: unlimited
  | Current stacksize for task 17: unlimited
  | Current stacksize for task 18: unlimited
  | Current stacksize for task 19: unlimited
  | Checking for scalapack...
  | Testing pdtran()...
  | All pdtran() tests passed.

  Obtaining array dimensions for all initial allocations:
  
  -----------------------------------------------------------------------
  Parsing control.in (first pass over file, find array dimensions only).
  The contents of control.in will be repeated verbatim below
  unless switched off by setting 'verbatim_writeout .false.' .
  in the first line of control.in .
  -----------------------------------------------------------------------
  
  #
   xc pbe
   relativistic atomic_zora scalar
  #
   frozen_core_scf .true.
   frozen_core_scf_cutoff -5.d2
  #
  ################################################################################
  #
  #  FHI-aims code project
  #  VB, Fritz-Haber Institut, 2009
  #
  #  Suggested "light" defaults for Au atom (to be pasted into control.in file)
  #  Be sure to double-check any results obtained with these settings for post-processing,
  #  e.g., with the "tight" defaults and larger basis sets.
  #
  ################################################################################
    species        Au
  #     global species definitions
      nucleus             79
      mass                196.966569
  #
      l_hartree           4
  #
      cut_pot             3.5  1.5  1.0
      basis_dep_cutoff    1e-4
  #
      radial_base         73 5.0
      radial_multiplier   1
      angular_grids specified
        division   0.5066   50
        division   0.9861  110
        division   1.2821  194
        division   1.5344  302
  #      division   2.0427  434
  #      division   2.1690  590
  #      division   2.2710  770
  #      division   2.3066  974
  #      division   2.7597 1202
  #      outer_grid 974
        outer_grid 302
  ################################################################################
  #
  #  Definition of "minimal" basis
  #
  ################################################################################
  #     valence basis states
      valence      6  s   1.
      valence      5  p   6.
      valence      5  d  10.
      valence      4  f  14.
  #     ion occupancy
      ion_occ     6  s   0.
      ion_occ     5  p   6.
      ion_occ     5  d   9.
      ion_occ     4  f   14.
  ################################################################################
  #
  #  Suggested additional basis functions. For production calculations,
  #  uncomment them one after another (the most important basis functions are
  #  listed first).
  #
  #  Constructed for dimers: 2.10, 2.45, 3.00, 4.00 AA
  #
  ################################################################################
  #  "First tier" - max. impr. -161.60  meV, min. impr. -4.53 meV
       ionic 6 p auto
       hydro 4 f 7.4
       ionic 6 s auto
  #     hydro 5 g 10
  #     hydro 6 h 12.8
       hydro 3 d 2.5
  #  "Second tier" - max. impr. -2.46  meV, min. impr. -0.28 meV
  #     hydro 5 f 14.8
  #     hydro 4 d 3.9
  #     hydro 3 p 3.3
  #     hydro 1 s 0.45
  #     hydro 5 g 16.4
  #     hydro 6 h 13.6
  #  "Third tier" - max. impr. -0.49  meV, min. impr. -0.09 meV
  #     hydro 4 f 5.2
  #     hydro 4 d 5
  #     hydro 5 g 8
  #     hydro 5 p 8.2
  #     hydro 6 d 12.4
  #     hydro 6 s 14.8
  #  Further basis functions: -0.08 meV and below
  #     hydro 5 f 18.8
  #     hydro 5 g 20
  #    hydro 5 g 15.2
  
  -----------------------------------------------------------------------
  Completed first pass over input file control.in .
  -----------------------------------------------------------------------
  
  
  -----------------------------------------------------------------------
  Parsing geometry.in (first pass over file, find array dimensions only).
  The contents of geometry.in will be repeated verbatim below
  unless switched off by setting 'verbatim_writeout .false.' .
  in the first line of geometry.in .
  -----------------------------------------------------------------------
  
  atom  0.0  0.0  0.0  Au
  atom  3.0  0.0  0.0  Au
  
  -----------------------------------------------------------------------
  Completed first pass over input file geometry.in .
  -----------------------------------------------------------------------
  

  Basic array size parameters:
  | Number of species                 :        1
  | Number of atoms                   :        2
  | Max. basis fn. angular momentum   :        3
  | Max. atomic/ionic basis occupied n:        6
  | Max. number of basis fn. types    :        3
  | Max. radial fns per species/type  :       14
  | Max. logarithmic grid size        :     1488
  | Max. radial integration grid size :       73
  | Max. angular integration grid size:      302
  | Max. angular grid division number :        8
  | Radial grid for Hartree potential :     1488
  | Number of spin channels           :        1

------------------------------------------------------------
          Reading file control.in.
------------------------------------------------------------
  XC: Using PBE gradient-corrected functionals.
  Scalar relativistic treatment of kinetic energy: on-site free-atom approximation to ZORA.
 
  Reading configuration options for species Au                  .
  | Found nuclear charge :  79.0000
  | Found atomic mass :    196.966569000000      amu
  | Found l_max for Hartree potential  :   4
  | Found cutoff potl. onset [A], width [A], scale factor :    3.50000    1.50000    1.00000
  | Threshold for basis-dependent cutoff potential is   0.100000E-03
  | Found data for basic radial integration grid :    73 points, outermost radius =    5.000 A
  | Found multiplier for basic radial grid :   1
  | Found angular grid specification: user-specified.
  | Specified grid contains     5 separate shells.
  | Check grid settings after all constraints further below.
  | Found free-atom valence shell :  6 s   1.000
  | Found free-atom valence shell :  5 p   6.000
  | Found free-atom valence shell :  5 d  10.000
  | Found free-atom valence shell :  4 f  14.000
  | Found free-ion valence shell :  6 s   0.000
  | Found free-ion valence shell :  5 p   6.000
  | Found free-ion valence shell :  5 d   9.000
  | Found free-ion valence shell :  4 f  14.000
  | Found ionic basis function :  6 p , default cutoff radius.
  | Found hydrogenic basis function :  4 f   7.400
  | Found ionic basis function :  6 s , default cutoff radius.
  | Found hydrogenic basis function :  3 d   2.500
  Species Au                  : Missing cutoff potential type.
  Defaulting to exp(1/x)/(1-x)^2 type cutoff potential.
  Species Au: No 'logarithmic' tag. Using default grid for free atom:
  | Default logarithmic grid data [bohr] : 0.1000E-03 0.1000E+03 0.1012E+01
  | Will include ionic basis functions of  2.0-fold positive Au                   ion.
  Species Au: On-site basis accuracy parameter (for Gram-Schmidt orthonormalisation) not specified.
  Using default value basis_acc =  0.1000000E-03.
  Species Au                  : Using default innermost maximum threshold i_radial=  2 for radial functions.
  Species Au                  : Default cutoff onset for free atom density etc. : 0.35000000E+01 AA.
  Species Au                  : Basic radial grid will be enhanced according to radial_multiplier =   1, to contain    73 grid points.
 
  Finished reading input file 'control.in'. Consistency checks are next.
 
  MPI_IN_PLACE appears to work with this MPI implementation.
  | Keeping use_mpi_in_place .true. (see manual).
  Target number of points in a grid batch is not set. Defaulting to  100
  Method for grid partitioning is not set. Defaulting to parallel hash+maxmin partitioning.
  Batch size limit is not set. Defaulting to    200
  By default, will store active basis functions for each batch.
  If in need of memory, prune_basis_once .false. can be used to disable this option.
  communication_type for Hartree potential was not specified.
  Defaulting to calc_hartree .
  Defaulting to Pulay charge density mixer.
  Pulay mixer: Number of relevant iterations not set.
  Defaulting to    8 iterations.
  Pulay mixer: Number of initial linear mixing iterations not set.
  Defaulting to    0 iterations.
  Work space size for distributed Hartree potential not set.
  Defaulting to   0.200000E+03 MB.
  Mixing parameter for charge density mixing has not been set.
  Using default: charge_mix_param =     0.0500.
  The mixing parameter will be adjusted in iteration number     2 of the first full s.c.f. cycle only.
  Algorithm-dependent basis array size parameters:
  | n_max_pulay                         :        8
 * Notice: The s.c.f. convergence criterion sc_accuracy_rho was not provided.
 * We used to stop in this case, and ask the user to provide reasonable
 * scf convergence criteria. However, this led some users to employ criteria
 * that led to extremely long run times, e.g., for simple relaxation.
 * We now preset a default value for sc_accuracy_rho if it is not set.
 * You may still wish to check if this setting is too tight or too loose for your needs.
 * Based on n_atoms, FHI-aims chose sc_accuracy_rho =  0.100000E-05 .
  Maximum number of self-consistency iterations not provided.
  Presetting  1000 iterations.
  Presetting      1001 iterations before the initial mixing cycle
  is restarted anyway using the sc_init_iter criterion / keyword.
  Presetting a factor      1.000 between actual scf density residual
  and density convergence criterion sc_accuracy_rho below which sc_init_iter
  takes no effect.
 * No s.c.f. convergence criteria (sc_accuracy_*) were provided in control.in.
 * The run will proceed with a reasonable default guess, but please check whether.
 * the s.c.f. cycles seem to take too much or too little time.
  Calculation of forces was not defined in control.in. No forces will be calculated.
  Geometry relaxation not requested: no relaxation will be performed.
  No accuracy limit for integral partition fn. given. Defaulting to  0.1000E-14.
  No threshold value for u(r) in integrations given. Defaulting to  0.1000E-05.
  No occupation type (smearing scheme) given. Defaulting to Gaussian broadening, width =  0.1000E-01 eV.
  The width will be adjusted in iteration number     2 of the first full s.c.f. cycle only.
  S.C.F. convergence parameters will be adjusted in iteration number     2 of the first full s.c.f. cycle only.
  No accuracy for occupation numbers given. Defaulting to  0.1000E-12.
  No threshold value for occupation numbers given. Defaulting to  0.0000E+00.
  No accuracy for fermi level given. Defaulting to  0.1000E-19.
  Maximum # of iterations to find E_F not set. Defaulting to  200.
  Preferred method for the eigenvalue solver ('KS_method') not specified in 'control.in'.
  Calling BLACS routine to test compilation state
  Since ScaLAPACK support is enabled, defaulting to ELPA (via ELSI).
  Will not use alltoall communication since running on < 1024 CPUs.
  Threshold for basis singularities not set.
  Default threshold for basis singularities:  0.1000E-04
  partition_type (choice of integration weights) for integrals was not specified.
  | Using a version of the partition function of Stratmann and coworkers ('stratmann_sparse').
  | At each grid point, the set of atoms used to build the partition table is smoothly restricted to
  | only those atoms whose free-atom density would be non-zero at that grid point.
  Partitioning for Hartree potential was not defined. Using partition_type for integrals.
  | Adjusted default value of keyword multip_moments_threshold to:       0.10000000E-11
  | This value may affect high angular momentum components of the Hartree potential in periodic systems.
  Spin handling was not defined in control.in. Defaulting to unpolarized case.
  No q(lm)/r^(l+1) cutoff set for long-range Hartree potential.
  | Using default value of  0.100000E-09 .
  | Verify using the multipole_threshold keyword.
  Defaulting to new monopole extrapolation.
  Density update method: automatic selection selected.
  Charge integration errors on the 3D integration grid will be compensated
  by explicit normalization and distribution of residual charges.
  Use the "compensate_multipole_errors" flag to change this behaviour.
------------------------------------------------------------


------------------------------------------------------------
          Reading geometry description geometry.in.
------------------------------------------------------------
  Input structure read successfully.
  The structure contains        2 atoms,  and a total of        158.000 electrons.

  Input geometry:
  | No unit cell requested.
  | Atomic structure:
  |       Atom                x [A]            y [A]            z [A]
  |    1: Species Au            0.00000000        0.00000000        0.00000000
  |    2: Species Au            3.00000000        0.00000000        0.00000000
  | The smallest distance between any two atoms is         3.00000000 AA.
  | The first atom of this pair is atom number                      1 .
  | The second atom of this pair is atom number                     2 .

  Number of empty states per atom not set in control.in - providing a guess from actual geometry.
  | Total number of empty states used during s.c.f. cycle:       18
  If you use a very high smearing, use empty_states (per atom!) in control.in to increase this value.

  Structure-dependent array size parameters: 
  | Maximum number of distinct radial functions  :       18
  | Maximum number of basis functions            :      112
  | Number of Kohn-Sham states (occupied + empty):       97
------------------------------------------------------------

------------------------------------------------------------
          Preparing all fixed parts of the calculation.
------------------------------------------------------------
  Determining machine precision:
    2.225073858507201E-308
  Setting up grids for atomic and cluster calculations.

  Creating wave function, potential, and density for free atoms.

  Species: Au

  List of occupied orbitals and eigenvalues:
    n    l              occ      energy [Ha]    energy [eV]
    1    0           2.0000     -3256.431199    -88612.0015
    2    0           2.0000      -533.654865    -14521.4877
    3    0           2.0000      -124.232088     -3380.5271
    4    0           2.0000       -26.843821      -730.4575
    5    0           2.0000        -3.974251      -108.1449
    6    0           1.0000        -0.207180        -5.6377
    2    1           6.0000      -460.384091    -12527.6885
    3    1           6.0000      -103.448928     -2814.9886
    4    1           6.0000       -20.075789      -546.2900
    5    1           6.0000        -2.189737       -59.5858
    3    2          10.0000       -81.364825     -2214.0495
    4    2          10.0000       -11.975168      -325.8609
    5    2          10.0000        -0.249072        -6.7776
    4    3          14.0000        -2.985533       -81.2405

  Creating fixed part of basis set: Ionic, confined, hydrogenic.
 
  Au                   ion:

  List of free ionic orbitals and eigenvalues:
    n    l      energy [Ha]    energy [eV]
    1    0     -3257.305345    -88635.7882
    2    0      -534.468969    -14543.6406
    3    0      -125.037161     -3402.4343
    4    0       -27.646714      -752.3054
    5    0        -4.773414      -129.8912
    2    1      -461.196653    -12549.7994
    3    1      -104.253556     -2836.8836
    4    1       -20.878488      -568.1326
    5    1        -2.984283       -81.2065
    3    2       -82.168946     -2235.9308
    4    2       -12.777596      -347.6961
    5    2        -1.004504       -27.3340
    4    3        -3.787521      -103.0637


  List of ionic basis orbitals and eigenvalues:
    n    l      energy [Ha]    energy [eV]    outer radius [A]
    6    1        -0.535414       -14.5694       4.560053
    6    0        -0.835538       -22.7361       4.504645

 
  Au                   hydrogenic:
 
  List of hydrogenic basis orbitals: 
    n    l      effective z      eigenvalue [eV]  inner max. [A]     outer max. [A]     outer radius [A]   
    4    3         7.400000       -46.5648           1.145580           1.145580           4.504645
    3    2         2.500000        -9.0892           1.822958           1.822958           4.616141
 

  Adding cutoff potential to free-atom effective potential.
  Creating atomic-like basis functions for current effective potential.

  Species Au                  :

  List of atomic basis orbitals and eigenvalues:
    n    l      energy [Ha]    energy [eV]    outer radius [A]
    1    0     -3256.431199    -88612.0015       0.120816
    2    0      -533.654865    -14521.4877       0.313506
    3    0      -124.232088     -3380.5271       0.652830
    4    0       -26.843821      -730.4575       1.359424
    5    0        -3.974251      -108.1449       3.318406
    6    0        -0.207180        -5.6377       4.560053
    2    1      -460.384091    -12527.6885       0.329217
    3    1      -103.448928     -2814.9886       0.702515
    4    1       -20.075789      -546.2900       1.536198
    5    1        -2.189737       -59.5858       4.035315
    3    2       -81.364825     -2214.0495       0.755981
    4    2       -11.975168      -325.8609       1.868078
    5    2        -0.249072        -6.7776       4.504645
    4    3        -2.985533       -81.2405       3.198908

  Assembling full basis from fixed parts.
  | Species Au :   atomic orbital   1 s accepted.
  | Species Au :   atomic orbital   2 s accepted.
  | Species Au :   atomic orbital   3 s accepted.
  | Species Au :   atomic orbital   4 s accepted.
  | Species Au :   atomic orbital   5 s accepted.
  | Species Au :    ionic orbital   6 s accepted.
  | Species Au :   atomic orbital   6 s accepted.
  | Species Au :   atomic orbital   2 p accepted.
  | Species Au :   atomic orbital   3 p accepted.
  | Species Au :   atomic orbital   4 p accepted.
  | Species Au :   atomic orbital   5 p accepted.
  | Species Au :    ionic orbital   6 p accepted.
  | Species Au :   atomic orbital   3 d accepted.
  | Species Au :   atomic orbital   4 d accepted.
  | Species Au :   atomic orbital   5 d accepted.
  | Species Au :    hydro orbital   3 d accepted.
  | Species Au :   atomic orbital   4 f accepted.
  | Species Au :    hydro orbital   4 f accepted.
 
  Basis size parameters after reduction:
  | Total number of radial functions:       18
  | Total number of basis functions :      112
 
  Per-task memory consumption for arrays in subroutine allocate_ext:
  |           6.860096MB.
  Testing on-site integration grid accuracy.
  |  Species  Function  <phi|h_atom|phi> (log., in eV)  <phi|h_atom|phi> (rad., in eV)
           1        1             -88612.0014632774             -88611.6712034180 ***
           1        2             -14521.4877182964             -14521.4813999840
           1        3              -3380.5271184873              -3380.5267747403
           1        4               -730.4575387750               -730.4575126103
           1        5               -108.1448599487               -108.1448564257
           1        6                 -5.0942970264                 -5.0944290505
           1        7                  6.1115134725                  6.0788143786 ***
           1        8             -12527.6885190594             -12527.6885173588
           1        9              -2814.9885638658              -2814.9885482953
           1       10               -546.2900141357               -546.2900083742
           1       11                -59.5857773529                -59.5857755927
           1       12                  0.8801786309                  0.8779179090
           1       13              -2214.0495316492              -2214.0495265682
           1       14               -325.8609015357               -325.8608990336
           1       15                 -6.7779523923                 -6.7780549541
           1       16                  6.8774732691                  6.8534371069
           1       17                -81.2404736787                -81.2404731538
           1       18                 21.6950885255                 21.6950713539
 * Note: Onsite integrals marked "***" above are less accurate than
 * onsite_accuracy_threshold =    0.03000 eV. Usually, this is harmless.
 * However, one integral did have a negative value. This integral could be important.
 * When in doubt, tighten the "radial" and/or "radial_multiplier" flags to check.

  Preparing densities etc. for the partition functions (integrals / Hartree potential).

  Preparations completed.
  max(cpu_time)          :      0.676 s.
  Wall clock time (cpu1) :      0.675 s.
------------------------------------------------------------

------------------------------------------------------------
          Begin self-consistency loop: Initialization.

          Date     :  20190902, Time     :  135131.796
------------------------------------------------------------

  Initializing index lists of integration centers etc. from given atomic structure:
  | Number of centers in hartree potential         :         2
  | Number of centers in hartree multipole         :         2
  | Number of centers in electron density summation:         2
  | Number of centers in basis integrals           :         2
  | Number of centers in integrals                 :         2
  | Number of centers in hamiltonian               :         2
  * Using 20 tasks for Scalapack Eigenvalue solver.
  Detailed listing of tasks and assigned k-points:
  (for non-periodic systems, the "k-point" denotes an internal label only)
   Task     0 k-point     1 on node15.timewarp
   Task     1 k-point     1 on node15.timewarp
   Task     2 k-point     1 on node15.timewarp
   Task     3 k-point     1 on node15.timewarp
   Task     4 k-point     1 on node15.timewarp
   Task     5 k-point     1 on node15.timewarp
   Task     6 k-point     1 on node15.timewarp
   Task     7 k-point     1 on node15.timewarp
   Task     8 k-point     1 on node15.timewarp
   Task     9 k-point     1 on node15.timewarp
   Task    10 k-point     1 on node15.timewarp
   Task    11 k-point     1 on node15.timewarp
   Task    12 k-point     1 on node15.timewarp
   Task    13 k-point     1 on node15.timewarp
   Task    14 k-point     1 on node15.timewarp
   Task    15 k-point     1 on node15.timewarp
   Task    16 k-point     1 on node15.timewarp
   Task    17 k-point     1 on node15.timewarp
   Task    18 k-point     1 on node15.timewarp
   Task    19 k-point     1 on node15.timewarp
  Tasks:    20 split into      5 X      4 BLACS grid
  Calculating block size based on n_basis =          112  max_nprow =            5  max_npcol =            4
  ScaLAPACK block size set to:           16
  Allocating        0.008 MB for ovlp
  Allocating        0.008 MB for ham
  Allocating        0.008 MB for eigenvec
  Required Scalapack workspace - INTEGER:            1  REAL:             1
  | Frozen core approximation cutoff:   -500.000 eV
  | Found         36 core states
  Partitioning the integration grid into batches with parallel hashing+maxmin method.
  | Number of batches:      234
  | Maximal batch size:     131
  | Minimal batch size:      49
  | Average batch size:      77.966
  | Standard deviation of batch sizes:      18.430

  Integration load balanced across    20 MPI tasks.
  Work distribution over tasks is as follows:
  Task     0 has        868 integration points.
  Task     1 has        929 integration points.
  Task     2 has        910 integration points.
  Task     3 has        914 integration points.
  Task     4 has        903 integration points.
  Task     5 has        893 integration points.
  Task     6 has        887 integration points.
  Task     7 has        875 integration points.
  Task     8 has        915 integration points.
  Task     9 has        911 integration points.
  Task    10 has        915 integration points.
  Task    11 has        916 integration points.
  Task    12 has        915 integration points.
  Task    13 has        918 integration points.
  Task    14 has        924 integration points.
  Task    15 has        897 integration points.
  Task    16 has        969 integration points.
  Task    17 has        904 integration points.
  Task    18 has        973 integration points.
  Task    19 has        908 integration points.
  Initializing partition tables, free-atom densities, potentials, etc. across the integration grid (initialize_grid_storage).
  | initialize_grid_storage: Actual outermost partition radius vs. multipole_radius_free
  | (-- VB: in principle, multipole_radius_free should be larger, hence this output)
  | Species        1: Confinement radius =              4.999999999999999 AA, multipole_radius_free =              5.028561921230412 AA.
  | Species        1: outer_partition_radius set to              5.028561921230412 AA .
  | The sparse table of interatomic distances needs          0.04 kbyte instead of         0.03 kbyte of memory.
  | Using the partition_type stratmann_smoother will reduce your memory usage.
  | Net number of integration points:    18244
  | of which are non-zero points    :    18040
  Renormalizing the initial density to the exact electron count on the 3D integration grid.
  | Initial density: Formal number of electrons (from input files) :     158.0000000000
  | Integrated number of electrons on 3D grid     :     157.9999335231
  | Charge integration error                      :      -0.0000664769
  | Normalization factor for density and gradient :       1.0000004207
  Renormalizing the free-atom superposition density to the exact electron count on the 3D integration grid.
  | Formal number of electrons (from input files) :     158.0000000000
  | Integrated number of electrons on 3D grid     :     157.9999335231
  | Charge integration error                      :      -0.0000664769
  | Normalization factor for density and gradient :       1.0000004207
  Obtaining max. number of non-zero basis functions in each batch (get_n_compute_maxes).
  | Maximal number of non-zero basis functions:       89 in task     0
  | Maximal number of non-zero basis functions:       89 in task     1
  | Maximal number of non-zero basis functions:       93 in task     2
  | Maximal number of non-zero basis functions:       93 in task     3
  | Maximal number of non-zero basis functions:       89 in task     4
  | Maximal number of non-zero basis functions:       93 in task     5
  | Maximal number of non-zero basis functions:       88 in task     6
  | Maximal number of non-zero basis functions:       89 in task     7
  | Maximal number of non-zero basis functions:       92 in task     8
  | Maximal number of non-zero basis functions:       93 in task     9
  | Maximal number of non-zero basis functions:       92 in task    10
  | Maximal number of non-zero basis functions:       93 in task    11
  | Maximal number of non-zero basis functions:       93 in task    12
  | Maximal number of non-zero basis functions:       92 in task    13
  | Maximal number of non-zero basis functions:       93 in task    14
  | Maximal number of non-zero basis functions:       93 in task    15
  | Maximal number of non-zero basis functions:       89 in task    16
  | Maximal number of non-zero basis functions:       89 in task    17
  | Maximal number of non-zero basis functions:       89 in task    18
  | Maximal number of non-zero basis functions:       93 in task    19
  Selecting the method for density update.
  split updates selected: force will be updated via density matrix and electron density via Kohn Sham orbitals.
  Scalapack and split updates requested:
  Switching to packed matrix format "index" by default.
  Hamiltonian matrix size:
  | Size of matrix non-packed:                  6328
  | Size of matrix packed:            5961
  Allocating        0.083 MB for KS_eigenvector
  Integrating Hamiltonian matrix: batch-based integration.
  Time summed over all CPUs for integration: real work        0.256 s, elapsed        0.279 s
  Integrating overlap matrix.
  Time summed over all CPUs for integration: real work        0.097 s, elapsed        0.105 s
  Decreasing sparse matrix size:
  | Tolerance:  0.1000E-12
  Hamiltonian matrix
  | Array has     1803 nonzero elements out of     5961 elements
  | Sparsity factor is 0.698
  Overlap matrix
  | Array has     1631 nonzero elements out of     5961 elements
  | Sparsity factor is 0.726
  New size of hamiltonian matrix:        3990
  Deallocating overlap matrix.

  Updating Kohn-Sham eigenvalues and eigenvectors using ELSI and the ELPA eigensolver.
  Overlap matrix is not singular
  | Lowest and highest eigenvalues :  0.6363E-01,  0.1932E+01
  Finished singularity check of overlap matrix
  | Time :     0.002 s
  Starting ELPA eigensolver
  Finished Cholesky decomposition
  | Time :     0.002 s
  Finished transformation to standard eigenproblem
  | Time :     0.001 s
  Finished solving standard eigenproblem
  | Time :     0.002 s
  Finished back-transformation of eigenvectors
  | Time :     0.000 s

  Obtaining occupation numbers and chemical potential using ELSI.
  | Chemical potential (Fermi level):    -6.08283469 eV
  Writing Kohn-Sham eigenvalues.

  State    Occupation    Eigenvalue [Ha]    Eigenvalue [eV]
      1       2.00000       -3256.411250       -88611.45862
      2       2.00000       -3256.411250       -88611.45862
      3       2.00000        -533.652523       -14521.42399
      4       2.00000        -533.652523       -14521.42399
      5       2.00000        -460.384313       -12527.69457
      6       2.00000        -460.384313       -12527.69457
      7       2.00000        -460.384312       -12527.69453
      8       2.00000        -460.384312       -12527.69453
      9       2.00000        -460.384312       -12527.69453
     10       2.00000        -460.384312       -12527.69453
     11       2.00000        -124.231768        -3380.51842
     12       2.00000        -124.231768        -3380.51842
     13       2.00000        -103.449191        -2814.99570
     14       2.00000        -103.449191        -2814.99570
     15       2.00000        -103.449179        -2814.99539
     16       2.00000        -103.449179        -2814.99539
     17       2.00000        -103.449179        -2814.99539
     18       2.00000        -103.449179        -2814.99539
     19       2.00000         -81.365073        -2214.05628
     20       2.00000         -81.365073        -2214.05628
     21       2.00000         -81.365073        -2214.05628
     22       2.00000         -81.365073        -2214.05628
     23       2.00000         -81.365073        -2214.05628
     24       2.00000         -81.365073        -2214.05628
     25       2.00000         -81.365068        -2214.05616
     26       2.00000         -81.365068        -2214.05616
     27       2.00000         -81.365066        -2214.05610
     28       2.00000         -81.365066        -2214.05610
     29       2.00000         -26.843957         -730.46125
     30       2.00000         -26.843957         -730.46125
     31       2.00000         -20.076121         -546.29904
     32       2.00000         -20.076121         -546.29904
     33       2.00000         -20.076055         -546.29726
     34       2.00000         -20.076055         -546.29726
     35       2.00000         -20.076055         -546.29726
     36       2.00000         -20.076055         -546.29726
     37       2.00000         -11.975500         -325.86994
     38       2.00000         -11.975500         -325.86994
     39       2.00000         -11.975479         -325.86935
     40       2.00000         -11.975479         -325.86935
     41       2.00000         -11.975479         -325.86935
     42       2.00000         -11.975479         -325.86935
     43       2.00000         -11.975427         -325.86794
     44       2.00000         -11.975427         -325.86794
     45       2.00000         -11.975427         -325.86794
     46       2.00000         -11.975427         -325.86794
     47       2.00000          -3.974729         -108.15789
     48       2.00000          -3.974689         -108.15678
     49       2.00000          -2.985895          -81.25035
     50       2.00000          -2.985888          -81.25015
     51       2.00000          -2.985879          -81.24990
     52       2.00000          -2.985879          -81.24990
     53       2.00000          -2.985876          -81.24983
     54       2.00000          -2.985876          -81.24983
     55       2.00000          -2.985841          -81.24888
     56       2.00000          -2.985841          -81.24888
     57       2.00000          -2.985841          -81.24887
     58       2.00000          -2.985841          -81.24886
     59       2.00000          -2.985791          -81.24750
     60       2.00000          -2.985791          -81.24750
     61       2.00000          -2.985791          -81.24750
     62       2.00000          -2.985791          -81.24750
     63       2.00000          -2.191432          -59.63190
     64       2.00000          -2.190206          -59.59853
     65       2.00000          -2.190206          -59.59853
     66       2.00000          -2.190095          -59.59551
     67       2.00000          -2.190095          -59.59551
     68       2.00000          -2.190059          -59.59454
     69       2.00000          -0.285756           -7.77581
     70       2.00000          -0.263246           -7.16328
     71       2.00000          -0.263246           -7.16328
     72       2.00000          -0.251799           -6.85181
     73       2.00000          -0.251799           -6.85179
     74       2.00000          -0.247537           -6.73584
     75       2.00000          -0.247537           -6.73583
     76       2.00000          -0.239377           -6.51377
     77       2.00000          -0.239377           -6.51377
     78       2.00000          -0.237517           -6.46316
     79       2.00000          -0.233144           -6.34418
     80       0.00000          -0.168656           -4.58937
     81       0.00000          -0.005803           -0.15790
     82       0.00000           0.000752            0.02047
     83       0.00000           0.000752            0.02047
     84       0.00000           0.061595            1.67607
     85       0.00000           0.061595            1.67607
     86       0.00000           0.147106            4.00297
     87       0.00000           0.213220            5.80201
     88       0.00000           0.221644            6.03125
     89       0.00000           0.221758            6.03435
     90       0.00000           0.253581            6.90029
     91       0.00000           0.253581            6.90029
     92       0.00000           0.283955            7.72682
     93       0.00000           0.289863            7.88757
     94       0.00000           0.289918            7.88908
     95       0.00000           0.361206            9.82892
     96       0.00000           0.372795           10.14427
     97       0.00000           0.372795           10.14427

  Highest occupied state (VBM) at     -6.34418132 eV
  | Occupation number:      2.00000000

  Lowest unoccupied state (CBM) at    -4.58936816 eV
  | Occupation number:      0.00000000

  Overall HOMO-LUMO gap:      1.75481315 eV.
  Calculating total energy contributions from superposition of free atom densities.

  Total energy components:
  | Sum of eigenvalues            :      -24769.59085352 Ha     -674014.86062284 eV
  | XC energy correction          :        -735.80334023 Ha      -20022.22760745 eV
  | XC potential correction       :         962.43567407 Ha       26189.20718367 eV
  | Free-atom electrostatic energy:      -14826.62824479 Ha     -403453.08200753 eV
  | Hartree energy correction     :           0.00000000 Ha           0.00000000 eV
  | Entropy correction            :          -0.00000000 Ha          -0.00000000 eV
  | ---------------------------
  | Total energy                  :      -39369.58676447 Ha    -1071300.96305415 eV
  | Total energy, T -> 0          :      -39369.58676447 Ha    -1071300.96305415 eV  <-- do not rely on this value for anything but (periodic) metals
  | Electronic free energy        :      -39369.58676447 Ha    -1071300.96305415 eV

  Derived energy quantities:
  | Kinetic energy                :       44179.97647588 Ha     1202198.32708625 eV
  | Electrostatic energy          :      -82813.75990012 Ha    -2253477.06253295 eV
  | Energy correction for multipole
  | error in Hartree potential    :           0.00000000 Ha           0.00000000 eV
  | Sum of eigenvalues per atom                           :     -337007.43031142 eV
  | Total energy (T->0) per atom                          :     -535650.48152707 eV  <-- do not rely on this value for anything but (periodic) metals
  | Electronic free energy per atom                       :     -535650.48152707 eV
  Initialize hartree_potential_storage
  Max. number of atoms included in rho_multipole:            2

  End scf initialization - timings             :  max(cpu_time)    wall_clock(cpu1)
  | Time for scf. initialization               :        0.058 s           0.058 s
  | Boundary condition initialization          :        0.001 s           0.000 s
  | Integration                                :        0.021 s           0.020 s
  | Solution of K.-S. eqns.                    :        0.011 s           0.011 s
  | Grid partitioning                          :        0.016 s           0.016 s
  | Preloading free-atom quantities on grid    :        0.003 s           0.003 s
  | Free-atom superposition energy             :        0.002 s           0.001 s
  | Total energy evaluation                    :        0.001 s           0.001 s

  Partial memory accounting:
  | Current value for overall tracked memory usage:
  |   Minimum:        0.140 MB (on task 19)
  |   Maximum:        0.163 MB (on task  0)
  |   Average:        0.151 MB
  | Peak value for overall tracked memory usage:
  |   Minimum:        0.543 MB (on task 17 after allocating wave)
  |   Maximum:        0.574 MB (on task  2 after allocating wave)
  |   Average:        0.558 MB
  | Largest tracked array allocation so far:
  |   Minimum:        0.088 MB (H_times_psi on task  6)
  |   Maximum:        0.093 MB (H_times_psi on task  2)
  |   Average:        0.091 MB
  Note:  These values currently only include a subset of arrays which are explicitly tracked.
  The "true" memory usage will be greater.
------------------------------------------------------------

------------------------------------------------------------
          Begin self-consistency iteration #    1

  Date     :  20190902, Time     :  135131.854
------------------------------------------------------------
  Evaluating new KS density.
  Integration grid: deviation in total charge (<rho> - N_e) =   2.842171E-13
  Pulay mixing of updated and previous charge densities.
  Renormalizing the density to the exact electron count on the 3D integration grid.
  | Formal number of electrons (from input files) :     158.0000000000
  | Integrated number of electrons on 3D grid     :     158.0000000000
  | Charge integration error                      :      -0.0000000000
  | Normalization factor for density and gradient :       1.0000000000

  Evaluating partitioned Hartree potential by multipole expansion.
  | Original multipole sum: apparent total charge =  -0.918988E-13
  | Sum of charges compensated after spline to logarithmic grids =   0.514913E-06
  | Analytical far-field extrapolation by fixed multipoles:
  | Hartree multipole sum: apparent total charge =  -0.919039E-13
  Summing up the Hartree potential.
  Time summed over all CPUs for potential: real work        0.211 s, elapsed        0.214 s
  | RMS charge density error from multipole expansion :   0.120427E-03

  Integrating Hamiltonian matrix: batch-based integration.
  Time summed over all CPUs for integration: real work        0.247 s, elapsed        0.267 s

  Updating Kohn-Sham eigenvalues and eigenvectors using ELSI and the ELPA eigensolver.
  Starting ELPA eigensolver
  Finished transformation to standard eigenproblem
  | Time :     0.000 s
  Finished solving standard eigenproblem
  | Time :     0.002 s
  Finished back-transformation of eigenvectors
  | Time :     0.000 s

  Obtaining occupation numbers and chemical potential using ELSI.
  | Chemical potential (Fermi level):    -6.08222759 eV
  Writing Kohn-Sham eigenvalues.

  State    Occupation    Eigenvalue [Ha]    Eigenvalue [eV]
      1       2.00000       -3256.413158       -88611.51053
      2       2.00000       -3256.413158       -88611.51053
      3       2.00000        -533.654419       -14521.47557
      4       2.00000        -533.654419       -14521.47557
      5       2.00000        -460.386218       -12527.74639
      6       2.00000        -460.386218       -12527.74639
      7       2.00000        -460.386218       -12527.74639
      8       2.00000        -460.386218       -12527.74639
      9       2.00000        -460.386208       -12527.74611
     10       2.00000        -460.386208       -12527.74611
     11       2.00000        -124.233525        -3380.56623
     12       2.00000        -124.233525        -3380.56623
     13       2.00000        -103.450965        -2815.04398
     14       2.00000        -103.450965        -2815.04398
     15       2.00000        -103.450965        -2815.04398
     16       2.00000        -103.450965        -2815.04398
     17       2.00000        -103.450887        -2815.04187
     18       2.00000        -103.450887        -2815.04187
     19       2.00000         -81.366884        -2214.10556
     20       2.00000         -81.366884        -2214.10556
     21       2.00000         -81.366867        -2214.10512
     22       2.00000         -81.366867        -2214.10512
     23       2.00000         -81.366835        -2214.10423
     24       2.00000         -81.366835        -2214.10423
     25       2.00000         -81.366828        -2214.10404
     26       2.00000         -81.366828        -2214.10404
     27       2.00000         -81.366828        -2214.10404
     28       2.00000         -81.366828        -2214.10404
     29       2.00000         -26.845507         -730.50340
     30       2.00000         -26.845507         -730.50340
     31       2.00000         -20.077627         -546.34002
     32       2.00000         -20.077627         -546.34002
     33       2.00000         -20.077594         -546.33912
     34       2.00000         -20.077594         -546.33912
     35       2.00000         -20.077594         -546.33912
     36       2.00000         -20.077594         -546.33912
     37       2.00000         -11.977021         -325.91132
     38       2.00000         -11.977021         -325.91132
     39       2.00000         -11.976974         -325.91003
     40       2.00000         -11.976974         -325.91003
     41       2.00000         -11.976974         -325.91003
     42       2.00000         -11.976974         -325.91003
     43       2.00000         -11.976943         -325.90921
     44       2.00000         -11.976943         -325.90921
     45       2.00000         -11.976943         -325.90921
     46       2.00000         -11.976943         -325.90921
     47       2.00000          -3.975810         -108.18729
     48       2.00000          -3.975769         -108.18619
     49       2.00000          -2.987392          -81.29108
     50       2.00000          -2.987385          -81.29088
     51       2.00000          -2.987363          -81.29028
     52       2.00000          -2.987363          -81.29028
     53       2.00000          -2.987360          -81.29021
     54       2.00000          -2.987360          -81.29021
     55       2.00000          -2.987300          -81.28856
     56       2.00000          -2.987300          -81.28856
     57       2.00000          -2.987299          -81.28855
     58       2.00000          -2.987299          -81.28854
     59       2.00000          -2.987252          -81.28727
     60       2.00000          -2.987252          -81.28727
     61       2.00000          -2.987252          -81.28727
     62       2.00000          -2.987252          -81.28727
     63       2.00000          -2.192724          -59.66704
     64       2.00000          -2.191359          -59.62992
     65       2.00000          -2.190926          -59.61813
     66       2.00000          -2.190926          -59.61813
     67       2.00000          -2.190816          -59.61512
     68       2.00000          -2.190816          -59.61512
     69       2.00000          -0.285941           -7.78084
     70       2.00000          -0.263620           -7.17346
     71       2.00000          -0.263620           -7.17346
     72       2.00000          -0.251885           -6.85414
     73       2.00000          -0.251884           -6.85412
     74       2.00000          -0.247661           -6.73920
     75       2.00000          -0.247661           -6.73919
     76       2.00000          -0.240031           -6.53158
     77       2.00000          -0.240031           -6.53158
     78       2.00000          -0.238105           -6.47918
     79       2.00000          -0.232756           -6.33361
     80       0.00000          -0.169341           -4.60801
     81       0.00000          -0.006288           -0.17112
     82       0.00000           0.001258            0.03423
     83       0.00000           0.001258            0.03423
     84       0.00000           0.061722            1.67954
     85       0.00000           0.061722            1.67954
     86       0.00000           0.146892            3.99715
     87       0.00000           0.213601            5.81239
     88       0.00000           0.222141            6.04477
     89       0.00000           0.222255            6.04787
     90       0.00000           0.253603            6.90088
     91       0.00000           0.253603            6.90088
     92       0.00000           0.283905            7.72546
     93       0.00000           0.290082            7.89354
     94       0.00000           0.290138            7.89505
     95       0.00000           0.360850            9.81923
     96       0.00000           0.372818           10.14488
     97       0.00000           0.372818           10.14488

  Highest occupied state (VBM) at     -6.33361348 eV
  | Occupation number:      2.00000000

  Lowest unoccupied state (CBM) at    -4.60801371 eV
  | Occupation number:      0.00000000

  Overall HOMO-LUMO gap:      1.72559977 eV.

  Total energy components:
  | Sum of eigenvalues            :      -24769.80944978 Ha     -674020.80892961 eV
  | XC energy correction          :        -735.79575953 Ha      -20022.02132611 eV
  | XC potential correction       :         962.42571041 Ha       26188.93605869 eV
  | Free-atom electrostatic energy:      -14826.62824479 Ha     -403453.08200753 eV
  | Hartree energy correction     :           0.22255932 Ha           6.05614716 eV
  | Entropy correction            :          -0.00000000 Ha          -0.00000000 eV
  | ---------------------------
  | Total energy                  :      -39369.58518437 Ha    -1071300.92005741 eV
  | Total energy, T -> 0          :      -39369.58518437 Ha    -1071300.92005741 eV  <-- do not rely on this value for anything but (periodic) metals
  | Electronic free energy        :      -39369.58518437 Ha    -1071300.92005741 eV

  Derived energy quantities:
  | Kinetic energy                :       44179.89575559 Ha     1202196.13057517 eV
  | Electrostatic energy          :      -82813.68518042 Ha    -2253475.02930648 eV
  | Energy correction for multipole
  | error in Hartree potential    :          -0.00003485 Ha          -0.00094823 eV
  | Sum of eigenvalues per atom                           :     -337010.40446481 eV
  | Total energy (T->0) per atom                          :     -535650.46002871 eV  <-- do not rely on this value for anything but (periodic) metals
  | Electronic free energy per atom                       :     -535650.46002871 eV

  Self-consistency convergence accuracy:
  | Change of charge density      :  0.8313E-01
  | Change of sum of eigenvalues  : -0.5948E+01 eV
  | Change of total energy        :  0.4300E-01 eV

  End self-consistency iteration #     1       :  max(cpu_time)    wall_clock(cpu1)
  | Time for this iteration                    :        0.050 s           0.050 s
  | Charge density update                      :        0.016 s           0.016 s
  | Density mixing                             :        0.001 s           0.000 s
  | Hartree multipole update                   :        0.005 s           0.004 s
  | Hartree multipole summation                :        0.012 s           0.011 s
  | Integration                                :        0.014 s           0.014 s
  | Solution of K.-S. eqns.                    :        0.004 s           0.004 s
  | Total energy evaluation                    :        0.001 s           0.000 s

  Partial memory accounting:
  | Current value for overall tracked memory usage:
  |   Minimum:        0.140 MB (on task 19)
  |   Maximum:        0.163 MB (on task  0)
  |   Average:        0.151 MB
  | Peak value for overall tracked memory usage:
  |   Minimum:        0.543 MB (on task 17 after allocating wave)
  |   Maximum:        0.574 MB (on task  2 after allocating wave)
  |   Average:        0.558 MB
  | Largest tracked array allocation so far:
  |   Minimum:        0.264 MB (gradient_basis_wave on task  6)
  |   Maximum:        0.279 MB (gradient_basis_wave on task  2)
  |   Average:        0.273 MB
  Note:  These values currently only include a subset of arrays which are explicitly tracked.
  The "true" memory usage will be greater.
------------------------------------------------------------

------------------------------------------------------------
          Begin self-consistency iteration #    2

  Date     :  20190902, Time     :  135131.905
------------------------------------------------------------
  Evaluating new KS density.
  Integration grid: deviation in total charge (<rho> - N_e) =   2.842171E-13
  Pulay mixing of updated and previous charge densities.
  Renormalizing the density to the exact electron count on the 3D integration grid.
  | Formal number of electrons (from input files) :     158.0000000000
  | Integrated number of electrons on 3D grid     :     158.0000000000
  | Charge integration error                      :       0.0000000000
  | Normalization factor for density and gradient :       1.0000000000

  Evaluating partitioned Hartree potential by multipole expansion.
  | Original multipole sum: apparent total charge =  -0.190574E-12
  | Sum of charges compensated after spline to logarithmic grids =   0.561938E-05
  | Analytical far-field extrapolation by fixed multipoles:
  | Hartree multipole sum: apparent total charge =  -0.190608E-12
  Summing up the Hartree potential.
  Time summed over all CPUs for potential: real work        0.209 s, elapsed        0.212 s
  | RMS charge density error from multipole expansion :   0.107343E-02

  Integrating Hamiltonian matrix: batch-based integration.
  Time summed over all CPUs for integration: real work        0.247 s, elapsed        0.267 s

  Updating Kohn-Sham eigenvalues and eigenvectors using ELSI and the ELPA eigensolver.
  Starting ELPA eigensolver
  Finished transformation to standard eigenproblem
  | Time :     0.001 s
  Finished solving standard eigenproblem
  | Time :     0.001 s
  Finished back-transformation of eigenvectors
  | Time :     0.000 s

  Obtaining occupation numbers and chemical potential using ELSI.
  | Chemical potential (Fermi level):    -6.06929035 eV
  Highest occupied state (VBM) at     -6.24565366 eV
  | Occupation number:      2.00000000

  Lowest unoccupied state (CBM) at    -4.73638884 eV
  | Occupation number:      0.00000000

  Overall HOMO-LUMO gap:      1.50926482 eV.

  Checking to see if s.c.f. parameters should be adjusted.
  The system likely has a gap. Increased the default Pulay mixing parameter (charge_mix_param). Value:   0.200000 .
  Kept the default occupation width. Value:   0.010000 eV.

  Total energy components:
  | Sum of eigenvalues            :      -24771.33458609 Ha     -674062.31000027 eV
  | XC energy correction          :        -735.74307572 Ha      -20020.58772668 eV
  | XC potential correction       :         962.35648455 Ha       26187.05232719 eV
  | Free-atom electrostatic energy:      -14826.62824479 Ha     -403453.08200753 eV
  | Hartree energy correction     :           1.76928363 Ha          48.14465725 eV
  | Entropy correction            :          -0.00000000 Ha          -0.00000000 eV
  | ---------------------------
  | Total energy                  :      -39369.58013842 Ha    -1071300.78275003 eV
  | Total energy, T -> 0          :      -39369.58013842 Ha    -1071300.78275003 eV  <-- do not rely on this value for anything but (periodic) metals
  | Electronic free energy        :      -39369.58013842 Ha    -1071300.78275003 eV

  Derived energy quantities:
  | Kinetic energy                :       44179.32805951 Ha     1202180.68277901 eV
  | Electrostatic energy          :      -82813.16512221 Ha    -2253460.87780237 eV
  | Energy correction for multipole
  | error in Hartree potential    :          -0.00032511 Ha          -0.00884667 eV
  | Sum of eigenvalues per atom                           :     -337031.15500013 eV
  | Total energy (T->0) per atom                          :     -535650.39137502 eV  <-- do not rely on this value for anything but (periodic) metals
  | Electronic free energy per atom                       :     -535650.39137502 eV

  Self-consistency convergence accuracy:
  | Change of charge density      :  0.7460E-01
  | Change of sum of eigenvalues  : -0.4150E+02 eV
  | Change of total energy        :  0.1373E+00 eV

  End self-consistency iteration #     2       :  max(cpu_time)    wall_clock(cpu1)
  | Time for this iteration                    :        0.049 s           0.048 s
  | Charge density update                      :        0.015 s           0.014 s
  | Density mixing                             :        0.001 s           0.001 s
  | Hartree multipole update                   :        0.005 s           0.004 s
  | Hartree multipole summation                :        0.011 s           0.011 s
  | Integration                                :        0.014 s           0.014 s
  | Solution of K.-S. eqns.                    :        0.004 s           0.003 s
  | Total energy evaluation                    :        0.000 s           0.000 s

  Partial memory accounting:
  | Current value for overall tracked memory usage:
  |   Minimum:        0.140 MB (on task 19)
  |   Maximum:        0.164 MB (on task  0)
  |   Average:        0.151 MB
  | Peak value for overall tracked memory usage:
  |   Minimum:        0.543 MB (on task 17 after allocating wave)
  |   Maximum:        0.574 MB (on task  2 after allocating wave)
  |   Average:        0.558 MB
  | Largest tracked array allocation so far:
  |   Minimum:        0.264 MB (gradient_basis_wave on task  6)
  |   Maximum:        0.279 MB (gradient_basis_wave on task  2)
  |   Average:        0.273 MB
  Note:  These values currently only include a subset of arrays which are explicitly tracked.
  The "true" memory usage will be greater.
------------------------------------------------------------

------------------------------------------------------------
          Begin self-consistency iteration #    3

  Date     :  20190902, Time     :  135131.953
------------------------------------------------------------
  Evaluating new KS density.
  Integration grid: deviation in total charge (<rho> - N_e) =   2.273737E-13
  Pulay mixing of updated and previous charge densities.
  Renormalizing the density to the exact electron count on the 3D integration grid.
  | Formal number of electrons (from input files) :     158.0000000000
  | Integrated number of electrons on 3D grid     :     158.0000000000
  | Charge integration error                      :       0.0000000000
  | Normalization factor for density and gradient :       1.0000000000

  Evaluating partitioned Hartree potential by multipole expansion.
  | Original multipole sum: apparent total charge =  -0.510040E-13
  | Sum of charges compensated after spline to logarithmic grids =   0.128275E-04
  | Analytical far-field extrapolation by fixed multipoles:
  | Hartree multipole sum: apparent total charge =  -0.509951E-13
  Summing up the Hartree potential.
  Time summed over all CPUs for potential: real work        0.209 s, elapsed        0.212 s
  | RMS charge density error from multipole expansion :   0.158582E-02

  Integrating Hamiltonian matrix: batch-based integration.
  Time summed over all CPUs for integration: real work        0.247 s, elapsed        0.268 s

  Updating Kohn-Sham eigenvalues and eigenvectors using ELSI and the ELPA eigensolver.
  Starting ELPA eigensolver
  Finished transformation to standard eigenproblem
  | Time :     0.001 s
  Finished solving standard eigenproblem
  | Time :     0.001 s
  Finished back-transformation of eigenvectors
  | Time :     0.000 s

  Obtaining occupation numbers and chemical potential using ELSI.
  | Chemical potential (Fermi level):    -6.06307545 eV
  Highest occupied state (VBM) at     -6.23565145 eV
  | Occupation number:      2.00000000

  Lowest unoccupied state (CBM) at    -4.73080823 eV
  | Occupation number:      0.00000000

  Overall HOMO-LUMO gap:      1.50484323 eV.

  Total energy components:
  | Sum of eigenvalues            :      -24771.21823507 Ha     -674059.14392786 eV
  | XC energy correction          :        -735.74682226 Ha      -20020.68967527 eV
  | XC potential correction       :         962.36158890 Ha       26187.19122350 eV
  | Free-atom electrostatic energy:      -14826.62824479 Ha     -403453.08200753 eV
  | Hartree energy correction     :           1.65179902 Ha          44.94773822 eV
  | Entropy correction            :          -0.00000000 Ha          -0.00000000 eV
  | ---------------------------
  | Total energy                  :      -39369.57991421 Ha    -1071300.77664894 eV
  | Total energy, T -> 0          :      -39369.57991421 Ha    -1071300.77664894 eV  <-- do not rely on this value for anything but (periodic) metals
  | Electronic free energy        :      -39369.57991421 Ha    -1071300.77664894 eV

  Derived energy quantities:
  | Kinetic energy                :       44179.49538437 Ha     1202185.23592007 eV
  | Electrostatic energy          :      -82813.32847631 Ha    -2253465.32289374 eV
  | Energy correction for multipole
  | error in Hartree potential    :          -0.00063565 Ha          -0.01729704 eV
  | Sum of eigenvalues per atom                           :     -337029.57196393 eV
  | Total energy (T->0) per atom                          :     -535650.38832447 eV  <-- do not rely on this value for anything but (periodic) metals
  | Electronic free energy per atom                       :     -535650.38832447 eV

  Self-consistency convergence accuracy:
  | Change of charge density      :  0.2655E-01
  | Change of sum of eigenvalues  :  0.3166E+01 eV
  | Change of total energy        :  0.6101E-02 eV

  End self-consistency iteration #     3       :  max(cpu_time)    wall_clock(cpu1)
  | Time for this iteration                    :        0.049 s           0.049 s
  | Charge density update                      :        0.015 s           0.015 s
  | Density mixing                             :        0.001 s           0.001 s
  | Hartree multipole update                   :        0.005 s           0.004 s
  | Hartree multipole summation                :        0.011 s           0.011 s
  | Integration                                :        0.014 s           0.014 s
  | Solution of K.-S. eqns.                    :        0.004 s           0.003 s
  | Total energy evaluation                    :        0.000 s           0.000 s

  Partial memory accounting:
  | Current value for overall tracked memory usage:
  |   Minimum:        0.140 MB (on task 19)
  |   Maximum:        0.164 MB (on task  0)
  |   Average:        0.151 MB
  | Peak value for overall tracked memory usage:
  |   Minimum:        0.543 MB (on task 17 after allocating wave)
  |   Maximum:        0.574 MB (on task  2 after allocating wave)
  |   Average:        0.558 MB
  | Largest tracked array allocation so far:
  |   Minimum:        0.264 MB (gradient_basis_wave on task  6)
  |   Maximum:        0.279 MB (gradient_basis_wave on task  2)
  |   Average:        0.273 MB
  Note:  These values currently only include a subset of arrays which are explicitly tracked.
  The "true" memory usage will be greater.
------------------------------------------------------------

------------------------------------------------------------
          Begin self-consistency iteration #    4

  Date     :  20190902, Time     :  135132.002
------------------------------------------------------------
  Evaluating new KS density.
  Integration grid: deviation in total charge (<rho> - N_e) =   2.557954E-13
  Pulay mixing of updated and previous charge densities.
  Renormalizing the density to the exact electron count on the 3D integration grid.
  | Formal number of electrons (from input files) :     158.0000000000
  | Integrated number of electrons on 3D grid     :     158.0000000000
  | Charge integration error                      :       0.0000000000
  | Normalization factor for density and gradient :       1.0000000000

  Evaluating partitioned Hartree potential by multipole expansion.
  | Original multipole sum: apparent total charge =  -0.105613E-12
  | Sum of charges compensated after spline to logarithmic grids =   0.190028E-04
  | Analytical far-field extrapolation by fixed multipoles:
  | Hartree multipole sum: apparent total charge =  -0.105538E-12
  Summing up the Hartree potential.
  Time summed over all CPUs for potential: real work        0.209 s, elapsed        0.213 s
  | RMS charge density error from multipole expansion :   0.191509E-02

  Integrating Hamiltonian matrix: batch-based integration.
  Time summed over all CPUs for integration: real work        0.247 s, elapsed        0.268 s

  Updating Kohn-Sham eigenvalues and eigenvectors using ELSI and the ELPA eigensolver.
  Starting ELPA eigensolver
  Finished transformation to standard eigenproblem
  | Time :     0.001 s
  Finished solving standard eigenproblem
  | Time :     0.001 s
  Finished back-transformation of eigenvectors
  | Time :     0.000 s

  Obtaining occupation numbers and chemical potential using ELSI.
  | Chemical potential (Fermi level):    -6.04907770 eV
  Highest occupied state (VBM) at     -6.21704769 eV
  | Occupation number:      2.00000000

  Lowest unoccupied state (CBM) at    -4.70939274 eV
  | Occupation number:      0.00000000

  Overall HOMO-LUMO gap:      1.50765496 eV.

  Total energy components:
  | Sum of eigenvalues            :      -24770.80974927 Ha     -674048.02846366 eV
  | XC energy correction          :        -735.75684645 Ha      -20020.96244713 eV
  | XC potential correction       :         962.37493749 Ha       26187.55445727 eV
  | Free-atom electrostatic energy:      -14826.62824479 Ha     -403453.08200753 eV
  | Hartree energy correction     :           1.24004197 Ha          33.74325895 eV
  | Entropy correction            :          -0.00000000 Ha          -0.00000000 eV
  | ---------------------------
  | Total energy                  :      -39369.57986104 Ha    -1071300.77520208 eV
  | Total energy, T -> 0          :      -39369.57986104 Ha    -1071300.77520208 eV  <-- do not rely on this value for anything but (periodic) metals
  | Electronic free energy        :      -39369.57986104 Ha    -1071300.77520208 eV

  Derived energy quantities:
  | Kinetic energy                :       44179.69879393 Ha     1202190.77097580 eV
  | Electrostatic energy          :      -82813.52180852 Ha    -2253470.58373076 eV
  | Energy correction for multipole
  | error in Hartree potential    :          -0.00086496 Ha          -0.02353668 eV
  | Sum of eigenvalues per atom                           :     -337024.01423183 eV
  | Total energy (T->0) per atom                          :     -535650.38760104 eV  <-- do not rely on this value for anything but (periodic) metals
  | Electronic free energy per atom                       :     -535650.38760104 eV

  Self-consistency convergence accuracy:
  | Change of charge density      :  0.1332E-01
  | Change of sum of eigenvalues  :  0.1112E+02 eV
  | Change of total energy        :  0.1447E-02 eV

  End self-consistency iteration #     4       :  max(cpu_time)    wall_clock(cpu1)
  | Time for this iteration                    :        0.049 s           0.049 s
  | Charge density update                      :        0.015 s           0.015 s
  | Density mixing                             :        0.001 s           0.001 s
  | Hartree multipole update                   :        0.004 s           0.004 s
  | Hartree multipole summation                :        0.011 s           0.011 s
  | Integration                                :        0.014 s           0.014 s
  | Solution of K.-S. eqns.                    :        0.004 s           0.003 s
  | Total energy evaluation                    :        0.000 s           0.000 s

  Partial memory accounting:
  | Current value for overall tracked memory usage:
  |   Minimum:        0.140 MB (on task 19)
  |   Maximum:        0.164 MB (on task  0)
  |   Average:        0.151 MB
  | Peak value for overall tracked memory usage:
  |   Minimum:        0.543 MB (on task 17 after allocating wave)
  |   Maximum:        0.574 MB (on task  2 after allocating wave)
  |   Average:        0.558 MB
  | Largest tracked array allocation so far:
  |   Minimum:        0.264 MB (gradient_basis_wave on task  6)
  |   Maximum:        0.279 MB (gradient_basis_wave on task  2)
  |   Average:        0.273 MB
  Note:  These values currently only include a subset of arrays which are explicitly tracked.
  The "true" memory usage will be greater.
------------------------------------------------------------

------------------------------------------------------------
          Begin self-consistency iteration #    5

  Date     :  20190902, Time     :  135132.051
------------------------------------------------------------
  Evaluating new KS density.
  Integration grid: deviation in total charge (<rho> - N_e) =   2.842171E-13
  Pulay mixing of updated and previous charge densities.
  Renormalizing the density to the exact electron count on the 3D integration grid.
  | Formal number of electrons (from input files) :     158.0000000000
  | Integrated number of electrons on 3D grid     :     158.0000000000
  | Charge integration error                      :       0.0000000000
  | Normalization factor for density and gradient :       1.0000000000

  Evaluating partitioned Hartree potential by multipole expansion.
  | Original multipole sum: apparent total charge =  -0.445657E-13
  | Sum of charges compensated after spline to logarithmic grids =   0.214659E-04
  | Analytical far-field extrapolation by fixed multipoles:
  | Hartree multipole sum: apparent total charge =  -0.446132E-13
  Summing up the Hartree potential.
  Time summed over all CPUs for potential: real work        0.209 s, elapsed        0.212 s
  | RMS charge density error from multipole expansion :   0.199615E-02

  Integrating Hamiltonian matrix: batch-based integration.
  Time summed over all CPUs for integration: real work        0.248 s, elapsed        0.268 s

  Updating Kohn-Sham eigenvalues and eigenvectors using ELSI and the ELPA eigensolver.
  Starting ELPA eigensolver
  Finished transformation to standard eigenproblem
  | Time :     0.001 s
  Finished solving standard eigenproblem
  | Time :     0.001 s
  Finished back-transformation of eigenvectors
  | Time :     0.000 s

  Obtaining occupation numbers and chemical potential using ELSI.
  | Chemical potential (Fermi level):    -6.03381369 eV
  Highest occupied state (VBM) at     -6.19355955 eV
  | Occupation number:      2.00000000

  Lowest unoccupied state (CBM) at    -4.69300963 eV
  | Occupation number:      0.00000000

  Overall HOMO-LUMO gap:      1.50054991 eV.

  Total energy components:
  | Sum of eigenvalues            :      -24770.46695356 Ha     -674038.70051777 eV
  | XC energy correction          :        -735.76330823 Ha      -20021.13828111 eV
  | XC potential correction       :         962.38351437 Ha       26187.78784594 eV
  | Free-atom electrostatic energy:      -14826.62824479 Ha     -403453.08200753 eV
  | Hartree energy correction     :           0.89515789 Ha          24.35848551 eV
  | Entropy correction            :          -0.00000000 Ha          -0.00000000 eV
  | ---------------------------
  | Total energy                  :      -39369.57983431 Ha    -1071300.77447497 eV
  | Total energy, T -> 0          :      -39369.57983431 Ha    -1071300.77447497 eV  <-- do not rely on this value for anything but (periodic) metals
  | Electronic free energy        :      -39369.57983431 Ha    -1071300.77447497 eV

  Derived energy quantities:
  | Kinetic energy                :       44179.78173815 Ha     1202193.02800275 eV
  | Electrostatic energy          :      -82813.59826423 Ha    -2253472.66419660 eV
  | Energy correction for multipole
  | error in Hartree potential    :          -0.00094882 Ha          -0.02581872 eV
  | Sum of eigenvalues per atom                           :     -337019.35025888 eV
  | Total energy (T->0) per atom                          :     -535650.38723748 eV  <-- do not rely on this value for anything but (periodic) metals
  | Electronic free energy per atom                       :     -535650.38723748 eV

  Self-consistency convergence accuracy:
  | Change of charge density      :  0.6352E-02
  | Change of sum of eigenvalues  :  0.9328E+01 eV
  | Change of total energy        :  0.7271E-03 eV

  End self-consistency iteration #     5       :  max(cpu_time)    wall_clock(cpu1)
  | Time for this iteration                    :        0.049 s           0.049 s
  | Charge density update                      :        0.015 s           0.015 s
  | Density mixing                             :        0.001 s           0.001 s
  | Hartree multipole update                   :        0.005 s           0.004 s
  | Hartree multipole summation                :        0.011 s           0.011 s
  | Integration                                :        0.014 s           0.014 s
  | Solution of K.-S. eqns.                    :        0.004 s           0.003 s
  | Total energy evaluation                    :        0.000 s           0.000 s

  Partial memory accounting:
  | Current value for overall tracked memory usage:
  |   Minimum:        0.141 MB (on task 19)
  |   Maximum:        0.164 MB (on task  0)
  |   Average:        0.151 MB
  | Peak value for overall tracked memory usage:
  |   Minimum:        0.543 MB (on task 17 after allocating wave)
  |   Maximum:        0.574 MB (on task  2 after allocating wave)
  |   Average:        0.558 MB
  | Largest tracked array allocation so far:
  |   Minimum:        0.264 MB (gradient_basis_wave on task  6)
  |   Maximum:        0.279 MB (gradient_basis_wave on task  2)
  |   Average:        0.273 MB
  Note:  These values currently only include a subset of arrays which are explicitly tracked.
  The "true" memory usage will be greater.
------------------------------------------------------------

------------------------------------------------------------
          Begin self-consistency iteration #    6

  Date     :  20190902, Time     :  135132.100
------------------------------------------------------------
  Evaluating new KS density.
  Integration grid: deviation in total charge (<rho> - N_e) =   2.842171E-13
  Pulay mixing of updated and previous charge densities.
  Renormalizing the density to the exact electron count on the 3D integration grid.
  | Formal number of electrons (from input files) :     158.0000000000
  | Integrated number of electrons on 3D grid     :     158.0000000000
  | Charge integration error                      :       0.0000000000
  | Normalization factor for density and gradient :       1.0000000000

  Evaluating partitioned Hartree potential by multipole expansion.
  | Original multipole sum: apparent total charge =  -0.119207E-12
  | Sum of charges compensated after spline to logarithmic grids =   0.215097E-04
  | Analytical far-field extrapolation by fixed multipoles:
  | Hartree multipole sum: apparent total charge =  -0.119212E-12
  Summing up the Hartree potential.
  Time summed over all CPUs for potential: real work        0.209 s, elapsed        0.213 s
  | RMS charge density error from multipole expansion :   0.206436E-02

  Integrating Hamiltonian matrix: batch-based integration.
  Time summed over all CPUs for integration: real work        0.247 s, elapsed        0.266 s

  Updating Kohn-Sham eigenvalues and eigenvectors using ELSI and the ELPA eigensolver.
  Starting ELPA eigensolver
  Finished transformation to standard eigenproblem
  | Time :     0.000 s
  Finished solving standard eigenproblem
  | Time :     0.001 s
  Finished back-transformation of eigenvectors
  | Time :     0.001 s

  Obtaining occupation numbers and chemical potential using ELSI.
  | Chemical potential (Fermi level):    -6.02801457 eV
  Highest occupied state (VBM) at     -6.18509232 eV
  | Occupation number:      2.00000000

  Lowest unoccupied state (CBM) at    -4.68623685 eV
  | Occupation number:      0.00000000

  Overall HOMO-LUMO gap:      1.49885547 eV.

  Total energy components:
  | Sum of eigenvalues            :      -24770.41244724 Ha     -674037.21732534 eV
  | XC energy correction          :        -735.76363376 Ha      -20021.14713935 eV
  | XC potential correction       :         962.38394468 Ha       26187.79955541 eV
  | Free-atom electrostatic energy:      -14826.62824479 Ha     -403453.08200753 eV
  | Hartree energy correction     :           0.84054646 Ha          22.87243279 eV
  | Entropy correction            :          -0.00000000 Ha          -0.00000000 eV
  | ---------------------------
  | Total energy                  :      -39369.57983465 Ha    -1071300.77448402 eV
  | Total energy, T -> 0          :      -39369.57983465 Ha    -1071300.77448402 eV  <-- do not rely on this value for anything but (periodic) metals
  | Electronic free energy        :      -39369.57983465 Ha    -1071300.77448402 eV

  Derived energy quantities:
  | Kinetic energy                :       44179.75421421 Ha     1202192.27903839 eV
[...]

  Date     :  20190902, Time     :  135132.398
------------------------------------------------------------
  Evaluating new KS density.
  Integration grid: deviation in total charge (<rho> - N_e) =   2.557954E-13
  Pulay mixing of updated and previous charge densities.
  Renormalizing the density to the exact electron count on the 3D integration grid.
  | Formal number of electrons (from input files) :     158.0000000000
  | Integrated number of electrons on 3D grid     :     158.0000000000
  | Charge integration error                      :       0.0000000000
  | Normalization factor for density and gradient :       1.0000000000

  Evaluating partitioned Hartree potential by multipole expansion.
  | Original multipole sum: apparent total charge =  -0.129414E-12
  | Sum of charges compensated after spline to logarithmic grids =   0.213905E-04
  | Analytical far-field extrapolation by fixed multipoles:
  | Hartree multipole sum: apparent total charge =  -0.129393E-12
  Summing up the Hartree potential.
  Time summed over all CPUs for potential: real work        0.209 s, elapsed        0.212 s
  | RMS charge density error from multipole expansion :   0.206815E-02

  Integrating Hamiltonian matrix: batch-based integration.
  Time summed over all CPUs for integration: real work        0.247 s, elapsed        0.267 s

  Updating Kohn-Sham eigenvalues and eigenvectors using ELSI and the ELPA eigensolver.
  Starting ELPA eigensolver
  Finished transformation to standard eigenproblem
  | Time :     0.000 s
  Finished solving standard eigenproblem
  | Time :     0.002 s
  Finished back-transformation of eigenvectors
  | Time :     0.000 s

  Obtaining occupation numbers and chemical potential using ELSI.
  | Chemical potential (Fermi level):    -6.02652663 eV
  Highest occupied state (VBM) at     -6.18239151 eV
  | Occupation number:      2.00000000

  Lowest unoccupied state (CBM) at    -4.68451259 eV
  | Occupation number:      0.00000000

  Overall HOMO-LUMO gap:      1.49787892 eV.

  Total energy components:
  | Sum of eigenvalues            :      -24770.37308799 Ha     -674036.14630583 eV
  | XC energy correction          :        -735.76444918 Ha      -20021.16932800 eV
  | XC potential correction       :         962.38501751 Ha       26187.82874844 eV
  | Free-atom electrostatic energy:      -14826.62824479 Ha     -403453.08200753 eV
  | Hartree energy correction     :           0.80092888 Ha          21.79438361 eV
  | Entropy correction            :          -0.00000000 Ha          -0.00000000 eV
  | ---------------------------
  | Total energy                  :      -39369.57983558 Ha    -1071300.77450932 eV
  | Total energy, T -> 0          :      -39369.57983558 Ha    -1071300.77450932 eV  <-- do not rely on this value for anything but (periodic) metals
  | Electronic free energy        :      -39369.57983558 Ha    -1071300.77450932 eV

  Derived energy quantities:
  | Kinetic energy                :       44179.75783252 Ha     1202192.37749766 eV
  | Electrostatic energy          :      -82813.57321892 Ha    -2253471.98267898 eV
  | Energy correction for multipole
  | error in Hartree potential    :          -0.00105186 Ha          -0.02862258 eV
  | Sum of eigenvalues per atom                           :     -337018.07315292 eV
  | Total energy (T->0) per atom                          :     -535650.38725466 eV  <-- do not rely on this value for anything but (periodic) metals
  | Electronic free energy per atom                       :     -535650.38725466 eV

  Self-consistency convergence accuracy:
  | Change of charge density      :  0.5937E-07
  | Change of sum of eigenvalues  :  0.7974E-04 eV
  | Change of total energy        :  0.2772E-08 eV

  Writing Kohn-Sham eigenvalues.

  State    Occupation    Eigenvalue [Ha]    Eigenvalue [eV]
      1       2.00000       -3256.417929       -88611.64036
      2       2.00000       -3256.417929       -88611.64036
      3       2.00000        -533.659504       -14521.61395
      4       2.00000        -533.659504       -14521.61395
      5       2.00000        -460.391382       -12527.88692
      6       2.00000        -460.391382       -12527.88692
      7       2.00000        -460.391382       -12527.88692
      8       2.00000        -460.391382       -12527.88692
      9       2.00000        -460.391139       -12527.88029
     10       2.00000        -460.391139       -12527.88029
     11       2.00000        -124.238307        -3380.69635
     12       2.00000        -124.238307        -3380.69635
     13       2.00000        -103.456205        -2815.18658
     14       2.00000        -103.456205        -2815.18658
     15       2.00000        -103.456205        -2815.18658
     16       2.00000        -103.456205        -2815.18658
     17       2.00000        -103.454740        -2815.14671
     18       2.00000        -103.454740        -2815.14671
     19       2.00000         -81.372341        -2214.25405
     20       2.00000         -81.372341        -2214.25405
     21       2.00000         -81.372029        -2214.24556
     22       2.00000         -81.372029        -2214.24556
     23       2.00000         -81.371405        -2214.22859
     24       2.00000         -81.371405        -2214.22859
     25       2.00000         -81.371340        -2214.22683
     26       2.00000         -81.371340        -2214.22683
     27       2.00000         -81.371340        -2214.22683
     28       2.00000         -81.371340        -2214.22683
     29       2.00000         -26.849866         -730.62204
     30       2.00000         -26.849866         -730.62204
     31       2.00000         -20.082249         -546.46579
     32       2.00000         -20.082249         -546.46579
     33       2.00000         -20.082249         -546.46579
     34       2.00000         -20.082249         -546.46579
     35       2.00000         -20.081269         -546.43912
     36       2.00000         -20.081269         -546.43912
     37       2.00000         -11.981619         -326.03645
     38       2.00000         -11.981619         -326.03645
     39       2.00000         -11.981619         -326.03644
     40       2.00000         -11.981619         -326.03644
     41       2.00000         -11.981084         -326.02187
     42       2.00000         -11.981084         -326.02187
     43       2.00000         -11.980977         -326.01896
     44       2.00000         -11.980977         -326.01896
     45       2.00000         -11.980977         -326.01896
     46       2.00000         -11.980977         -326.01896
     47       2.00000          -3.978915         -108.27178
     48       2.00000          -3.978875         -108.27071
     49       2.00000          -2.991651          -81.40696
     50       2.00000          -2.991651          -81.40696
     51       2.00000          -2.991651          -81.40696
     52       2.00000          -2.991651          -81.40696
     53       2.00000          -2.991549          -81.40419
     54       2.00000          -2.991541          -81.40399
     55       2.00000          -2.991466          -81.40193
     56       2.00000          -2.991466          -81.40193
     57       2.00000          -2.991463          -81.40186
     58       2.00000          -2.991463          -81.40186
     59       2.00000          -2.991365          -81.39919
     60       2.00000          -2.991365          -81.39919
     61       2.00000          -2.991365          -81.39918
     62       2.00000          -2.991365          -81.39918
     63       2.00000          -2.199249          -59.84462
     64       2.00000          -2.197928          -59.80866
     65       2.00000          -2.191173          -59.62486
     66       2.00000          -2.191173          -59.62486
     67       2.00000          -2.191066          -59.62194
     68       2.00000          -2.191066          -59.62194
     69       2.00000          -0.287424           -7.82120
     70       2.00000          -0.264084           -7.18608
     71       2.00000          -0.264084           -7.18608
     72       2.00000          -0.248160           -6.75278
     73       2.00000          -0.248159           -6.75275
     74       2.00000          -0.244124           -6.64295
     75       2.00000          -0.244124           -6.64294
     76       2.00000          -0.242123           -6.58852
     77       2.00000          -0.242123           -6.58852
     78       2.00000          -0.240170           -6.53535
     79       2.00000          -0.227199           -6.18239
     80       0.00000          -0.172153           -4.68451
     81       0.00000          -0.008850           -0.24083
     82       0.00000           0.007012            0.19082
     83       0.00000           0.007012            0.19082
     84       0.00000           0.065079            1.77089
     85       0.00000           0.065079            1.77089
     86       0.00000           0.146669            3.99106
     87       0.00000           0.218380            5.94241
     88       0.00000           0.227869            6.20063
     89       0.00000           0.227984            6.20375
     90       0.00000           0.254870            6.93537
     91       0.00000           0.254870            6.93537
     92       0.00000           0.285891            7.77948
     93       0.00000           0.294086            8.00249
     94       0.00000           0.294142            8.00401
     95       0.00000           0.359121            9.77217
     96       0.00000           0.374866           10.20062
     97       0.00000           0.374866           10.20062

  Highest occupied state (VBM) at     -6.18239151 eV
  | Occupation number:      2.00000000

  Lowest unoccupied state (CBM) at    -4.68451259 eV
  | Occupation number:      0.00000000

  Overall HOMO-LUMO gap:      1.49787892 eV.

  Self-consistency cycle converged.

  End self-consistency iteration #    12       :  max(cpu_time)    wall_clock(cpu1)
  | Time for this iteration                    :        0.050 s           0.050 s
  | Charge density update                      :        0.015 s           0.015 s
  | Density mixing                             :        0.002 s           0.002 s
  | Hartree multipole update                   :        0.005 s           0.004 s
  | Hartree multipole summation                :        0.011 s           0.011 s
  | Integration                                :        0.014 s           0.013 s
  | Solution of K.-S. eqns.                    :        0.004 s           0.004 s
  | Total energy evaluation                    :        0.000 s           0.000 s

  Partial memory accounting:
  | Current value for overall tracked memory usage:
  |   Minimum:        0.141 MB (on task 19)
  |   Maximum:        0.164 MB (on task  0)
  |   Average:        0.151 MB
  | Peak value for overall tracked memory usage:
  |   Minimum:        0.543 MB (on task 17 after allocating wave)
  |   Maximum:        0.574 MB (on task  2 after allocating wave)
  |   Average:        0.558 MB
  | Largest tracked array allocation so far:
  |   Minimum:        0.264 MB (gradient_basis_wave on task  6)
  |   Maximum:        0.279 MB (gradient_basis_wave on task  2)
  |   Average:        0.273 MB
  Note:  These values currently only include a subset of arrays which are explicitly tracked.
  The "true" memory usage will be greater.
------------------------------------------------------------

  Energy and forces in a compact form:
  | Total energy uncorrected      :         -0.107130077450932E+07 eV
  | Total energy corrected        :         -0.107130077450932E+07 eV  <-- do not rely on this value for anything but (periodic) metals
  | Electronic free energy        :         -0.107130077450932E+07 eV

  ------------------------------------ 
  Start decomposition of the XC Energy 
  ------------------------------------ 
  X and C from original XC functional choice 
  Hartree-Fock Energy :          0.000000000 Ha              0.000000000 eV
  X Energy            :       -726.134933077 Ha         -19759.136862834 eV
  C Energy            :         -9.629516101 Ha           -262.032465165 eV
  Total XC Energy     :       -735.764449177 Ha         -20021.169327999 eV
  ------------------------------------ 
  LDA X and C from self-consistent density 
  X Energy LDA        :       -696.903112820 Ha         -18963.698562188 eV
  C Energy LDA        :        -16.535990464 Ha           -449.967194599 eV
  ------------------------------------ 
  End decomposition of the XC Energy 
  ------------------------------------ 

------------------------------------------------------------

  Starting with the calculation of the Wannier Centers:
  |------------------------------------------------------
  | Final ELSI Output
  |------------------------------------------------------
  |
  | Physical Properties
  |   Number of electrons       :        0.15800000E+03
  |   Number of spins           :                     1
  |   Number of k-points        :                     1
  |   Number of states          :                    61
  |
  | Matrix Properties
  |   Matrix format             :           BLACS_DENSE
  |   Number of basis functions :                    76
  |   Matrix sparsity           :        0.71468144E+00
  |
  | Computational Details
  |   Parallel mode             :            MULTI_PROC
  |   Number of MPI tasks       :                    20
  |   Solver requested          :                  ELPA
  |   Number of ELSI calls      :                    13
  |
  |------------------------------------------------------
  | ELSI Project (c)  elsi-interchange.org
  |------------------------------------------------------

------------------------------------------------------------------------------
  Final output of selected total energy values:

  The following output summarizes some interesting total energy values
  at the end of a run (AFTER all relaxation, molecular dynamics, etc.).

  | Total energy of the DFT / Hartree-Fock s.c.f. calculation      :       -1071300.774509317 eV
  | Final zero-broadening corrected energy (caution - metals only) :       -1071300.774509317 eV
  | For reference only, the value of 1 Hartree used in FHI-aims is :             27.211384500 eV

  Before relying on these values, please be sure to understand exactly which
  total energy value is referred to by a given number. Different objects may
  all carry the same name 'total energy'. Definitions:

  Total energy of the DFT / Hartree-Fock s.c.f. calculation:
  | Note that this energy does not include ANY quantities calculated after the
  | s.c.f. cycle, in particular not ANY RPA, MP2, etc. many-body perturbation terms.

  Final zero-broadening corrected energy:
  | For metallic systems only, a broadening of the occupation numbers at the Fermi
  | level can be extrapolated back to zero broadening by an electron-gas inspired
  | formula. For all systems that are not real metals, this value can be
  | meaningless and should be avoided.

------------------------------------------------------------------------------
  Methods described in the following list of references were used in this FHI-aims run.
  If you publish the results, please make sure to cite these reference if they apply.
  FHI-aims is an academic code, and for our developers (often, Ph.D. students
  and postdocs), scientific credit in the community is essential.
  Thank you for helping us!

  For any use of FHI-aims, please cite:

    Volker Blum, Ralf Gehrke, Felix Hanke, Paula Havu, Ville Havu,
    Xinguo Ren, Karsten Reuter, and Matthias Scheffler
    'Ab initio molecular simulations with numeric atom-centered orbitals'
    Computer Physics Communications 180, 2175-2196 (2009)
    http://dx.doi.org/10.1016/j.cpc.2009.06.022


  The ELSI infrastructure was used in your run to solve the Kohn-Sham electronic structure.
  Please check out http://elsi-interchange.org to learn more.
  If scalability is important for your project, please acknowledge ELSI by citing:

    V. W-z. Yu, F. Corsetti, A. Garcia, W. P. Huhn, M. Jacquelin, W. Jia,
    B. Lange, L. Lin, J. Lu, W. Mi, A. Seifitokaldani, A. Vazquez-Mayagoitia,
    C. Yang, H. Yang, and V. Blum
    'ELSI: A unified software interface for Kohn-Sham electronic structure solvers'
    Computer Physics Communications 222, 267-285 (2018).
    http://dx.doi.org/10.1016/j.cpc.2017.09.007


  For the real-space grid partitioning and parallelization used in this calculation, please cite:

    Ville Havu, Volker Blum, Paula Havu, and Matthias Scheffler,
    'Efficient O(N) integration for all-electron electronic structure calculation'
    'using numerically tabulated basis functions'
    Journal of Computational Physics 228, 8367-8379 (2009).
    http://dx.doi.org/10.1016/j.jcp.2009.08.008

  Of course, there are many other important community references, e.g., those cited in the
  above references. Our list is limited to references that describe implementations in the
  FHI-aims code. The reason is purely practical (length of this list) - please credit others as well.

 * A warning was issued further up regarding the accuracy of onsite integrals.
   An integral with a negative eigenvalue was among the flagged integrals.
   In most standard situations, this warning is probably harmless.
   If needed, this can be verified by adjusting the radial_multiplier flag.

------------------------------------------------------------
          Leaving FHI-aims.
          Date     :  20190902, Time     :  135132.454

          Computational steps:
          | Number of self-consistency cycles          :           12
          | Number of SCF (re)initializations          :            1

          Detailed time accounting                     :  max(cpu_time)    wall_clock(cpu1)
          | Total time                                 :        1.398 s           1.398 s
          | Preparation time                           :        0.676 s           0.675 s
          | Boundary condition initalization           :        0.001 s           0.000 s
          | Grid partitioning                          :        0.016 s           0.016 s
          | Preloading free-atom quantities on grid    :        0.003 s           0.003 s
          | Free-atom superposition energy             :        0.002 s           0.001 s
          | Total time for integrations                :        0.189 s           0.186 s
          | Total time for solution of K.-S. equations :        0.059 s           0.052 s
          | Total time for density update              :        0.183 s           0.178 s
          | Total time for mixing                      :        0.019 s           0.015 s
          | Total time for Hartree multipole update    :        0.057 s           0.049 s
          | Total time for Hartree multipole sum       :        0.133 s           0.131 s
          | Total time for total energy evaluation     :        0.003 s           0.003 s
          | Total time for scaled ZORA corrections     :        0.000 s           0.000 s

          Partial memory accounting:
          | Residual value for overall tracked memory usage across tasks:     0.000000 MB (should be 0.000000 MB)
          | Peak values for overall tracked memory usage:
          |   Minimum:        0.543 MB (on task 17 after allocating wave)
          |   Maximum:        0.574 MB (on task  2 after allocating wave)
          |   Average:        0.558 MB
          | Largest tracked array allocation:
          |   Minimum:        0.264 MB (gradient_basis_wave on task  6)
          |   Maximum:        0.279 MB (gradient_basis_wave on task  2)
          |   Average:        0.273 MB
          Note:  These values currently only include a subset of arrays which are explicitly tracked.
          The "true" memory usage will be greater.

          Have a nice day.
------------------------------------------------------------
