  MPI-parallelism will be employed.
------------------------------------------------------------
          Invoking FHI-aims ...
          Version 180101-
          Git rev. (modified): fa29f3a Merge branch master of fhiaims.rzberlin.mp[...]
          Compiled on 2018/01/19 at 14:47:46 on host theobook132.

          When using FHI-aims, please cite the following reference:

          Volker Blum, Ralf Gehrke, Felix Hanke, Paula Havu,
          Ville Havu, Xinguo Ren, Karsten Reuter, and Matthias Scheffler,
          'Ab Initio Molecular Simulations with Numeric Atom-Centered Orbitals',
          Computer Physics Communications 180, 2175-2196 (2009)

          For any questions about FHI-aims, please visit the aimsclub website
          with its forums and wiki. Contributions to both the forums and the
          wiki are warmly encouraged - they are for you, and everyone is welcome there.

------------------------------------------------------------



  Date     :  20180214, Time     :  163900.231
  Time zero on CPU 1             :   0.640000000000000E-01  s.
  Internal wall clock time zero  :           287858340.231  s.

  FHI-aims created a unique identifier for this run for later identification
  aims_uuid : B1A33B3F-0387-44E5-A1BE-CEA944751C73

  Using        8 parallel tasks.
  Task        0 on host theobook132 reporting.
  Task        1 on host theobook132 reporting.
  Task        2 on host theobook132 reporting.
  Task        3 on host theobook132 reporting.
  Task        4 on host theobook132 reporting.
  Task        5 on host theobook132 reporting.
  Task        6 on host theobook132 reporting.
  Task        7 on host theobook132 reporting.

  Performing system and environment tests:
  *** Environment variable OMP_NUM_THREADS is not set
  *** For performance reasons you might want to set it to 1
  | Stacksize not measured: no C compiler
  | Checking for scalapack...
  | No scalapack compiled in.

  Obtaining array dimensions for all initial allocations:
  
  -----------------------------------------------------------------------
  Parsing control.in (first pass over file, find array dimensions only).
  The contents of control.in will be repeated verbatim below
  unless switched off by setting 'verbatim_writeout .false.' .
  in the first line of control.in .
  -----------------------------------------------------------------------
  
  ################################################################################
  #
  #		Control.in generated by mkcontrol
  #
  ################################################################################
  xc			pbe
  vdw_correction_hirshfeld
  relativistic		none
  sc_accuracy_rho		1E-5
  sc_accuracy_eev		1E-3
  sc_accuracy_etot	1E-6
  sc_iter_limit		1000	
  
  compute_forces .true.
  final_forces_cleaned .true.
  
  ################################################################################
  #
  #  FHI-aims code project
  #  VB, Fritz-Haber Institut, 2009
  #
  #  Suggested "light" defaults for H atom (to be pasted into control.in file)
  #  Be sure to double-check any results obtained with these settings for post-processing,
  #  e.g., with the "tight" defaults and larger basis sets.
  #
  ################################################################################
    species        H
  #     global species definitions
      nucleus             1
      mass                1.00794
  #
      l_hartree           4
  #
      cut_pot             3.5  1.5  1.0
      basis_dep_cutoff    1e-4
  #
      radial_base         24 5.0
      radial_multiplier   1
      angular_grids       specified
        division   0.2421   50
        division   0.3822  110
        division   0.4799  194
        division   0.5341  302
  #      division   0.5626  434
  #      division   0.5922  590
  #      division   0.6542  770
  #      division   0.6868 1202
  #      outer_grid  770
        outer_grid  302
  ################################################################################
  #
  #  Definition of "minimal" basis
  #
  ################################################################################
  #     valence basis states
      valence      1  s   1.
  #     ion occupancy
      ion_occ      1  s   0.5
  ################################################################################
  #
  #  Suggested additional basis functions. For production calculations,
  #  uncomment them one after another (the most important basis functions are
  #  listed first).
  #
  #  Basis constructed for dimers: 0.5 A, 0.7 A, 1.0 A, 1.5 A, 2.5 A
  #
  ################################################################################
  #  "First tier" - improvements: -1014.90 meV to -62.69 meV
       hydro 2 s 2.1
       hydro 2 p 3.5
  #  "Second tier" - improvements: -12.89 meV to -1.83 meV
  #     hydro 1 s 0.85
  #     hydro 2 p 3.7
  #     hydro 2 s 1.2
  #     hydro 3 d 7
  #  "Third tier" - improvements: -0.25 meV to -0.12 meV
  #     hydro 4 f 11.2
  #     hydro 3 p 4.8
  #     hydro 4 d 9
  #     hydro 3 s 3.2
  
  ################################################################################
  #
  #  FHI-aims code project
  #  VB, Fritz-Haber Institut, 2009
  #
  #  Suggested "light" defaults for C atom (to be pasted into control.in file)
  #  Be sure to double-check any results obtained with these settings forpost-processing,
  #  e.g., with the "tight" defaults and larger basis sets.
  #
  ################################################################################
    species        C
  #     global species definitions
      nucleus             6
      mass                12.0107
  #
      l_hartree           4
  #
      cut_pot             3.5  1.5  1.0
      basis_dep_cutoff    1e-4
  #
      radial_base         34 5.0
      radial_multiplier   1
      angular_grids specified
        division   0.3326   50
        division   0.5710  110
        division   0.7727  194
        division   0.8772  302
  #      division   0.9334  434
  #      division   0.9625  590
  #      division   0.9924  770
  #      division   1.0230  974
  #      division   1.4589 1202
  #     outer_grid  974
       outer_grid 302
  ################################################################################
  #
  #  Definition of "minimal" basis
  #
  ################################################################################
  #     valence basis states
      valence      2  s   2.
      valence      2  p   2.
  #     ion occupancy
      ion_occ      2  s   1.
      ion_occ      2  p   1.
  ################################################################################
  #
  #  Suggested additional basis functions. For production calculations,
  #  uncomment them one after another (the most important basis functions are
  #  listed first).
  #
  #  Constructed for dimers: 1.0 A, 1.25 A, 1.5 A, 2.0 A, 3.0 A
  #
  ################################################################################
  #  "First tier" - improvements: -1214.57 meV to -155.61 meV
       hydro 2 p 1.7
       hydro 3 d 6
       hydro 2 s 4.9
  #  "Second tier" - improvements: -67.75 meV to -5.23 meV
  #     hydro 4 f 9.8
  #     hydro 3 p 5.2
  #     hydro 3 s 4.3
  #     hydro 5 g 14.4
  #     hydro 3 d 6.2
  #  "Third tier" - improvements: -2.43 meV to -0.60 meV
  #     hydro 2 p 5.6
  #     hydro 2 s 1.4
  #     hydro 3 d 4.9
  #     hydro 4 f 11.2
  #  "Fourth tier" - improvements: -0.39 meV to -0.18 meV
  #     hydro 2 p 2.1
  #     hydro 5 g 16.4
  #     hydro 4 d 13.2
  #     hydro 3 s 13.6
  #     hydro 4 f 17.6
  #  Further basis functions - improvements: -0.08 meV and below
  #     hydro 3 s 2
  #     hydro 3 p 6
  #     hydro 4 d 20
  
  -----------------------------------------------------------------------
  Completed first pass over input file control.in .
  -----------------------------------------------------------------------
  
  
  -----------------------------------------------------------------------
  Parsing geometry.in (first pass over file, find array dimensions only).
  The contents of geometry.in will be repeated verbatim below
  unless switched off by setting 'verbatim_writeout .false.' .
  in the first line of geometry.in .
  -----------------------------------------------------------------------
  
  #=======================================#
  # iterations/iteration0000/aims-chain-node-0.00000/geometry.in
  #=======================================#
  atom -1.9598172700000001 -0.0896205400000000 0.0000000000000000 C
  atom -0.5416951800000001 0.3924139000000000 0.0000000000000000 C
  atom 0.5416951800000001 -0.3924139000000000 0.0000000000000000 C
  atom 1.9598172700000001 0.0896205400000000 0.0000000000000000 C
  atom -2.0137072400000000 -1.1865034000000001 0.0000000000000000 H
  atom -2.5076681399999998 0.2781060200000000 -0.8817222900000000 H
  atom -2.5076681399999998 0.2781060200000000 0.8817222900000000 H
  atom -0.3987691800000000 1.4795309100000000 0.0000000000000000 H
  atom 0.3987691800000000 -1.4795309100000000 0.0000000000000000 H
  atom 2.0137072400000000 1.1865034000000001 0.0000000000000000 H
  atom 2.5076681399999998 -0.2781060200000000 0.8817222900000000 H
  atom 2.5076681399999998 -0.2781060200000000 -0.8817222900000000 H
  
  -----------------------------------------------------------------------
  Completed first pass over input file geometry.in .
  -----------------------------------------------------------------------
  

  Basic array size parameters:
  | Number of species                 :        2
  | Number of atoms                   :       12
  | Max. basis fn. angular momentum   :        2
  | Max. atomic/ionic basis occupied n:        2
  | Max. number of basis fn. types    :        2
  | Max. radial fns per species/type  :        3
  | Max. logarithmic grid size        :     1277
  | Max. radial integration grid size :       34
  | Max. angular integration grid size:      302
  | Max. angular grid division number :        8
  | Radial grid for Hartree potential :     1277
  | Number of spin channels           :        1

------------------------------------------------------------
          Reading file control.in.
------------------------------------------------------------
  XC: Using PBE gradient-corrected functionals.
  Non-relativistic treatment of kinetic energy.
  Convergence accuracy of self-consistent charge density:  0.1000E-04
  Convergence accuracy of sum of eigenvalues:  0.1000E-02
  Convergence accuracy of total energy:  0.1000E-05
  Maximum number of s.-c. iterations  :  1000
  Forces will be computed.
  Cleaning forces before final output.
 
  Reading configuration options for species H                   .
  | Found nuclear charge :   1.0000
  | Found atomic mass :    1.00794000000000      amu
  | Found l_max for Hartree potential  :   4
  | Found cutoff potl. onset [A], width [A], scale factor :    3.50000    1.50000    1.00000
  | Threshold for basis-dependent cutoff potential is   0.100000E-03
  | Found data for basic radial integration grid :    24 points, outermost radius =    5.000 A
  | Found multiplier for basic radial grid :   1
  | Found angular grid specification: user-specified.
  | Specified grid contains     5 separate shells.
  | Check grid settings after all constraints further below.
  | Found free-atom valence shell :  1 s   1.000
  | No ionic wave fns used. Skipping ion_occ.
  | Found hydrogenic basis function :  2 s   2.100
  | Found hydrogenic basis function :  2 p   3.500
  Species H                   : Missing cutoff potential type.
  Defaulting to exp(1/x)/(1-x)^2 type cutoff potential.
  Species H : No 'logarithmic' tag. Using default grid for free atom:
  | Default logarithmic grid data [bohr] : 0.1000E-03 0.1000E+03 0.1012E+01
  Species H : On-site basis accuracy parameter (for Gram-Schmidt orthonormalisation) not specified.
  Using default value basis_acc =  0.1000000E-03.
  Species H                   : Using default innermost maximum threshold i_radial=  2 for radial functions.
  Species H                   : Default cutoff onset for free atom density etc. : 0.35000000E+01 AA.
  Species H                   : Basic radial grid will be enhanced according to radial_multiplier =   1, to contain    24 grid points.
 
  Reading configuration options for species C                   .
  | Found nuclear charge :   6.0000
  | Found atomic mass :    12.0107000000000      amu
  | Found l_max for Hartree potential  :   4
  | Found cutoff potl. onset [A], width [A], scale factor :    3.50000    1.50000    1.00000
  | Threshold for basis-dependent cutoff potential is   0.100000E-03
  | Found data for basic radial integration grid :    34 points, outermost radius =    5.000 A
  | Found multiplier for basic radial grid :   1
  | Found angular grid specification: user-specified.
  | Specified grid contains     5 separate shells.
  | Check grid settings after all constraints further below.
  | Found free-atom valence shell :  2 s   2.000
  | Found free-atom valence shell :  2 p   2.000
  | No ionic wave fns used. Skipping ion_occ.
  | No ionic wave fns used. Skipping ion_occ.
  | Found hydrogenic basis function :  2 p   1.700
  | Found hydrogenic basis function :  3 d   6.000
  | Found hydrogenic basis function :  2 s   4.900
  Species C                   : Missing cutoff potential type.
  Defaulting to exp(1/x)/(1-x)^2 type cutoff potential.
  Species C : No 'logarithmic' tag. Using default grid for free atom:
  | Default logarithmic grid data [bohr] : 0.1000E-03 0.1000E+03 0.1012E+01
  Species C : On-site basis accuracy parameter (for Gram-Schmidt orthonormalisation) not specified.
  Using default value basis_acc =  0.1000000E-03.
  Species C                   : Using default innermost maximum threshold i_radial=  2 for radial functions.
  Species C                   : Default cutoff onset for free atom density etc. : 0.35000000E+01 AA.
  Species C                   : Basic radial grid will be enhanced according to radial_multiplier =   1, to contain    34 grid points.
 
  Finished reading input file 'control.in'. Consistency checks are next.
 
  MPI_IN_PLACE appears to work with this MPI implementation.
  | Keeping use_mpi_in_place .true. (see manual).
  Target number of points in a grid batch is not set. Defaulting to  100
  Method for grid partitioning is not set. Defaulting to parallel hash+maxmin partitioning.
  Batch size limit is not set. Defaulting to    200
  By default, will store active basis functions for each batch.
  If in need of memory, prune_basis_once .false. can be used to disable this option.
  communication_type for Hartree potential was not specified.
  Defaulting to calc_hartree .
  Defaulting to Pulay charge density mixer.
  Pulay mixer: Number of relevant iterations not set.
  Defaulting to    8 iterations.
  Pulay mixer: Number of initial linear mixing iterations not set.
  Defaulting to    0 iterations.
  Work space size for distributed Hartree potential not set.
  Defaulting to   0.200000E+03 MB.
  Mixing parameter for charge density mixing has not been set.
  Using default: charge_mix_param =     0.0500.
  The mixing parameter will be adjusted in iteration number     2 of the first full s.c.f. cycle only.
  Algorithm-dependent basis array size parameters:
  | n_max_pulay                         :        8
  Presetting        40 iterations before the initial mixing cycle
  is restarted anyway using the sc_init_iter criterion / keyword.
  Presetting a factor      1.000 between actual scf density residual
  and density convergence criterion sc_accuracy_rho below which sc_init_iter
  takes no effect.
  Geometry relaxation not requested: no relaxation will be performed.
  Force calculation: scf convergence accuracy of forces not set.
  Defaulting to 'sc_accuracy_forces not_checked'.
  Handling of forces: Unphysical translation and rotation will be removed from forces.
  No accuracy limit for integral partition fn. given. Defaulting to  0.1000E-14.
  No threshold value for u(r) in integrations given. Defaulting to  0.1000E-05.
  No occupation type (smearing scheme) given. Defaulting to Gaussian broadening, width =  0.1000E-01 eV.
  The width will be adjusted in iteration number     2 of the first full s.c.f. cycle only.
  S.C.F. convergence parameters will be adjusted in iteration number     2 of the first full s.c.f. cycle only.
  No accuracy for occupation numbers given. Defaulting to  0.1000E-12.
  No threshold value for occupation numbers given. Defaulting to  0.0000E+00.
  No accuracy for fermi level given. Defaulting to  0.1000E-19.
  Maximum # of iterations to find E_F not set. Defaulting to  200.
  Preferred method for the eigenvalue solver ('KS_method') not specified in 'control.in'.
  Calling BLACS routine to test compilation state
  The best choice would be 'elsi', but your version of FHI-aims is compiled without ScaLAPACK support.
  Defaulting to 'lapack_fast' instead (serial solution, time will not improve with more CPUs).
  Will not use alltoall communication since running on < 1024 CPUs.
  Threshold for basis singularities not set.
  Default threshold for basis singularities:  0.1000E-04
  partition_type (choice of integration weights) for integrals was not specified.
  | Using a version of the partition function of Stratmann and coworkers ('stratmann_smoother').
  | At each grid point, the set of atoms used to build the partition table is smoothly restricted to
  | only those atoms whose free-atom density would be non-zero at that grid point.
  Partitioning for Hartree potential was not defined. Using partition_type for integrals.
  | Adjusted default value of keyword multip_moments_threshold to:       0.10000000E-11
  | This value may affect high angular momentum components of the Hartree potential in periodic systems.
  Spin handling was not defined in control.in. Defaulting to unpolarized case.
  No q(lm)/r^(l+1) cutoff set for long-range Hartree potential.
  | Using default value of  0.100000E-09 .
  | Verify using the multipole_threshold keyword.
  Defaulting to new monopole extrapolation.
  Density update method: automatic selection selected.
------------------------------------------------------------


------------------------------------------------------------
          Reading geometry description geometry.in.
------------------------------------------------------------
  Input structure read successfully.
  The structure contains       12 atoms,  and a total of         32.000 electrons.

  Input geometry:
  | No unit cell requested.
  | Atomic structure:
  |       Atom                x [A]            y [A]            z [A]
  |    1: Species C            -1.95981727       -0.08962054        0.00000000
  |    2: Species C            -0.54169518        0.39241390        0.00000000
  |    3: Species C             0.54169518       -0.39241390        0.00000000
  |    4: Species C             1.95981727        0.08962054        0.00000000
  |    5: Species H            -2.01370724       -1.18650340        0.00000000
  |    6: Species H            -2.50766814        0.27810602       -0.88172229
  |    7: Species H            -2.50766814        0.27810602        0.88172229
  |    8: Species H            -0.39876918        1.47953091        0.00000000
  |    9: Species H             0.39876918       -1.47953091        0.00000000
  |   10: Species H             2.01370724        1.18650340        0.00000000
  |   11: Species H             2.50766814       -0.27810602        0.88172229
  |   12: Species H             2.50766814       -0.27810602       -0.88172229
  |

  | The smallest distance between any two atoms is         1.09647218 AA.
  |
  | The first atom of this pair is atom number                      2 .
  | The second atom of this pair is atom number                     8 .

  Number of empty states per atom not set in control.in - providing a guess from actual geometry.
  | Total number of empty states used during s.c.f. cycle:       24
  If you use a very high smearing, use empty_states (per atom!) in control.in to increase this value.

  Structure-dependent array size parameters: 
  | Maximum number of distinct radial functions  :        9
  | Maximum number of basis functions            :       96
  | Number of Kohn-Sham states (occupied + empty):       40
------------------------------------------------------------

------------------------------------------------------------
          Preparing all fixed parts of the calculation.
------------------------------------------------------------
  Determining machine precision:
    2.225073858507201E-308
  Setting up grids for atomic and cluster calculations.

  Creating wave function, potential, and density for free atoms.

  Species: H

  List of occupied orbitals and eigenvalues:
    n    l              occ      energy [Ha]    energy [eV]
    1    0           1.0000        -0.237589        -6.4651


  Species: C

  List of occupied orbitals and eigenvalues:
    n    l              occ      energy [Ha]    energy [eV]
    1    0           2.0000       -10.038835      -273.1706
    2    0           2.0000        -0.502696       -13.6791
    2    1           2.0000        -0.191971        -5.2238

  Creating fixed part of basis set: Ionic, confined, hydrogenic.
 
  H                    hydrogenic:
 
  List of hydrogenic basis orbitals: 
    n    l      effective z      eigenvalue [eV]  inner max. [A]     outer max. [A]     outer radius [A]   
    2    0         2.100000       -14.9728           0.193243           1.317208           4.583499
    2    1         3.500000       -41.6669           0.602369           0.602369           3.723403
 
 
  C                    hydrogenic:
 
  List of hydrogenic basis orbitals: 
    n    l      effective z      eigenvalue [eV]  inner max. [A]     outer max. [A]     outer radius [A]   
    2    1         1.700000        -9.7616           1.230570           1.230570           4.607917
    3    2         6.000000       -54.4224           0.792453           0.792453           3.883070
    2    0         4.900000       -81.6679           0.082559           0.562749           3.078220
 

  Adding cutoff potential to free-atom effective potential.
  Creating atomic-like basis functions for current effective potential.

  Species H                   :

  List of atomic basis orbitals and eigenvalues:
    n    l      energy [Ha]    energy [eV]    outer radius [A]
    1    0        -0.237589        -6.4651       4.527807


  Species C                   :

  List of atomic basis orbitals and eigenvalues:
    n    l      energy [Ha]    energy [eV]    outer radius [A]
    1    0       -10.038835      -273.1706       1.934409
    2    0        -0.502696       -13.6791       4.496620
    2    1        -0.191971        -5.2238       4.551928

  Assembling full basis from fixed parts.
  | Species H :   atomic orbital   1 s accepted.
  | Species H :    hydro orbital   2 s accepted.
  | Species H :    hydro orbital   2 p accepted.
  | Species C :   atomic orbital   1 s accepted.
  | Species C :    hydro orbital   2 s accepted.
  | Species C :   atomic orbital   2 s accepted.
  | Species C :   atomic orbital   2 p accepted.
  | Species C :    hydro orbital   2 p accepted.
  | Species C :    hydro orbital   3 d accepted.
 
  Basis size parameters after reduction:
  | Total number of radial functions:        9
  | Total number of basis functions :       96
 
  Per-task memory consumption for arrays in subroutine allocate_ext:
  |           2.209696MB.
  Testing on-site integration grid accuracy.
  |  Species  Function  <phi|h_atom|phi> (log., in eV)  <phi|h_atom|phi> (rad., in eV)
           1        1                 -6.4663192853                 -6.4651273558
           1        2                 13.7111246313                 13.7170609718
           1        3                 25.2673269279                 25.2674696378
           2        4               -273.1705927641               -273.1705631568
           2        5                -10.7109323383                -10.7107120029
           2        6                 17.4381822266                 17.4352413244
           2        7                 -5.2255326521                 -5.2270484734
           2        8                  8.6835629259                  8.6603288385
           2        9                 27.4952418996                 27.4953360207

  Preparing densities etc. for the partition functions (integrals / Hartree potential).

  Preparations completed.
  max(cpu_time)          :      0.128 s.
  Wall clock time (cpu1) :      0.133 s.
------------------------------------------------------------

------------------------------------------------------------
          Begin self-consistency loop: Initialization.

          Date     :  20180214, Time     :  163900.373
------------------------------------------------------------

  Initializing index lists of integration centers etc. from given atomic structure:
  | Number of centers in hartree potential         :        12
  | Number of centers in hartree multipole         :        12
  | Number of centers in electron density summation:        12
  | Number of centers in basis integrals           :        12
  | Number of centers in integrals                 :        12
  | Number of centers in hamiltonian               :        12
  Partitioning the integration grid into batches with parallel hashing+maxmin method.
  | Number of batches:      786
  | Maximal batch size:     137
  | Minimal batch size:      49
  | Average batch size:      77.537
  | Standard deviation of batch sizes:      24.758

  Integration load balanced across     8 MPI tasks.
  Work distribution over tasks is as follows:
  Task     0 has       7580 integration points.
  Task     1 has       7609 integration points.
  Task     2 has       7660 integration points.
  Task     3 has       7672 integration points.
  Task     4 has       7598 integration points.
  Task     5 has       7585 integration points.
  Task     6 has       7639 integration points.
  Task     7 has       7601 integration points.
  Initializing partition tables, free-atom densities, potentials, etc. across the integration grid (initialize_grid_storage).
  | initialize_grid_storage: Actual outermost partition radius vs. multipole_radius_free
  | (-- VB: in principle, multipole_radius_free should be larger, hence this output)
  | Species        1: Confinement radius =              4.999999999999999 AA, multipole_radius_free =              5.054417573612229 AA.
  | Species        1: outer_partition_radius set to              5.054417573612229 AA .
  | Species        2: Confinement radius =              4.999999999999999 AA, multipole_radius_free =              5.019602836301480 AA.
  | Species        2: outer_partition_radius set to              5.019602836301480 AA .
  | Original list of interatomic distances with          12 x         12 entries is created.
  | Net number of integration points:    60944
  | of which are non-zero points    :    52290
  Renormalizing the initial density to the exact electron count on the 3D integration grid.
  | Initial density: Formal number of electrons (from input files) :      32.0000000000
  | Integrated number of electrons on 3D grid     :      31.9999069515
  | Charge integration error                      :      -0.0000930485
  | Normalization factor for density and gradient :       1.0000029078
  Obtaining max. number of non-zero basis functions in each batch (get_n_compute_maxes).
  | Maximal number of non-zero basis functions:       96 in task     0
  | Maximal number of non-zero basis functions:       96 in task     1
  | Maximal number of non-zero basis functions:       96 in task     2
  | Maximal number of non-zero basis functions:       96 in task     3
  | Maximal number of non-zero basis functions:       96 in task     4
  | Maximal number of non-zero basis functions:       96 in task     5
  | Maximal number of non-zero basis functions:       96 in task     6
  | Maximal number of non-zero basis functions:       96 in task     7
  Selecting the method for density update.
  Loop over occupied states selected for charge density update.
  Allocating        0.031 MB for KS_eigenvector
  Integrating Hamiltonian matrix: batch-based integration.
  Time summed over all CPUs for integration: real work        1.171 s, elapsed        1.207 s
  Integrating overlap matrix.
  Time summed over all CPUs for integration: real work        0.445 s, elapsed        0.459 s

  Updating Kohn-Sham eigenvalues, eigenvectors, occupation numbers, and Fermi level.
  Solving generalized eigenproblem
  Updating Kohn-Sham eigenvalues and eigenfunctions.
  Transforming overlap matrix and checking for singularities.
  Overlap matrix is nonsingular:
  | Lowest eigenvalue:  0.321243E-02
  Solving real generalised eigenvalue problem by standard LAPACK (fast)

  Obtaining occupation numbers and chemical potential using ELSI.
  | Chemical potential (Fermi level):    -8.46021655eV
  Writing Kohn-Sham eigenvalues.

  State    Occupation    Eigenvalue [Ha]    Eigenvalue [eV]
      1       2.00000         -10.167125         -276.66154
      2       2.00000         -10.167125         -276.66154
      3       2.00000         -10.152482         -276.26310
      4       2.00000         -10.151812         -276.24486
      5       2.00000          -0.930561          -25.32184
      6       2.00000          -0.856700          -23.31199
      7       2.00000          -0.785311          -21.36939
      8       2.00000          -0.669259          -18.21147
      9       2.00000          -0.594015          -16.16398
     10       2.00000          -0.586312          -15.95435
     11       2.00000          -0.546918          -14.88240
     12       2.00000          -0.534786          -14.55227
     13       2.00000          -0.518842          -14.11840
     14       2.00000          -0.511807          -13.92698
     15       2.00000          -0.478095          -13.00963
     16       2.00000          -0.387009          -10.53104
     17       0.00000          -0.177140           -4.82022
     18       0.00000          -0.034308           -0.93355
     19       0.00000          -0.029909           -0.81386
     20       0.00000          -0.021569           -0.58692
     21       0.00000           0.019784            0.53834
     22       0.00000           0.021026            0.57215
     23       0.00000           0.028465            0.77458
     24       0.00000           0.029414            0.80041
     25       0.00000           0.030097            0.81899
     26       0.00000           0.031526            0.85788
     27       0.00000           0.134342            3.65563
     28       0.00000           0.186666            5.07943
     29       0.00000           0.187843            5.11146
     30       0.00000           0.209274            5.69465
     31       0.00000           0.222621            6.05782
     32       0.00000           0.228528            6.21856
     33       0.00000           0.240256            6.53770
     34       0.00000           0.303189            8.25019
     35       0.00000           0.352355            9.58808
     36       0.00000           0.368250           10.02059
     37       0.00000           0.399779           10.87855
     38       0.00000           0.417109           11.35010
     39       0.00000           0.507224           13.80227
     40       0.00000           0.524365           14.26871

  Highest occupied state (VBM) at    -10.53104154 eV
  | Occupation number:      2.00000000

  Lowest unoccupied state (CBM) at    -4.82021954 eV
  | Occupation number:      0.00000000

  Overall HOMO-LUMO gap:      5.71082200 eV.
  Calculating total energy contributions from superposition of free atom densities.

  Total energy components:
  | Sum of eigenvalues            :         -96.07631623 Ha       -2614.36958238 eV
  | XC energy correction          :         -23.66232807 Ha        -643.88470716 eV
  | XC potential correction       :          30.39637584 Ha         827.12747051 eV
  | Free-atom electrostatic energy:         -67.98835321 Ha       -1850.05722084 eV
  | Hartree energy correction     :           0.00000000 Ha           0.00000000 eV
  | vdW energy correction         :           0.00000000 Ha           0.00000000 eV
  | Entropy correction            :           0.00000000 Ha           0.00000000 eV
  | ---------------------------
  | Total energy                  :        -157.33062167 Ha       -4281.18403988 eV
  | Total energy, T -> 0          :        -157.33062167 Ha       -4281.18403988 eV  <-- do not rely on this value for anything but (periodic) metals
  | Electronic free energy        :        -157.33062167 Ha       -4281.18403988 eV

  Derived energy quantities:
  | Kinetic energy                :         154.19802557 Ha        4195.94176279 eV
  | Electrostatic energy          :        -287.86631917 Ha       -7833.24109550 eV
  | Energy correction for multipole
  | error in Hartree potential    :           0.00000000 Ha           0.00000000 eV
  | Sum of eigenvalues per atom                           :        -217.86413187 eV
  | Total energy (T->0) per atom                          :        -356.76533666 eV  <-- do not rely on this value for anything but (periodic) metals
  | Electronic free energy per atom                       :        -356.76533666 eV
  Initialize hartree_potential_storage
  Max. number of atoms included in rho_multipole:           12

  End scf initialization - timings             :  max(cpu_time)    wall_clock(cpu1)
  | Time for scf. initialization               :        0.392 s           0.388 s
  | Boundary condition initialization          :        0.000 s           0.000 s
  | Integration                                :        0.236 s           0.233 s
  | Solution of K.-S. eqns.                    :        0.012 s           0.011 s
  | Grid partitioning                          :        0.052 s           0.050 s
  | Preloading free-atom quantities on grid    :        0.004 s           0.003 s
  | Free-atom superposition energy             :        0.024 s           0.020 s
  | Total energy evaluation                    :        0.000 s           0.001 s

  Partial memory accounting:
  | Current value for overall tracked memory usage on task 0  :           0.179 MB
  | Peak value for overall tracked memory usage on task 0     :           0.497 MB after allocating wave
  | Largest tracked array allocation on task 0 so far         :           0.105 MB  when allocating H_times_psi
  Note:  These values currently only include a subset of arrays which are explicitly tracked.
  The "true" memory usage will be greater.
------------------------------------------------------------

------------------------------------------------------------
          Begin self-consistency iteration #    1

  Date     :  20180214, Time     :  163900.762
------------------------------------------------------------
  Evaluating new KS density.
  Integration grid: deviation in total charge (<rho> - N_e) =   0.000000E+00
  Pulay mixing of updated and previous charge densities.

  Evaluating partitioned Hartree potential by multipole expansion.
  | Analytical far-field extrapolation by fixed multipoles:
  | Hartree multipole sum: apparent total charge =  -0.124097E-03
  Summing up the Hartree potential.
  Time summed over all CPUs for potential: real work        1.139 s, elapsed        1.168 s
  | RMS charge density error from multipole expansion :   0.134127E-02

  Integrating Hamiltonian matrix: batch-based integration.
  Time summed over all CPUs for integration: real work        1.184 s, elapsed        1.217 s

  Updating Kohn-Sham eigenvalues, eigenvectors, occupation numbers, and Fermi level.
  Solving generalized eigenproblem
  Updating Kohn-Sham eigenvalues and eigenfunctions.
  Solving real generalised eigenvalue problem by standard LAPACK (fast)

  Obtaining occupation numbers and chemical potential using ELSI.
  | Chemical potential (Fermi level):    -8.06955397eV
  Writing Kohn-Sham eigenvalues.

  State    Occupation    Eigenvalue [Ha]    Eigenvalue [eV]
      1       2.00000         -10.132376         -275.71599
      2       2.00000         -10.132376         -275.71599
      3       2.00000         -10.122743         -275.45385
      4       2.00000         -10.122072         -275.43560
      5       2.00000          -0.910075          -24.76440
      6       2.00000          -0.837670          -22.79416
      7       2.00000          -0.765890          -20.84094
      8       2.00000          -0.652965          -17.76809
      9       2.00000          -0.575193          -15.65181
     10       2.00000          -0.567964          -15.45507
     11       2.00000          -0.530419          -14.43342
     12       2.00000          -0.518460          -14.10801
     13       2.00000          -0.499986          -13.60531
     14       2.00000          -0.495223          -13.47570
     15       2.00000          -0.461874          -12.56822
     16       2.00000          -0.369745          -10.06127
     17       0.00000          -0.160554           -4.36889
     18       0.00000          -0.022743           -0.61886
     19       0.00000          -0.021163           -0.57587
     20       0.00000          -0.013347           -0.36320
     21       0.00000           0.029717            0.80863
     22       0.00000           0.036331            0.98861
     23       0.00000           0.038848            1.05711
     24       0.00000           0.039720            1.08085
     25       0.00000           0.040346            1.09787
     26       0.00000           0.042123            1.14623
     27       0.00000           0.146612            3.98951
     28       0.00000           0.196593            5.34957
     29       0.00000           0.198597            5.40411
     30       0.00000           0.220727            6.00629
     31       0.00000           0.232019            6.31356
     32       0.00000           0.242306            6.59349
     33       0.00000           0.253269            6.89179
     34       0.00000           0.316820            8.62112
     35       0.00000           0.364375            9.91514
     36       0.00000           0.378652           10.30365
     37       0.00000           0.411268           11.19118
     38       0.00000           0.429823           11.69608
     39       0.00000           0.518871           14.11919
     40       0.00000           0.536994           14.61235

  Highest occupied state (VBM) at    -10.06126766 eV
  | Occupation number:      2.00000000

  Lowest unoccupied state (CBM) at    -4.36888607 eV
  | Occupation number:      0.00000000

  Overall HOMO-LUMO gap:      5.69238159 eV.

  Total energy components:
  | Sum of eigenvalues            :         -95.39006225 Ha       -2595.69566138 eV
  | XC energy correction          :         -23.72299957 Ha        -645.53566275 eV
  | XC potential correction       :          30.47501751 Ha         829.26741898 eV
  | Free-atom electrostatic energy:         -67.98835321 Ha       -1850.05722084 eV
  | Hartree energy correction     :          -0.65467458 Ha         -17.81460171 eV
  | vdW energy correction         :           0.00000000 Ha           0.00000000 eV
  | Entropy correction            :           0.00000000 Ha           0.00000000 eV
  | ---------------------------
  | Total energy                  :        -157.28107211 Ha       -4279.83572768 eV
  | Total energy, T -> 0          :        -157.28107211 Ha       -4279.83572768 eV  <-- do not rely on this value for anything but (periodic) metals
  | Electronic free energy        :        -157.28107211 Ha       -4279.83572768 eV

  Derived energy quantities:
  | Kinetic energy                :         154.52769252 Ha        4204.91245712 eV
  | Electrostatic energy          :        -288.08576506 Ha       -7839.21252206 eV
  | Energy correction for multipole
  | error in Hartree potential    :           0.00230937 Ha           0.06284114 eV
  | Sum of eigenvalues per atom                           :        -216.30797178 eV
  | Total energy (T->0) per atom                          :        -356.65297731 eV  <-- do not rely on this value for anything but (periodic) metals
  | Electronic free energy per atom                       :        -356.65297731 eV

  Self-consistency convergence accuracy:
  | Change of charge density      :  0.4891E+00
  | Change of sum of eigenvalues  :  0.1867E+02 eV
  | Change of total energy        :  0.1348E+01 eV

  End self-consistency iteration #     1       :  max(cpu_time)    wall_clock(cpu1)
  | Time for this iteration                    :        0.512 s           0.510 s
  | Charge density update                      :        0.160 s           0.159 s
  | Density mixing                             :        0.004 s           0.001 s
  | Hartree multipole update                   :        0.012 s           0.009 s
  | Hartree multipole summation                :        0.164 s           0.164 s
  | Integration                                :        0.172 s           0.171 s
  | Solution of K.-S. eqns.                    :        0.004 s           0.002 s
  | Total energy evaluation                    :        0.000 s           0.002 s

  Partial memory accounting:
  | Current value for overall tracked memory usage on task 0  :           0.179 MB
  | Peak value for overall tracked memory usage on task 0     :           0.600 MB after allocating gradient_basis_wave
  | Largest tracked array allocation on task 0 so far         :           0.316 MB  when allocating gradient_basis_wave
  Note:  These values currently only include a subset of arrays which are explicitly tracked.
  The "true" memory usage will be greater.
------------------------------------------------------------

------------------------------------------------------------
          Begin self-consistency iteration #    2

  Date     :  20180214, Time     :  163901.274
------------------------------------------------------------
  Evaluating new KS density.
  Integration grid: deviation in total charge (<rho> - N_e) =   2.131628E-14
  Pulay mixing of updated and previous charge densities.

  Evaluating partitioned Hartree potential by multipole expansion.
  | Analytical far-field extrapolation by fixed multipoles:
  | Hartree multipole sum: apparent total charge =  -0.396143E-03
  Summing up the Hartree potential.
  Time summed over all CPUs for potential: real work        1.112 s, elapsed        1.120 s
  | RMS charge density error from multipole expansion :   0.131853E-01

  Integrating Hamiltonian matrix: batch-based integration.
  Time summed over all CPUs for integration: real work        1.164 s, elapsed        1.198 s

  Updating Kohn-Sham eigenvalues, eigenvectors, occupation numbers, and Fermi level.
  Solving generalized eigenproblem
  Updating Kohn-Sham eigenvalues and eigenfunctions.
  Solving real generalised eigenvalue problem by standard LAPACK (fast)

  Obtaining occupation numbers and chemical potential using ELSI.
  | Chemical potential (Fermi level):    -4.66506711eV
  Highest occupied state (VBM) at     -6.19158853 eV
  | Occupation number:      2.00000000

  Lowest unoccupied state (CBM) at    -0.68039359 eV
  | Occupation number:      0.00000000

  Overall HOMO-LUMO gap:      5.51119494 eV.

  Checking to see if s.c.f. parameters should be adjusted.
  The system likely has a gap. Increased the default Pulay mixing parameter (charge_mix_param). Value:   0.200000 .
  Kept the default occupation width. Value:   0.010000 eV.

  Total energy components:
  | Sum of eigenvalues            :         -89.65765827 Ha       -2439.70901267 eV
  | XC energy correction          :         -24.28161117 Ha        -660.73625776 eV
  | XC potential correction       :          31.19873381 Ha         848.96074160 eV
  | Free-atom electrostatic energy:         -67.98835321 Ha       -1850.05722084 eV
  | Hartree energy correction     :          -6.34864422 Ha        -172.75539901 eV
  | vdW energy correction         :           0.00000000 Ha           0.00000000 eV
  | Entropy correction            :           0.00000000 Ha           0.00000000 eV
  | ---------------------------
  | Total energy                  :        -157.07753307 Ha       -4274.29714868 eV
  | Total energy, T -> 0          :        -157.07753307 Ha       -4274.29714868 eV  <-- do not rely on this value for anything but (periodic) metals
  | Electronic free energy        :        -157.07753307 Ha       -4274.29714868 eV

  Derived energy quantities:
  | Kinetic energy                :         156.96060186 Ha        4271.11528869 eV
  | Electrostatic energy          :        -289.75652377 Ha       -7884.67617961 eV
  | Energy correction for multipole
  | error in Hartree potential    :           0.02189573 Ha           0.59581312 eV
  | Sum of eigenvalues per atom                           :        -203.30908439 eV
  | Total energy (T->0) per atom                          :        -356.19142906 eV  <-- do not rely on this value for anything but (periodic) metals
  | Electronic free energy per atom                       :        -356.19142906 eV

  Self-consistency convergence accuracy:
  | Change of charge density      :  0.4499E+00
  | Change of sum of eigenvalues  :  0.1560E+03 eV
  | Change of total energy        :  0.5539E+01 eV

  End self-consistency iteration #     2       :  max(cpu_time)    wall_clock(cpu1)
  | Time for this iteration                    :        0.504 s           0.502 s
  | Charge density update                      :        0.164 s           0.162 s
  | Density mixing                             :        0.004 s           0.003 s
  | Hartree multipole update                   :        0.012 s           0.009 s
  | Hartree multipole summation                :        0.156 s           0.157 s
  | Integration                                :        0.168 s           0.168 s
  | Solution of K.-S. eqns.                    :        0.004 s           0.002 s
  | Total energy evaluation                    :        0.000 s           0.001 s

  Partial memory accounting:
  | Current value for overall tracked memory usage on task 0  :           0.180 MB
  | Peak value for overall tracked memory usage on task 0     :           0.600 MB after allocating gradient_basis_wave
  | Largest tracked array allocation on task 0 so far         :           0.316 MB  when allocating gradient_basis_wave
  Note:  These values currently only include a subset of arrays which are explicitly tracked.
  The "true" memory usage will be greater.
------------------------------------------------------------

------------------------------------------------------------
          Begin self-consistency iteration #    3

  Date     :  20180214, Time     :  163901.777
------------------------------------------------------------
  Evaluating new KS density.
  Integration grid: deviation in total charge (<rho> - N_e) =  -3.552714E-15
  Pulay mixing of updated and previous charge densities.

  Evaluating partitioned Hartree potential by multipole expansion.
  | Analytical far-field extrapolation by fixed multipoles:
  | Hartree multipole sum: apparent total charge =  -0.385316E-03
  Summing up the Hartree potential.
  Time summed over all CPUs for potential: real work        1.128 s, elapsed        1.171 s
  | RMS charge density error from multipole expansion :   0.162941E-01

  Integrating Hamiltonian matrix: batch-based integration.
  Time summed over all CPUs for integration: real work        1.173 s, elapsed        1.204 s

  Updating Kohn-Sham eigenvalues, eigenvectors, occupation numbers, and Fermi level.
  Solving generalized eigenproblem
  Updating Kohn-Sham eigenvalues and eigenfunctions.
  Solving real generalised eigenvalue problem by standard LAPACK (fast)

  Obtaining occupation numbers and chemical potential using ELSI.
  | Chemical potential (Fermi level):    -5.06429425eV
  Highest occupied state (VBM) at     -6.87709625 eV
  | Occupation number:      2.00000000

  Lowest unoccupied state (CBM) at    -1.34663483 eV
  | Occupation number:      0.00000000

  Overall HOMO-LUMO gap:      5.53046142 eV.

  Total energy components:
  | Sum of eigenvalues            :         -90.62224843 Ha       -2465.95684633 eV
  | XC energy correction          :         -24.23482061 Ha        -659.46302200 eV
  | XC potential correction       :          31.13450420 Ha         847.21296500 eV
  | Free-atom electrostatic energy:         -67.98835321 Ha       -1850.05722084 eV
  | Hartree energy correction     :          -5.36160534 Ha        -145.89670431 eV
  | vdW energy correction         :           0.00000000 Ha           0.00000000 eV
  | Entropy correction            :           0.00000000 Ha           0.00000000 eV
  | ---------------------------
  | Total energy                  :        -157.07252339 Ha       -4274.16082847 eV
  | Total energy, T -> 0          :        -157.07252339 Ha       -4274.16082847 eV  <-- do not rely on this value for anything but (periodic) metals
  | Electronic free energy        :        -157.07252339 Ha       -4274.16082847 eV

  Derived energy quantities:
  | Kinetic energy                :         156.29630850 Ha        4253.03894641 eV
  | Electrostatic energy          :        -289.13401128 Ha       -7867.73675288 eV
  | Energy correction for multipole
  | error in Hartree potential    :           0.02620696 Ha           0.71312765 eV
  | Sum of eigenvalues per atom                           :        -205.49640386 eV
  | Total energy (T->0) per atom                          :        -356.18006904 eV  <-- do not rely on this value for anything but (periodic) metals
  | Electronic free energy per atom                       :        -356.18006904 eV

  Self-consistency convergence accuracy:
  | Change of charge density      :  0.2097E+00
  | Change of sum of eigenvalues  : -0.2625E+02 eV
  | Change of total energy        :  0.1363E+00 eV

  End self-consistency iteration #     3       :  max(cpu_time)    wall_clock(cpu1)
  | Time for this iteration                    :        0.516 s           0.514 s
  | Charge density update                      :        0.164 s           0.162 s
  | Density mixing                             :        0.004 s           0.006 s
  | Hartree multipole update                   :        0.012 s           0.010 s
  | Hartree multipole summation                :        0.164 s           0.165 s
  | Integration                                :        0.172 s           0.168 s
  | Solution of K.-S. eqns.                    :        0.004 s           0.002 s
  | Total energy evaluation                    :        0.000 s           0.001 s

  Partial memory accounting:
  | Current value for overall tracked memory usage on task 0  :           0.180 MB
  | Peak value for overall tracked memory usage on task 0     :           0.601 MB after allocating gradient_basis_wave
  | Largest tracked array allocation on task 0 so far         :           0.316 MB  when allocating gradient_basis_wave
  Note:  These values currently only include a subset of arrays which are explicitly tracked.
  The "true" memory usage will be greater.
------------------------------------------------------------

------------------------------------------------------------
          Begin self-consistency iteration #    4

  Date     :  20180214, Time     :  163902.291
------------------------------------------------------------
  Evaluating new KS density.
  Integration grid: deviation in total charge (<rho> - N_e) =   0.000000E+00
  Pulay mixing of updated and previous charge densities.

  Evaluating partitioned Hartree potential by multipole expansion.
  | Analytical far-field extrapolation by fixed multipoles:
  | Hartree multipole sum: apparent total charge =  -0.464360E-03
  Summing up the Hartree potential.
  Time summed over all CPUs for potential: real work        1.119 s, elapsed        1.155 s
  | RMS charge density error from multipole expansion :   0.221866E-01

  Integrating Hamiltonian matrix: batch-based integration.
  Time summed over all CPUs for integration: real work        1.172 s, elapsed        1.216 s

  Updating Kohn-Sham eigenvalues, eigenvectors, occupation numbers, and Fermi level.
  Solving generalized eigenproblem
  Updating Kohn-Sham eigenvalues and eigenfunctions.
  Solving real generalised eigenvalue problem by standard LAPACK (fast)

  Obtaining occupation numbers and chemical potential using ELSI.
  | Chemical potential (Fermi level):    -4.32713528eV
  Highest occupied state (VBM) at     -6.21743026 eV
  | Occupation number:      2.00000000

  Lowest unoccupied state (CBM) at    -0.72732000 eV
  | Occupation number:      0.00000000

  Overall HOMO-LUMO gap:      5.49011026 eV.

  Total energy components:
  | Sum of eigenvalues            :         -89.68952599 Ha       -2440.57617740 eV
  | XC energy correction          :         -24.37630817 Ha        -663.31309429 eV
  | XC potential correction       :          31.31538489 Ha         852.13497894 eV
  | Free-atom electrostatic energy:         -67.98835321 Ha       -1850.05722084 eV
  | Hartree energy correction     :          -6.32278945 Ha        -172.05185475 eV
  | vdW energy correction         :           0.00000000 Ha           0.00000000 eV
  | Entropy correction            :           0.00000000 Ha           0.00000000 eV
  | ---------------------------
  | Total energy                  :        -157.06159194 Ha       -4273.86336833 eV
  | Total energy, T -> 0          :        -157.06159194 Ha       -4273.86336833 eV  <-- do not rely on this value for anything but (periodic) metals
  | Electronic free energy        :        -157.06159194 Ha       -4273.86336833 eV

  Derived energy quantities:
  | Kinetic energy                :         156.37018993 Ha        4255.04936239 eV
  | Electrostatic energy          :        -289.05547369 Ha       -7865.59963644 eV
  | Energy correction for multipole
  | error in Hartree potential    :           0.03406890 Ha           0.92706199 eV
  | Sum of eigenvalues per atom                           :        -203.38134812 eV
  | Total energy (T->0) per atom                          :        -356.15528069 eV  <-- do not rely on this value for anything but (periodic) metals
  | Electronic free energy per atom                       :        -356.15528069 eV

  Self-consistency convergence accuracy:
  | Change of charge density      :  0.1278E+00
  | Change of sum of eigenvalues  :  0.2538E+02 eV
  | Change of total energy        :  0.2975E+00 eV

  End self-consistency iteration #     4       :  max(cpu_time)    wall_clock(cpu1)
  | Time for this iteration                    :        0.512 s           0.513 s
  | Charge density update                      :        0.164 s           0.163 s
  | Density mixing                             :        0.008 s           0.005 s
  | Hartree multipole update                   :        0.012 s           0.009 s
  | Hartree multipole summation                :        0.164 s           0.162 s
  | Integration                                :        0.172 s           0.170 s
  | Solution of K.-S. eqns.                    :        0.004 s           0.002 s
  | Total energy evaluation                    :        0.000 s           0.001 s

  Partial memory accounting:
  | Current value for overall tracked memory usage on task 0  :           0.180 MB
  | Peak value for overall tracked memory usage on task 0     :           0.601 MB after allocating gradient_basis_wave
  | Largest tracked array allocation on task 0 so far         :           0.316 MB  when allocating gradient_basis_wave
  Note:  These values currently only include a subset of arrays which are explicitly tracked.
  The "true" memory usage will be greater.
------------------------------------------------------------

------------------------------------------------------------
          Begin self-consistency iteration #    5

  Date     :  20180214, Time     :  163902.805
------------------------------------------------------------
  Evaluating new KS density.
  Integration grid: deviation in total charge (<rho> - N_e) =   7.105427E-15
  Pulay mixing of updated and previous charge densities.

  Evaluating partitioned Hartree potential by multipole expansion.
  | Analytical far-field extrapolation by fixed multipoles:
  | Hartree multipole sum: apparent total charge =  -0.490277E-03
  Summing up the Hartree potential.
  Time summed over all CPUs for potential: real work        1.135 s, elapsed        1.180 s
  | RMS charge density error from multipole expansion :   0.227136E-01

  Integrating Hamiltonian matrix: batch-based integration.
  Time summed over all CPUs for integration: real work        1.193 s, elapsed        1.275 s

  Updating Kohn-Sham eigenvalues, eigenvectors, occupation numbers, and Fermi level.
  Solving generalized eigenproblem
  Updating Kohn-Sham eigenvalues and eigenfunctions.
  Solving real generalised eigenvalue problem by standard LAPACK (fast)

  Obtaining occupation numbers and chemical potential using ELSI.
  | Chemical potential (Fermi level):    -4.15290012eV
  Highest occupied state (VBM) at     -5.97849885 eV
  | Occupation number:      2.00000000

  Lowest unoccupied state (CBM) at    -0.48789875 eV
  | Occupation number:      0.00000000

  Overall HOMO-LUMO gap:      5.49060010 eV.

  Total energy components:
  | Sum of eigenvalues            :         -89.45669123 Ha       -2434.24042123 eV
  | XC energy correction          :         -24.39615463 Ha        -663.85314407 eV
  | XC potential correction       :          31.34119911 Ha         852.83741964 eV
  | Free-atom electrostatic energy:         -67.98835321 Ha       -1850.05722084 eV
  | Hartree energy correction     :          -6.56053334 Ha        -178.52119513 eV
  | vdW energy correction         :           0.00000000 Ha           0.00000000 eV
  | Entropy correction            :           0.00000000 Ha           0.00000000 eV
  | ---------------------------
  | Total energy                  :        -157.06053331 Ha       -4273.83456162 eV
  | Total energy, T -> 0          :        -157.06053331 Ha       -4273.83456162 eV  <-- do not rely on this value for anything but (periodic) metals
  | Electronic free energy        :        -157.06053331 Ha       -4273.83456162 eV

  Derived energy quantities:
  | Kinetic energy                :         156.35371641 Ha        4254.60109530 eV
  | Electrostatic energy          :        -289.01809509 Ha       -7864.58251285 eV
  | Energy correction for multipole
  | error in Hartree potential    :           0.03357624 Ha           0.91365591 eV
  | Sum of eigenvalues per atom                           :        -202.85336844 eV
  | Total energy (T->0) per atom                          :        -356.15288014 eV  <-- do not rely on this value for anything but (periodic) metals
  | Electronic free energy per atom                       :        -356.15288014 eV

  Self-consistency convergence accuracy:
  | Change of charge density      :  0.3102E-01
  | Change of sum of eigenvalues  :  0.6336E+01 eV
  | Change of total energy        :  0.2881E-01 eV

  End self-consistency iteration #     5       :  max(cpu_time)    wall_clock(cpu1)
  | Time for this iteration                    :        0.528 s           0.531 s
  | Charge density update                      :        0.164 s           0.163 s
  | Density mixing                             :        0.008 s           0.007 s
  | Hartree multipole update                   :        0.016 s           0.014 s
  | Hartree multipole summation                :        0.164 s           0.165 s
  | Integration                                :        0.180 s           0.179 s
  | Solution of K.-S. eqns.                    :        0.004 s           0.002 s
  | Total energy evaluation                    :        0.000 s           0.001 s

  Partial memory accounting:
  | Current value for overall tracked memory usage on task 0  :           0.180 MB
  | Peak value for overall tracked memory usage on task 0     :           0.601 MB after allocating gradient_basis_wave
  | Largest tracked array allocation on task 0 so far         :           0.316 MB  when allocating gradient_basis_wave
  Note:  These values currently only include a subset of arrays which are explicitly tracked.
  The "true" memory usage will be greater.
------------------------------------------------------------

------------------------------------------------------------
          Begin self-consistency iteration #    6

  Date     :  20180214, Time     :  163903.337
------------------------------------------------------------
  Evaluating new KS density.
  Integration grid: deviation in total charge (<rho> - N_e) =  -3.552714E-15
  Pulay mixing of updated and previous charge densities.

  Evaluating partitioned Hartree potential by multipole expansion.
  | Analytical far-field extrapolation by fixed multipoles:
  | Hartree multipole sum: apparent total charge =  -0.511711E-03
  Summing up the Hartree potential.
  Time summed over all CPUs for potential: real work        1.111 s, elapsed        1.124 s
  | RMS charge density error from multipole expansion :   0.230475E-01

  Integrating Hamiltonian matrix: batch-based integration.
  Time summed over all CPUs for integration: real work        1.173 s, elapsed        1.212 s

  Updating Kohn-Sham eigenvalues, eigenvectors, occupation numbers, and Fermi level.
  Solving generalized eigenproblem
  Updating Kohn-Sham eigenvalues and eigenfunctions.
  Solving real generalised eigenvalue problem by standard LAPACK (fast)

  Obtaining occupation numbers and chemical potential using ELSI.
  | Chemical potential (Fermi level):    -4.05680359eV
  Highest occupied state (VBM) at     -5.87621941 eV
  | Occupation number:      2.00000000

  Lowest unoccupied state (CBM) at    -0.38802320 eV
  | Occupation number:      0.00000000

  Overall HOMO-LUMO gap:      5.48819622 eV.

  Total energy components:
  | Sum of eigenvalues            :         -89.34268331 Ha       -2431.13810779 eV
  | XC energy correction          :         -24.40808052 Ha        -664.17766407 eV
  | XC potential correction       :          31.35667782 Ha         853.25861691 eV
  | Free-atom electrostatic energy:         -67.98835321 Ha       -1850.05722084 eV
  | Hartree energy correction     :          -6.67781571 Ha        -181.71261085 eV
  | vdW energy correction         :           0.00000000 Ha           0.00000000 eV
  | Entropy correction            :           0.00000000 Ha           0.00000000 eV
  | ---------------------------
  | Total energy                  :        -157.06025493 Ha       -4273.82698664 eV
  | Total energy, T -> 0          :        -157.06025493 Ha       -4273.82698664 eV  <-- do not rely on this value for anything but (periodic) metals
  | Electronic free energy        :        -157.06025493 Ha       -4273.82698664 eV

  Derived energy quantities:
  | Kinetic energy                :         156.30888894 Ha        4253.38127766 eV
  | Electrostatic energy          :        -288.96106335 Ha       -7863.03060023 eV
  | Energy correction for multipole
  | error in Hartree potential    :           0.03277598 Ha           0.89187971 eV
  | Sum of eigenvalues per atom                           :        -202.59484232 eV
  | Total energy (T->0) per atom                          :        -356.15224889 eV  <-- do not rely on this value for anything but (periodic) metals
  | Electronic free energy per atom                       :        -356.15224889 eV

  Self-consistency convergence accuracy:
  | Change of charge density      :  0.1655E-01
  | Change of sum of eigenvalues  :  0.3102E+01 eV
  | Change of total energy        :  0.7575E-02 eV

  End self-consistency iteration #     6       :  max(cpu_time)    wall_clock(cpu1)
  | Time for this iteration                    :        0.508 s           0.506 s
  | Charge density update                      :        0.160 s           0.158 s
  | Density mixing                             :        0.008 s           0.009 s
  | Hartree multipole update                   :        0.008 s           0.009 s
  | Hartree multipole summation                :        0.160 s           0.157 s
  | Integration                                :        0.172 s           0.170 s
  | Solution of K.-S. eqns.                    :        0.004 s           0.002 s
  | Total energy evaluation                    :        0.000 s           0.001 s

  Partial memory accounting:
  | Current value for overall tracked memory usage on task 0  :           0.180 MB
  | Peak value for overall tracked memory usage on task 0     :           0.601 MB after allocating gradient_basis_wave
  | Largest tracked array allocation on task 0 so far         :           0.316 MB  when allocating gradient_basis_wave
  Note:  These values currently only include a subset of arrays which are explicitly tracked.
  The "true" memory usage will be greater.
------------------------------------------------------------

------------------------------------------------------------
          Begin self-consistency iteration #    7

  Date     :  20180214, Time     :  163903.844
------------------------------------------------------------
  Evaluating new KS density.
  Integration grid: deviation in total charge (<rho> - N_e) =   1.421085E-14
  Pulay mixing of updated and previous charge densities.

  Evaluating partitioned Hartree potential by multipole expansion.
  | Analytical far-field extrapolation by fixed multipoles:
  | Hartree multipole sum: apparent total charge =  -0.516309E-03
  Summing up the Hartree potential.
  Time summed over all CPUs for potential: real work        1.125 s, elapsed        1.171 s
  | RMS charge density error from multipole expansion :   0.230315E-01

  Integrating Hamiltonian matrix: batch-based integration.
  Time summed over all CPUs for integration: real work        1.176 s, elapsed        1.240 s

  Updating Kohn-Sham eigenvalues, eigenvectors, occupation numbers, and Fermi level.
  Solving generalized eigenproblem
  Updating Kohn-Sham eigenvalues and eigenfunctions.
  Solving real generalised eigenvalue problem by standard LAPACK (fast)

  Obtaining occupation numbers and chemical potential using ELSI.
  | Chemical potential (Fermi level):    -4.03297024eV
  Highest occupied state (VBM) at     -5.84236952 eV
  | Occupation number:      2.00000000

  Lowest unoccupied state (CBM) at    -0.35451788 eV
  | Occupation number:      0.00000000

  Overall HOMO-LUMO gap:      5.48785164 eV.

  Total energy components:
  | Sum of eigenvalues            :         -89.30855355 Ha       -2430.20938977 eV
  | XC energy correction          :         -24.41029734 Ha        -664.23798663 eV
  | XC potential correction       :          31.35962477 Ha         853.33880748 eV
  | Free-atom electrostatic energy:         -67.98835321 Ha       -1850.05722084 eV
  | Hartree energy correction     :          -6.71262454 Ha        -182.65980729 eV
  | vdW energy correction         :           0.00000000 Ha           0.00000000 eV
  | Entropy correction            :           0.00000000 Ha           0.00000000 eV
  | ---------------------------
  | Total energy                  :        -157.06020387 Ha       -4273.82559704 eV
  | Total energy, T -> 0          :        -157.06020387 Ha       -4273.82559704 eV  <-- do not rely on this value for anything but (periodic) metals
  | Electronic free energy        :        -157.06020387 Ha       -4273.82559704 eV

  Derived energy quantities:
  | Kinetic energy                :         156.30814223 Ha        4253.36095871 eV
  | Electrostatic energy          :        -288.95804876 Ha       -7862.94856912 eV
  | Energy correction for multipole
  | error in Hartree potential    :           0.03248048 Ha           0.88383885 eV
  | Sum of eigenvalues per atom                           :        -202.51744915 eV
  | Total energy (T->0) per atom                          :        -356.15213309 eV  <-- do not rely on this value for anything but (periodic) metals
  | Electronic free energy per atom                       :        -356.15213309 eV

  Self-consistency convergence accuracy:
  | Change of charge density      :  0.6782E-02
  | Change of sum of eigenvalues  :  0.9287E+00 eV
  | Change of total energy        :  0.1390E-02 eV

  End self-consistency iteration #     7       :  max(cpu_time)    wall_clock(cpu1)
  | Time for this iteration                    :        0.532 s           0.530 s
  | Charge density update                      :        0.172 s           0.169 s
  | Density mixing                             :        0.012 s           0.011 s
  | Hartree multipole update                   :        0.012 s           0.009 s
  | Hartree multipole summation                :        0.164 s           0.165 s
  | Integration                                :        0.176 s           0.173 s
  | Solution of K.-S. eqns.                    :        0.004 s           0.002 s
  | Total energy evaluation                    :        0.000 s           0.001 s

  Partial memory accounting:
  | Current value for overall tracked memory usage on task 0  :           0.180 MB
  | Peak value for overall tracked memory usage on task 0     :           0.601 MB after allocating gradient_basis_wave
  | Largest tracked array allocation on task 0 so far         :           0.316 MB  when allocating gradient_basis_wave
  Note:  These values currently only include a subset of arrays which are explicitly tracked.
  The "true" memory usage will be greater.
------------------------------------------------------------

------------------------------------------------------------
          Begin self-consistency iteration #    8

  Date     :  20180214, Time     :  163904.375
------------------------------------------------------------
  Evaluating new KS density.
  Integration grid: deviation in total charge (<rho> - N_e) =   0.000000E+00
  Pulay mixing of updated and previous charge densities.

  Evaluating partitioned Hartree potential by multipole expansion.
  | Analytical far-field extrapolation by fixed multipoles:
  | Hartree multipole sum: apparent total charge =  -0.525451E-03
  Summing up the Hartree potential.
  Time summed over all CPUs for potential: real work        1.112 s, elapsed        1.124 s
  | RMS charge density error from multipole expansion :   0.230766E-01

  Integrating Hamiltonian matrix: batch-based integration.
  Time summed over all CPUs for integration: real work        1.205 s, elapsed        1.249 s

  Updating Kohn-Sham eigenvalues, eigenvectors, occupation numbers, and Fermi level.
  Solving generalized eigenproblem
  Updating Kohn-Sham eigenvalues and eigenfunctions.
  Solving real generalised eigenvalue problem by standard LAPACK (fast)

  Obtaining occupation numbers and chemical potential using ELSI.
  | Chemical potential (Fermi level):    -3.98387542eV
  Highest occupied state (VBM) at     -5.78034866 eV
  | Occupation number:      2.00000000

  Lowest unoccupied state (CBM) at    -0.29493996 eV
  | Occupation number:      0.00000000

  Overall HOMO-LUMO gap:      5.48540871 eV.

  Total energy components:
  | Sum of eigenvalues            :         -89.24260668 Ha       -2428.41488426 eV
  | XC energy correction          :         -24.41671291 Ha        -664.41256316 eV
  | XC potential correction       :          31.36801421 Ha         853.56709565 eV
  | Free-atom electrostatic energy:         -67.98835321 Ha       -1850.05722084 eV
  | Hartree energy correction     :          -6.78050430 Ha        -184.50690966 eV
  | vdW energy correction         :           0.00000000 Ha           0.00000000 eV
  | Entropy correction            :           0.00000000 Ha           0.00000000 eV
  | ---------------------------
  | Total energy                  :        -157.06016290 Ha       -4273.82448226 eV
  | Total energy, T -> 0          :        -157.06016290 Ha       -4273.82448226 eV  <-- do not rely on this value for anything but (periodic) metals
  | Electronic free energy        :        -157.06016290 Ha       -4273.82448226 eV

  Derived energy quantities:
  | Kinetic energy                :         156.31188232 Ha        4253.46273179 eV
  | Electrostatic energy          :        -288.95533231 Ha       -7862.87465089 eV
  | Energy correction for multipole
  | error in Hartree potential    :           0.03210548 Ha           0.87363455 eV
  | Sum of eigenvalues per atom                           :        -202.36790702 eV
  | Total energy (T->0) per atom                          :        -356.15204019 eV  <-- do not rely on this value for anything but (periodic) metals
  | Electronic free energy per atom                       :        -356.15204019 eV

  Self-consistency convergence accuracy:
  | Change of charge density      :  0.4877E-02
  | Change of sum of eigenvalues  :  0.1795E+01 eV
  | Change of total energy        :  0.1115E-02 eV

  End self-consistency iteration #     8       :  max(cpu_time)    wall_clock(cpu1)
  | Time for this iteration                    :        0.512 s           0.514 s
  | Charge density update                      :        0.160 s           0.158 s
  | Density mixing                             :        0.012 s           0.011 s
  | Hartree multipole update                   :        0.012 s           0.009 s
  | Hartree multipole summation                :        0.160 s           0.158 s
  | Integration                                :        0.176 s           0.175 s
  | Solution of K.-S. eqns.                    :        0.004 s           0.002 s
  | Total energy evaluation                    :        0.000 s           0.001 s

  Partial memory accounting:
  | Current value for overall tracked memory usage on task 0  :           0.180 MB
  | Peak value for overall tracked memory usage on task 0     :           0.601 MB after allocating gradient_basis_wave
  | Largest tracked array allocation on task 0 so far         :           0.316 MB  when allocating gradient_basis_wave
  Note:  These values currently only include a subset of arrays which are explicitly tracked.
  The "true" memory usage will be greater.
------------------------------------------------------------

------------------------------------------------------------
          Begin self-consistency iteration #    9

  Date     :  20180214, Time     :  163904.890
------------------------------------------------------------
  Evaluating new KS density.
  Integration grid: deviation in total charge (<rho> - N_e) =  -1.776357E-14
  Pulay mixing of updated and previous charge densities.

  Evaluating partitioned Hartree potential by multipole expansion.
  | Analytical far-field extrapolation by fixed multipoles:
  | Hartree multipole sum: apparent total charge =  -0.527258E-03
  Summing up the Hartree potential.
  Time summed over all CPUs for potential: real work        1.115 s, elapsed        1.127 s
  | RMS charge density error from multipole expansion :   0.230868E-01

  Integrating Hamiltonian matrix: batch-based integration.
  Time summed over all CPUs for integration: real work        1.160 s, elapsed        1.189 s

  Updating Kohn-Sham eigenvalues, eigenvectors, occupation numbers, and Fermi level.
  Solving generalized eigenproblem
  Updating Kohn-Sham eigenvalues and eigenfunctions.
  Solving real generalised eigenvalue problem by standard LAPACK (fast)

  Obtaining occupation numbers and chemical potential using ELSI.
  | Chemical potential (Fermi level):    -3.97363793eV
  Highest occupied state (VBM) at     -5.76799053 eV
  | Occupation number:      2.00000000

  Lowest unoccupied state (CBM) at    -0.28286017 eV
  | Occupation number:      0.00000000

  Overall HOMO-LUMO gap:      5.48513036 eV.

  Total energy components:
  | Sum of eigenvalues            :         -89.22838549 Ha       -2428.02790601 eV
  | XC energy correction          :         -24.41826821 Ha        -664.45488513 eV
  | XC potential correction       :          31.37003885 Ha         853.62218887 eV
  | Free-atom electrostatic energy:         -67.98835321 Ha       -1850.05722084 eV
  | Hartree energy correction     :          -6.79519456 Ha        -184.90665181 eV
  | vdW energy correction         :           0.00000000 Ha           0.00000000 eV
  | Entropy correction            :           0.00000000 Ha           0.00000000 eV
  | ---------------------------
  | Total energy                  :        -157.06016263 Ha       -4273.82447491 eV
  | Total energy, T -> 0          :        -157.06016263 Ha       -4273.82447491 eV  <-- do not rely on this value for anything but (periodic) metals
  | Electronic free energy        :        -157.06016263 Ha       -4273.82447491 eV

  Derived energy quantities:
  | Kinetic energy                :         156.31504335 Ha        4253.54874779 eV
  | Electrostatic energy          :        -288.95693777 Ha       -7862.91833757 eV
  | Energy correction for multipole
  | error in Hartree potential    :           0.03205704 Ha           0.87231650 eV
  | Sum of eigenvalues per atom                           :        -202.33565883 eV
  | Total energy (T->0) per atom                          :        -356.15203958 eV  <-- do not rely on this value for anything but (periodic) metals
  | Electronic free energy per atom                       :        -356.15203958 eV

  Self-consistency convergence accuracy:
  | Change of charge density      :  0.7938E-03
  | Change of sum of eigenvalues  :  0.3870E+00 eV
  | Change of total energy        :  0.7349E-05 eV

  End self-consistency iteration #     9       :  max(cpu_time)    wall_clock(cpu1)
  | Time for this iteration                    :        0.568 s           0.567 s
  | Charge density update                      :        0.216 s           0.218 s
  | Density mixing                             :        0.012 s           0.012 s
  | Hartree multipole update                   :        0.012 s           0.009 s
  | Hartree multipole summation                :        0.160 s           0.158 s
  | Integration                                :        0.168 s           0.167 s
  | Solution of K.-S. eqns.                    :        0.004 s           0.002 s
  | Total energy evaluation                    :        0.000 s           0.001 s

  Partial memory accounting:
  | Current value for overall tracked memory usage on task 0  :           0.180 MB
  | Peak value for overall tracked memory usage on task 0     :           0.601 MB after allocating gradient_basis_wave
  | Largest tracked array allocation on task 0 so far         :           0.316 MB  when allocating gradient_basis_wave
  Note:  These values currently only include a subset of arrays which are explicitly tracked.
  The "true" memory usage will be greater.
------------------------------------------------------------

------------------------------------------------------------
          Begin self-consistency iteration #   10

  Date     :  20180214, Time     :  163905.458
------------------------------------------------------------
  Evaluating new KS density.
  Integration grid: deviation in total charge (<rho> - N_e) =   1.421085E-14
  Pulay mixing of updated and previous charge densities.

  Evaluating partitioned Hartree potential by multipole expansion.
  | Analytical far-field extrapolation by fixed multipoles:
  | Hartree multipole sum: apparent total charge =  -0.527084E-03
  Summing up the Hartree potential.
  Time summed over all CPUs for potential: real work        1.114 s, elapsed        1.126 s
  | RMS charge density error from multipole expansion :   0.230862E-01

  Integrating Hamiltonian matrix: batch-based integration.
  Time summed over all CPUs for integration: real work        1.175 s, elapsed        1.202 s

[...]
  |   Hirshfeld dipole moment :      0.08810168
  |   Hirshfeld second moments:      0.09902036       0.00389849       0.00846863
  |                                  0.00389849       0.10953307      -0.00580032
  |                                  0.00846863      -0.00580032       0.09519090
  ----------------------------------------------------------------------
  | Atom     8: H
  |   Hirshfeld charge        :      0.03773517
  |   Free atom volume        :      9.95071624
  |   Hirshfeld volume        :      6.48249287
  |   Hirshfeld dipole vector :      0.00500860       0.08826366       0.00000000
  |   Hirshfeld dipole moment :      0.08840565
  |   Hirshfeld second moments:      0.09901371      -0.00154580       0.00000000
  |                                 -0.00154580       0.08591227       0.00000000
  |                                  0.00000000       0.00000000       0.09932203
  ----------------------------------------------------------------------
  | Atom     9: H
  |   Hirshfeld charge        :      0.03773517
  |   Free atom volume        :      9.95071624
  |   Hirshfeld volume        :      6.48249287
  |   Hirshfeld dipole vector :     -0.00500860      -0.08826366       0.00000000
  |   Hirshfeld dipole moment :      0.08840565
  |   Hirshfeld second moments:      0.09901371      -0.00154580       0.00000000
  |                                 -0.00154580       0.08591227      -0.00000000
  |                                  0.00000000      -0.00000000       0.09932203
  ----------------------------------------------------------------------
  | Atom    10: H
  |   Hirshfeld charge        :      0.04164363
  |   Free atom volume        :      9.95071624
  |   Hirshfeld volume        :      6.28980259
  |   Hirshfeld dipole vector :      0.00869352       0.08730583      -0.00000000
  |   Hirshfeld dipole moment :      0.08773759
  |   Hirshfeld second moments:      0.10007390      -0.00151074      -0.00000000
  |                                 -0.00151074       0.08633495      -0.00000000
  |                                 -0.00000000      -0.00000000       0.10867168
  ----------------------------------------------------------------------
  | Atom    11: H
  |   Hirshfeld charge        :      0.04211282
  |   Free atom volume        :      9.95071624
  |   Hirshfeld volume        :      6.13949058
  |   Hirshfeld dipole vector :      0.04564669      -0.02947063       0.06935249
  |   Hirshfeld dipole moment :      0.08810168
  |   Hirshfeld second moments:      0.09902036       0.00389849      -0.00846863
  |                                  0.00389849       0.10953307       0.00580032
  |                                 -0.00846863       0.00580032       0.09519090
  ----------------------------------------------------------------------
  | Atom    12: H
  |   Hirshfeld charge        :      0.04211282
  |   Free atom volume        :      9.95071624
  |   Hirshfeld volume        :      6.13949058
  |   Hirshfeld dipole vector :      0.04564669      -0.02947063      -0.06935249
  |   Hirshfeld dipole moment :      0.08810168
  |   Hirshfeld second moments:      0.09902036       0.00389849       0.00846863
  |                                  0.00389849       0.10953307      -0.00580032
  |                                  0.00846863      -0.00580032       0.09519090
  ----------------------------------------------------------------------


  Total energy components:
  | Sum of eigenvalues            :         -89.22998061 Ha       -2428.07131122 eV
  | XC energy correction          :         -24.41817279 Ha        -664.45228870 eV
  | XC potential correction       :          31.36991156 Ha         853.61872512 eV
  | Free-atom electrostatic energy:         -67.98835321 Ha       -1850.05722084 eV
  | Hartree energy correction     :          -6.79356789 Ha        -184.86238806 eV
  | vdW energy correction         :          -0.00201763 Ha          -0.05490240 eV
  | Entropy correction            :           0.00000000 Ha           0.00000000 eV
  | ---------------------------
  | Total energy                  :        -157.06218058 Ha       -4273.87938609 eV
  | Total energy, T -> 0          :        -157.06218058 Ha       -4273.87938609 eV  <-- do not rely on this value for anything but (periodic) metals
  | Electronic free energy        :        -157.06218058 Ha       -4273.87938609 eV

  Derived energy quantities:
  | Kinetic energy                :         156.31498409 Ha        4253.54713523 eV
  | Electrostatic energy          :        -288.95697425 Ha       -7862.91933023 eV
  | Energy correction for multipole
  | error in Hartree potential    :           0.03206626 Ha           0.87256723 eV
  | Sum of eigenvalues per atom                           :        -202.33927594 eV
  | Total energy (T->0) per atom                          :        -356.15661551 eV  <-- do not rely on this value for anything but (periodic) metals
  | Electronic free energy per atom                       :        -356.15661551 eV

  atomic forces [eV/Ang]:
  -----------------------
  atom #    1
   Hellmann-Feynman              :  0.352207E+00  0.924413E-01 -0.112944E-12
   Ionic forces                  :  0.000000E+00  0.000000E+00  0.000000E+00
   Multipole                     : -0.653643E+00 -0.212411E+00  0.646722E-13
   Pulay + GGA                   :  0.295711E+00  0.117847E+00  0.308286E-12
   Van der Waals                 :  0.503814E-03  0.370513E-02 -0.152447E-18
   ----------------------------------------------------------------
   Total forces(   1)            : -0.522072E-02  0.158324E-02  0.260013E-12
  atom #    2
   Hellmann-Feynman              :  0.195549E+01 -0.650196E+00  0.231517E-12
   Ionic forces                  :  0.000000E+00  0.000000E+00  0.000000E+00
   Multipole                     : -0.152167E+00  0.103991E-01 -0.480581E-14
   Pulay + GGA                   : -0.189153E+01  0.689639E+00 -0.156997E-12
   Van der Waals                 :  0.161667E-03 -0.157988E-02  0.348449E-17
   ----------------------------------------------------------------
   Total forces(   2)            : -0.880426E-01  0.482628E-01  0.697172E-13
  atom #    3
   Hellmann-Feynman              : -0.195549E+01  0.650196E+00 -0.391427E-13
   Ionic forces                  :  0.000000E+00  0.000000E+00  0.000000E+00
   Multipole                     :  0.152167E+00 -0.103991E-01 -0.331835E-13
   Pulay + GGA                   :  0.189153E+01 -0.689639E+00 -0.137016E-12
   Van der Waals                 : -0.161667E-03  0.157988E-02 -0.178580E-17
   ----------------------------------------------------------------
   Total forces(   3)            :  0.880426E-01 -0.482628E-01 -0.209344E-12
  atom #    4
   Hellmann-Feynman              : -0.352207E+00 -0.924413E-01 -0.443498E-12
   Ionic forces                  :  0.000000E+00  0.000000E+00  0.000000E+00
   Multipole                     :  0.653643E+00  0.212411E+00 -0.776067E-14
   Pulay + GGA                   : -0.295711E+00 -0.117847E+00  0.411048E-12
   Van der Waals                 : -0.503814E-03 -0.370513E-02 -0.160613E-18
   ----------------------------------------------------------------
   Total forces(   4)            :  0.522072E-02 -0.158324E-02 -0.402112E-13
  atom #    5
   Hellmann-Feynman              :  0.751491E-01 -0.331996E-01 -0.162038E-14
   Ionic forces                  :  0.000000E+00  0.000000E+00  0.000000E+00
   Multipole                     : -0.662865E-01 -0.115141E+00 -0.451591E-15
   Pulay + GGA                   : -0.492764E-02  0.113362E+00  0.422655E-13
   Van der Waals                 : -0.698644E-02  0.849149E-03  0.707788E-19
   ----------------------------------------------------------------
   Total forces(   5)            : -0.305141E-02 -0.341293E-01  0.401936E-13
  atom #    6
   Hellmann-Feynman              :  0.149324E-01  0.440560E-01 -0.273231E-01
   Ionic forces                  :  0.000000E+00  0.000000E+00  0.000000E+00
   Multipole                     : -0.874910E-01  0.787267E-02 -0.719106E-01
   Pulay + GGA                   :  0.608910E-01 -0.394821E-01  0.757355E-01
   Van der Waals                 :  0.513638E-03 -0.335423E-02 -0.977894E-03
   ----------------------------------------------------------------
   Total forces(   6)            : -0.111540E-01  0.909242E-02 -0.244761E-01
  atom #    7
   Hellmann-Feynman              :  0.149324E-01  0.440560E-01  0.273231E-01
   Ionic forces                  :  0.000000E+00  0.000000E+00  0.000000E+00
   Multipole                     : -0.874910E-01  0.787267E-02  0.719106E-01
   Pulay + GGA                   :  0.608910E-01 -0.394821E-01 -0.757355E-01
   Van der Waals                 :  0.513638E-03 -0.335423E-02  0.977894E-03
   ----------------------------------------------------------------
   Total forces(   7)            : -0.111540E-01  0.909242E-02  0.244761E-01
  atom #    8
   Hellmann-Feynman              : -0.343655E-01  0.146975E-01 -0.170752E-14
   Ionic forces                  :  0.000000E+00  0.000000E+00  0.000000E+00
   Multipole                     :  0.602924E-01  0.137323E+00 -0.423715E-15
   Pulay + GGA                   : -0.157936E-01 -0.111904E+00  0.165026E-13
   Van der Waals                 : -0.725290E-03  0.297607E-02  0.108890E-17
   ----------------------------------------------------------------
   Total forces(   8)            :  0.940806E-02  0.430917E-01  0.143724E-13
  atom #    9
   Hellmann-Feynman              :  0.343655E-01 -0.146975E-01  0.564536E-14
   Ionic forces                  :  0.000000E+00  0.000000E+00  0.000000E+00
   Multipole                     : -0.602924E-01 -0.137323E+00 -0.356812E-15
   Pulay + GGA                   :  0.157936E-01  0.111904E+00  0.313549E-13
   Van der Waals                 :  0.725290E-03 -0.297607E-02  0.696899E-18
   ----------------------------------------------------------------
   Total forces(   9)            : -0.940806E-02 -0.430917E-01  0.366441E-13
  atom #   10
   Hellmann-Feynman              : -0.751491E-01  0.331996E-01 -0.199030E-14
   Ionic forces                  :  0.000000E+00  0.000000E+00  0.000000E+00
   Multipole                     :  0.662865E-01  0.115141E+00 -0.345662E-15
   Pulay + GGA                   :  0.492764E-02 -0.113362E+00  0.601006E-14
   Van der Waals                 :  0.698644E-02 -0.849149E-03 -0.130669E-18
   ----------------------------------------------------------------
   Total forces(  10)            :  0.305141E-02  0.341293E-01  0.367396E-14
  atom #   11
   Hellmann-Feynman              : -0.149324E-01 -0.440560E-01  0.273231E-01
   Ionic forces                  :  0.000000E+00  0.000000E+00  0.000000E+00
   Multipole                     :  0.874910E-01 -0.787267E-02  0.719106E-01
   Pulay + GGA                   : -0.608910E-01  0.394821E-01 -0.757355E-01
   Van der Waals                 : -0.513638E-03  0.335423E-02  0.977894E-03
   ----------------------------------------------------------------
   Total forces(  11)            :  0.111540E-01 -0.909242E-02  0.244761E-01
  atom #   12
   Hellmann-Feynman              : -0.149324E-01 -0.440560E-01 -0.273231E-01
   Ionic forces                  :  0.000000E+00  0.000000E+00  0.000000E+00
   Multipole                     :  0.874910E-01 -0.787267E-02 -0.719106E-01
   Pulay + GGA                   : -0.608910E-01  0.394821E-01  0.757355E-01
   Van der Waals                 : -0.513638E-03  0.335423E-02 -0.977894E-03
   ----------------------------------------------------------------
   Total forces(  12)            :  0.111540E-01 -0.909242E-02 -0.244761E-01

  Timings for VdW correction (Tkatchenko-Scheffler 2009 or later):
  | CPU time:        0.036 s, Wall clock time:        0.039 s.
  Removing unitary transformations (pure translations, rotations) from forces on atoms.
  Atomic forces before filtering:
  | Net force on center of mass :  -0.499808E-12 -0.939866E-13  0.150881E-12 eV/A
  | Net torque on center of mass:   0.356864E-13  0.101737E-11 -0.112030E-02 eV
  Atomic forces after filtering:
  | Net force on center of mass :  -0.139380E-16  0.167256E-16 -0.111504E-16 eV/A
  | Net torque on center of mass:   0.295026E-17  0.236021E-16 -0.346656E-16 eV

  Energy and forces in a compact form:
  | Total energy uncorrected      :         -0.427387938609454E+04 eV
  | Total energy corrected        :         -0.427387938609454E+04 eV  <-- do not rely on this value for anything but (periodic) metals
  | Electronic free energy        :         -0.427387938609454E+04 eV
  Total atomic forces (unitary forces cleaned) [eV/Ang]:
  |   1         -0.521870130888867E-02          0.153904494793284E-02          0.203367539207962E-12
  |   2         -0.880514237376621E-01          0.482505963102063E-01          0.429633884720076E-13
  |   3          0.880514237376362E-01         -0.482505963110518E-01         -0.207738927393923E-12
  |   4          0.521870130861730E-02         -0.153904494722078E-02         -0.871408195482236E-14
  |   5         -0.302464971141289E-02         -0.341747225803586E-01         -0.124225252603086E-13
  |   6         -0.111602727222287E-01          0.903587079180737E-02         -0.244760646654804E-01
  |   7         -0.111602727222497E-01          0.903587079179942E-02          0.244760646653685E-01
  |   8          0.937469199075889E-02          0.430827363335661E-01         -0.143426549675016E-13
  |   9         -0.937469199066325E-02         -0.430827363334813E-01          0.402104084551923E-13
  |  10          0.302464971150418E-02          0.341747225802857E-01          0.311413269688504E-13
  |  11          0.111602727222666E-01         -0.903587079173367E-02          0.244760646653837E-01
  |  12          0.111602727223221E-01         -0.903587079175162E-02         -0.244760646653463E-01

  ------------------------------------ 
  Start decomposition of the XC Energy 
  ------------------------------------ 
  X and C from original XC functional choice 
  Hartree-Fock Energy :          0.000000000 Ha              0.000000000 eV
  X Energy            :        -23.401889574 Ha           -636.797815234 eV
  C Energy            :         -1.016283220 Ha            -27.654473462 eV
  Total XC Energy     :        -24.418172794 Ha           -664.452288697 eV
  ------------------------------------ 
  LDA X and C from self-consistent density 
  X Energy LDA        :        -21.154969515 Ha           -575.656009560 eV
  C Energy LDA        :         -1.974703530 Ha            -53.734417027 eV
  ------------------------------------ 
  End decomposition of the XC Energy 
  ------------------------------------ 

------------------------------------------------------------

------------------------------------------------------------------------------
  Final output of selected total energy values:

  The following output summarizes some interesting total energy values
  at the end of a run (AFTER all relaxation, molecular dynamics, etc.).

  | Total energy of the DFT / Hartree-Fock s.c.f. calculation      :          -4273.879386095 eV
  | Final zero-broadening corrected energy (caution - metals only) :          -4273.879386095 eV
  | For reference only, the value of 1 Hartree used in FHI-aims is :             27.211384500 eV

  Before relying on these values, please be sure to understand exactly which
  total energy value is referred to by a given number. Different objects may
  all carry the same name 'total energy'. Definitions:

  Total energy of the DFT / Hartree-Fock s.c.f. calculation:
  | Note that this energy does not include ANY quantities calculated after the
  | s.c.f. cycle, in particular not ANY RPA, MP2, etc. many-body perturbation terms.

  Final zero-broadening corrected energy:
  | For metallic systems only, a broadening of the occupation numbers at the Fermi
  | level can be extrapolated back to zero broadening by an electron-gas inspired
  | formula. For all systems that are not real metals, this value can be
  | meaningless and should be avoided.

------------------------------------------------------------------------------
  Methods described in the following list of references were used in this FHI-aims run.
  If you publish the results, please make sure to cite these reference if they apply.
  FHI-aims is an academic code, and for our developers (often, Ph.D. students
  and postdocs), scientific credit in the community is essential.
  Thank you for helping us!

  For any use of FHI-aims, please cite:

    Volker Blum, Ralf Gehrke, Felix Hanke, Paula Havu, Ville Havu,
    Xinguo Ren, Karsten Reuter, and Matthias Scheffler
    'Ab initio molecular simulations with numeric atom-centered orbitals'
    Computer Physics Communications 180, 2175-2196 (2009)
    http://dx.doi.org/10.1016/j.cpc.2009.06.022


  For the real-space grid partitioning and parallelization used in this calculation, please cite:

    Ville Havu, Volker Blum, Paula Havu, and Matthias Scheffler,
    'Efficient O(N) integration for all-electron electronic structure calculation'
    'using numerically tabulated basis functions'
    Journal of Computational Physics 228, 8367-8379 (2009).
    http://dx.doi.org/10.1016/j.jcp.2009.08.008

  Of course, there are many other important community references, e.g., those cited in the
  above references. Our list is limited to references that describe implementations in the
  FHI-aims code. The reason is purely practical (length of this list) - please credit others as well.

------------------------------------------------------------
          Leaving FHI-aims.
          Date     :  20180214, Time     :  163908.920

          Computational steps:
          | Number of self-consistency cycles          :           14
          | Number of SCF (re)initializations          :            1

          Detailed time accounting                     :  max(cpu_time)    wall_clock(cpu1)
          | Total time                                 :        8.620 s           8.689 s
          | Preparation time                           :        0.128 s           0.133 s
          | Boundary condition initalization           :        0.000 s           0.000 s
          | Grid partitioning                          :        0.052 s           0.050 s
          | Preloading free-atom quantities on grid    :        0.004 s           0.003 s
          | Free-atom superposition energy             :        0.024 s           0.020 s
          | Total time for integrations                :        2.640 s           2.617 s
          | Total time for solution of K.-S. equations :        0.068 s           0.039 s
          | Total time for density & force components  :        2.740 s           2.731 s
          | Total time for mixing                      :        0.136 s           0.127 s
          | Total time for Hartree multipole update    :        0.168 s           0.137 s
          | Total time for Hartree multipole sum       :        2.680 s           2.663 s
          | Total time for total energy evaluation     :        0.004 s           0.016 s
          | Total time for vdW correction              :        0.036 s           0.039 s

          Partial memory accounting:
          | Residual value for overall tracked memory usage across tasks :           0.000 MB (should be 0.000 MB)
          | Peak values for overall tracked memory usage (after allocating hessian_basis_wave):
          |   Minimum:        1.337 MB (on task 1)
          |   Maximum:        1.337 MB (on task 1)
          |   Average:        1.337 MB
          | Largest tracked array allocation (hessian_basis_wave):
          |   Minimum:        0.631 MB (on task 1)
          |   Maximum:        0.631 MB (on task 1)
          |   Average:        0.631 MB
          Note:  These values currently only include a subset of arrays which are explicitly tracked.
          The "true" memory usage will be greater.

          Have a nice day.
------------------------------------------------------------
