  MPI-parallelism will be employed.
------------------------------------------------------------
          Invoking FHI-aims ...
          Version 040814
          Git rev.: abd9f93 Merge fhiaims.rzberlin.mpg.de:/pub/localor[...]
          Compiled on 2014/04/10 at 17:11:54 on host riki.

          When using FHI-aims, please cite the following reference:

          Volker Blum, Ralf Gehrke, Felix Hanke, Paula Havu,
          Ville Havu, Xinguo Ren, Karsten Reuter, and Matthias Scheffler,
          'Ab Initio Molecular Simulations with Numeric Atom-Centered Orbitals: FHI-aims',
          Computer Physics Communications 180, 2175-2196 (2009)

          For any questions about FHI-aims, please visit the aimsclub website
          with its forums and wiki. Contributions to both the forums and the
          wiki are warmly encouraged - they are for you, and everyone is welcome there.

------------------------------------------------------------

  Date     :  20140415, Time     :  110909.706
  Time zero on CPU 1             :   0.360020000000000E-01  s.
  Internal wall clock time zero  :           166792149.706  s.

  Using        4 parallel tasks.
  Task        0 on host riki reporting.
  Task        1 on host riki reporting.
  Task        2 on host riki reporting.
  Task        3 on host riki reporting.

  Performing system and environment tests:
  | Environment variable OMP_NUM_THREADS correctly set to 1.
  | Stacksize not measured: no C compiler
  | Checking for scalapack...
  | No scalapack compiled in.

  Obtaining array dimensions for all initial allocations:
  
  -----------------------------------------------------------------------
  Parsing control.in (first pass over file, find array dimensions only).
  The contents of control.in will be repeated verbatim below
  unless switched off by setting 'verbatim_writeout .false.' .
  in the first line of control.in .
  -----------------------------------------------------------------------
  
  #########################################################################################
  #
  #  input file :  au15 - benzene - au15 cluster
  #
  #########################################################################################
  #
  #  Physical model
  #
    xc                 pbe
    spin               none
    charge             0.
  #
  #  SCF convergence
  #
    occupation_type    gaussian 0.01
    mixer              pulay
      n_max_pulay        10
      charge_mix_param   0.2
    sc_accuracy_rho    1E-4
    sc_accuracy_eev    1E-2
    sc_accuracy_etot   1E-6
  #  sc_accuracy_forces 1E-4
    sc_iter_limit      1000
  #
  #  Relaxation
  #
  #  relax_geometry   bfgs 1.e-2
  #
  
  #  Output orbitals/wavefunctions?
  #   output eigenvectors
  #   output matrices
  
     k_grid 1 1 12
  
  #   hartree_fp_function_splines .false.
  #   hartree_convergence_parameter 5
  
  #   KS_method        scalapack_fast
  
  #  output all empty KS energies
  #   empty_states 100
  #
  #  scalar-relativistic treatment
     relativistic atomic_zora scalar
  #  override relativistic description
  #   override_relativity  .true.
  #
  
  
  
  #   transport lead_calculation
  
     transport transport_calculation
  
     transport tunneling_file_name tunne
     transport energy_range -3.0 3.0 500
  
     transport lead_1 1 lead_1
     transport lead_2 12 lead_2
  
     transport number_of_boundary_iterations 400
     transport epsilon_end 0.00001
     transport epsilon_start 0.1
  ################################################################################
  #
  #  FHI-aims code project
  #  VB, Fritz-Haber Institut, 2009
  #
  #  Suggested "light" defaults for Au atom (to be pasted into control.in file)
  #  Be sure to double-check any results obtained with these settings for post-processing,
  #  e.g., with the "tight" defaults and larger basis sets.
  #
  ################################################################################
    species        Au
  #     global species definitions
      nucleus             79
      mass                196.966569
  #
      l_hartree           4
  #
      cut_pot             3.5  1.5  1.0
      basis_dep_cutoff    1e-4
  #
      radial_base         73 5.0
      radial_multiplier   1
      angular_grids specified
        division   0.5066   50
        division   0.9861  110
        division   1.2821  194
        division   1.5344  302
  #      division   2.0427  434
  #      division   2.1690  590
  #      division   2.2710  770
  #      division   2.3066  974
  #      division   2.7597 1202
  #      outer_grid 974
        outer_grid 302
  ################################################################################
  #
  #  Definition of "minimal" basis
  #
  ################################################################################
  #     valence basis states
      valence      6  s   1.
      valence      5  p   6.
      valence      5  d  10.
      valence      4  f  14.
  #     ion occupancy
      ion_occ     6  s   0.
      ion_occ     5  p   6.
      ion_occ     5  d   9.
      ion_occ     4  f   14.
  ################################################################################
  #
  #  Suggested additional basis functions. For production calculations,
  #  uncomment them one after another (the most important basis functions are
  #  listed first).
  #
  #  Constructed for dimers: 2.10, 2.45, 3.00, 4.00 AA
  #
  ################################################################################
  #  "First tier" - max. impr. -161.60  meV, min. impr. -4.53 meV
       ionic 6 p auto
       hydro 4 f 7.4
       ionic 6 s auto
  #     hydro 5 g 10
  #     hydro 6 h 12.8
       hydro 3 d 2.5
  #  "Second tier" - max. impr. -2.46  meV, min. impr. -0.28 meV
  #     hydro 5 f 14.8
  #     hydro 4 d 3.9
  #     hydro 3 p 3.3
  #     hydro 1 s 0.45
  #     hydro 5 g 16.4
  #     hydro 6 h 13.6
  #  "Third tier" - max. impr. -0.49  meV, min. impr. -0.09 meV
  #     hydro 4 f 5.2
  #     hydro 4 d 5
  #     hydro 5 g 8
  #     hydro 5 p 8.2
  #     hydro 6 d 12.4
  #     hydro 6 s 14.8
  #  Further basis functions: -0.08 meV and below
  #     hydro 5 f 18.8
  #     hydro 5 g 20
  #    hydro 5 g 15.2
  ################################################################################
  #
  #  FHI-aims code project
  #  VB, Fritz-Haber Institut, 2009
  #
  #  Suggested "light" defaults for Ag atom (to be pasted into control.in file)
  #  Be sure to double-check any results obtained with these settings for post-processing,
  #  e.g., with the "tight" defaults and larger basis sets.
  #
  ################################################################################
    species        Ag
  #     global species definitions
      nucleus             47
      mass                107.8682
  #
      l_hartree           4
  #
      cut_pot             3.5  1.5  1.0
      basis_dep_cutoff    1e-4
  #
      radial_base         62 5.0
      radial_multiplier   1
      angular_grids specified
        division   0.5617   50
        division   0.9788  110
        division   1.2700  194
        division   1.5678  302
  #      division   2.1195  434
  #      division   2.1949  590
  #      division   2.2741  770
  #      division   2.8497 1202
  #      outer_grid  974
        outer_grid  302
  ################################################################################
  #
  #  Definition of "minimal" basis
  #
  ################################################################################
  #     valence basis states
      valence      5  s   1.
      valence      4  p   6.
      valence      4  d  10.
  #     ion occupancy
      ion_occ     5  s   0.
      ion_occ     4  p   6.
      ion_occ     4  d   9.
  ################################################################################
  #
  #  Suggested additional basis functions. For production calculations,
  #  uncomment them one after another (the most important basis functions are
  #  listed first).
  #
  #  Constructed for dimers: 2.1 A, 2.45 A, 3.00 A, 4.00 A
  #
  ################################################################################
  #  "First tier" - max. impr. -144.99  meV, min. impr. -3.42 meV
       ionic 5 p auto
       hydro 4 f 7.6
       hydro 3 s 2.6
  #     hydro 5 g 9.8
       hydro 4 d 8.4
  #  "Second tier" - max. impr. -3.10  meV, min. impr. -0.64 meV
  #     hydro 5 f 16.8
  #     hydro 6 h 13.2
  #     hydro 4 p 5
  #     hydro 4 d 4.3
  #     hydro 5 s 17.2
  #  "Third tier" - max. impr. -0.48  meV, min. impr. -0.12 meV
  #     hydro 4 f 19.2
  #     hydro 5 f 8.4
  #     hydro 6 p 12
  #     hydro 5 g 12.8
  #     hydro 5 d 8.4
  #     hydro 5 s 5.8
  #     hydro 6 h 15.2
  
  
  
  -----------------------------------------------------------------------
  Completed first pass over input file control.in .
  -----------------------------------------------------------------------
  
  
  -----------------------------------------------------------------------
  Parsing geometry.in (first pass over file, find array dimensions only).
  The contents of geometry.in will be repeated verbatim below
  unless switched off by setting 'verbatim_writeout .false.' .
  in the first line of geometry.in .
  -----------------------------------------------------------------------
  
  # Geometry for the system and leads. The transport takes place
  # from the direction of negative x-axis to the direction of
  # positive x-axis. The atoms 1-5 correspond to lead number 1 and
  # atoms 11-15 to lead number 2.
  
  lattice_vector   0.0000000000e+00    5.0000000000e+01   0.0000000000e+00
  lattice_vector   0.0000000000e+00    0.0000000000e+00   5.0000000000e+01
  lattice_vector   39.0000000000e+00   0.0000000000e+00   0.0000000000e+00
  
  # lead 1
  atom   0.0000000000e+00   0.0000000000e+00   0.0000000000e+00 Au
  atom   2.6000000000e+00   0.0000000000e+00   0.0000000000e+00 Au
  atom   5.2000000000e+00   0.0000000000e+00   0.0000000000e+00 Au
  atom   7.8000000000e+00   0.0000000000e+00   0.0000000000e+00 Au
  
  # system along the x-axis, this is the "device" region
  atom   10.4000000000e+00   0.0000000000e+00   0.0000000000e+00 Au
  atom   13.0000000000e+00   0.0000000000e+00   0.0000000000e+00 Au
  atom   15.6000000000e+00   0.0000000000e+00   0.0000000000e+00 Au
  atom   18.2000000000e+00   0.0000000000e+00   0.0000000000e+00 Au
  atom   20.8000000000e+00   0.0000000000e+00   0.0000000000e+00 Au
  atom   23.4000000000e+00   0.0000000000e+00   0.0000000000e+00 Au
  atom   26.0000000000e+00   0.0000000000e+00   0.0000000000e+00 Au
  
  # lead 2
  atom   28.6000000000e+00   0.0000000000e+00   0.0000000000e+00 Au
  atom   31.2000000000e+00   0.0000000000e+00   0.0000000000e+00 Au
  atom   33.8000000000e+00   0.0000000000e+00   0.0000000000e+00 Au
  atom   36.4000000000e+00   0.0000000000e+00   0.0000000000e+00 Au
  
  -----------------------------------------------------------------------
  Completed first pass over input file geometry.in .
  -----------------------------------------------------------------------
  
 
  Basic array size parameters: 
  | Number of species                 :        2
  | Number of atoms                   :       15
  | Number of lattice vectors         :        3
  | Max. basis fn. angular momentum   :        3
  | Max. atomic/ionic basis occupied n:        6
  | Max. number of basis fn. types    :        3
  | Max. radial fns per species/type  :       14
  | Max. logarithmic grid size        :     1488
  | Max. radial integration grid size :       73
  | Max. angular integration grid size:      302
  | Max. angular grid division number :        8
  | Radial grid for Hartree potential :     1488
  | Number of spin channels           :        1

------------------------------------------------------------
          Reading file control.in.
------------------------------------------------------------
  XC: Using PBE gradient-corrected functionals.
  Spin treatment: No spin polarisation.
  Charge =   0.000000E+00: Neutral system requested explicitly.
  Occupation type: Gaussian broadening, width =   0.100000E-01 eV.
  Using pulay charge density mixing.
  Pulay mixing - number of memorized iterations:   10
  Charge density mixing - mixing parameter:     0.2000
  Convergence accuracy of self-consistent charge density: 0.1000E-03
  Convergence accuracy of sum of eigenvalues: 0.1000E-01
  Convergence accuracy of total energy: 0.1000E-05
  Maximum number of s.-c. iterations  :  1000
  Found k-point grid:         1         1        12
  Scalar relativistic treatment of kinetic energy: on-site free-atom approximation to ZORA.
  |Tunneling propability is printed out to file: tunne
  |Tunneling propability in range:  -3.000eV -    3.000eV
  |Tunneling propability steps:  500
 | Lead 1: start atom:           1 ,file: lead_1
 | Lead 2: start atom:          12 ,file: lead_2
 | Number of boundary iterations set to :         400
 |End value for transport epsilon:   1.000000000000000E-005
 |Begin value for transport epsilon:   0.100000000000000     
 
  Reading configuration options for species Au                  .
  | Found nuclear charge :  79.0000
  | Found atomic mass :    196.966569000000      amu
  | Found l_max for Hartree potential  :   4
  | Found cutoff potl. onset [A], width [A], scale factor :    3.50000    1.50000    1.00000
  | Threshold for basis-dependent cutoff potential is   0.100000E-03
  | Found data for basic radial integration grid :    73 points, outermost radius =    5.000 A
  | Found multiplier for basic radial grid :   1
  | Found angular grid specification: user-specified.
  | Specified grid contains     5 separate shells.
  | Check grid settings after all constraints further below.
  | Found free-atom valence shell :  6 s   1.000
  | Found free-atom valence shell :  5 p   6.000
  | Found free-atom valence shell :  5 d  10.000
  | Found free-atom valence shell :  4 f  14.000
  | Found free-ion valence shell :  6 s   0.000
  | Found free-ion valence shell :  5 p   6.000
  | Found free-ion valence shell :  5 d   9.000
  | Found free-ion valence shell :  4 f  14.000
  | Found ionic basis function :  6 p , default cutoff radius.
  | Found hydrogenic basis function :  4 f   7.400
  | Found ionic basis function :  6 s , default cutoff radius.
  | Found hydrogenic basis function :  3 d   2.500
  Species Au                  : Missing cutoff potential type.
  Defaulting to exp(1/x)/(1-x)^2 type cutoff potential.
  Species Au: No 'logarithmic' tag. Using default grid for free atom:
  | Default logarithmic grid data [bohr] : 0.1000E-03 0.1000E+03 0.1012E+01
  | Will include ionic basis functions of  2.0-fold positive Au                   ion.
  Species Au: On-site basis accuracy parameter (for Gram-Schmidt orthonormalisation) not specified.
  Using default value basis_acc =  0.1000000E-03.
  Species Au                  : Using default innermost maximum threshold i_radial=  2 for radial functions.
  Species Au                  : Default cutoff onset for free atom density etc. : 0.35000000E+01 AA.
  Species Au                  : Basic radial grid will be enhanced according to radial_multiplier =   1, to contain    73 grid points.
 
  Reading configuration options for species Ag                  .
  | Found nuclear charge :  47.0000
  | Found atomic mass :    107.868200000000      amu
  | Found l_max for Hartree potential  :   4
  | Found cutoff potl. onset [A], width [A], scale factor :    3.50000    1.50000    1.00000
  | Threshold for basis-dependent cutoff potential is   0.100000E-03
  | Found data for basic radial integration grid :    62 points, outermost radius =    5.000 A
  | Found multiplier for basic radial grid :   1
  | Found angular grid specification: user-specified.
  | Specified grid contains     5 separate shells.
  | Check grid settings after all constraints further below.
  | Found free-atom valence shell :  5 s   1.000
  | Found free-atom valence shell :  4 p   6.000
  | Found free-atom valence shell :  4 d  10.000
  | Found free-ion valence shell :  5 s   0.000
  | Found free-ion valence shell :  4 p   6.000
  | Found free-ion valence shell :  4 d   9.000
  | Found ionic basis function :  5 p , default cutoff radius.
  | Found hydrogenic basis function :  4 f   7.600
  | Found hydrogenic basis function :  3 s   2.600
  | Found hydrogenic basis function :  4 d   8.400
  Species Ag                  : Missing cutoff potential type.
  Defaulting to exp(1/x)/(1-x)^2 type cutoff potential.
  Species Ag: No 'logarithmic' tag. Using default grid for free atom:
  | Default logarithmic grid data [bohr] : 0.1000E-03 0.1000E+03 0.1012E+01
  | Will include ionic basis functions of  2.0-fold positive Ag                   ion.
  Species Ag: On-site basis accuracy parameter (for Gram-Schmidt orthonormalisation) not specified.
  Using default value basis_acc =  0.1000000E-03.
  Species Ag                  : Using default innermost maximum threshold i_radial=  2 for radial functions.
  Species Ag                  : Default cutoff onset for free atom density etc. : 0.35000000E+01 AA.
  Species Ag                  : Basic radial grid will be enhanced according to radial_multiplier =   1, to contain    62 grid points.
 
  Finished reading input file 'control.in'. Consistency checks are next.
 
  Target number of points in a grid batch is not set. Defaulting to  100
  Method for grid partitioning is not set. Defaulting to parallel hash+maxmin partitioning.
  Batch size limit is not set. Defaulting to    200
  By default, will store active basis functions for each batch.
  If in need of memory, prune_basis_once .false. can be used to disable this option.
  communication_type for Hartree potential was not specified.
  Defaulting to calc_hartree .
  Pulay mixer: Number of initial linear mixing iterations not set.
  Defaulting to    0 iterations.
  Work space size for distributed Hartree potential not set.
  Defaulting to   0.200000E+03 MB.
  Algorithm-dependent basis array size parameters:
  | n_max_pulay                         :       10
  Calculation of forces was not defined in control.in. No forces will be calculated.
  Geometry relaxation not requested: no relaxation will be performed.
  No accuracy limit for integral partition fn. given. Defaulting to 0.1000E-14.
  No threshold value for u(r) in integrations given. Defaulting to 0.1000E-05.
  No accuracy for occupation numbers given. Defaulting to 0.1000E-07.
  No threshold value for occupation numbers given. Defaulting to 0.0000E+00.
  No accuracy for fermi level given. Defaulting to 0.1000E-19.
  Maximum # of iterations to find E_F not set. Defaulting to  200.
  Preferred method for the eigenvalue solver ('KS_method') not specified in 'control.in'.
  Defaulting to serial version, 'lapack_fast', since more k-points than CPUs available.
  Will not use alltoall communication since running on < 1024 CPUs.
  Threshold for basis singularities not set.
  Default threshold for basis singularities: 0.1000E-04
  partition_type (choice of integration weights) for integrals was not specified.
  | Using a version of the partition function of Stratmann and coworkers ('stratmann_smoother').
  | At each grid point, the set of atoms used to build the partition table is smoothly restricted to
  | only those atoms whose free-atom density would be non-zero at that grid point.
  Partitioning for Hartree potential was not defined. Using partition_type for integrals.
  | Adjusted default value of keyword multip_moments_threshold to:       0.10000000E-11
  | This value may affect high angular momentum components of the Hartree potential in periodic systems.
  Angular momentum expansion for Kerker preconditioner not set explicitly.
  | Using default value of   0
  No explicit requirement for turning off preconditioner.
  | By default, it will be turned off when the charge convergence reaches
  | sc_accuracy_rho  =   0.100000E-03
  | sc_accuracy_eev  =   0.100000E-01
  | sc_accuracy_etot =   0.100000E-05
  No special mixing parameter while Kerker preconditioner is on.
  Using default: charge_mix_param =     0.2000.
  No q(lm)/r^(l+1) cutoff set for long-range Hartree potential.
  | Using default value of  0.100000E-09 .
  | Verify using the multipole_threshold keyword.
  Defaulting to new monopole extrapolation.
  Density update method: automatic selection selected.
  Using density matrix based charge density update.
  Using density matrix based charge density update.
  Using packed matrix style: index .
  Defaulting to use time-reversal symmetry for k-point grid.
------------------------------------------------------------


------------------------------------------------------------
          Reading geometry description geometry.in.
------------------------------------------------------------
  Input structure read successfully.
  The structure contains       15 atoms,  and a total of       1185.000 electrons.

  Input geometry:
  | Unit cell:
  |         0.000000        50.000000         0.000000
  |         0.000000         0.000000        50.000000
  |        39.000000         0.000000         0.000000
  | Atomic structure:
  |       Atom                x [A]            y [A]            z [A]
  |    1: Species Au             0.000000         0.000000         0.000000
  |    2: Species Au             2.600000         0.000000         0.000000
  |    3: Species Au             5.200000         0.000000         0.000000
  |    4: Species Au             7.800000         0.000000         0.000000
  |    5: Species Au            10.400000         0.000000         0.000000
  |    6: Species Au            13.000000         0.000000         0.000000
  |    7: Species Au            15.600000         0.000000         0.000000
  |    8: Species Au            18.200000         0.000000         0.000000
  |    9: Species Au            20.800000         0.000000         0.000000
  |   10: Species Au            23.400000         0.000000         0.000000
  |   11: Species Au            26.000000         0.000000         0.000000
  |   12: Species Au            28.600000         0.000000         0.000000
  |   13: Species Au            31.200000         0.000000         0.000000
  |   14: Species Au            33.800000         0.000000         0.000000
  |   15: Species Au            36.400000         0.000000         0.000000
  |

  | The smallest distance between any two atoms is         2.60000000 AA.
  |
  | The first atom of this pair is atom number                      9 .
  | The second atom of this pair is atom number                    10 .
  | Wigner-Seitz cell of the first atom image           0     0     0 .
  | (The Wigner-Seitz cell of the second atom is 0 0 0  by definition.)

  Quantities derived from the lattice vectors:
  | Reciprocal lattice vector 1:  0.000000  0.125664  0.000000
  | Reciprocal lattice vector 2:  0.000000  0.000000  0.125664
  | Reciprocal lattice vector 3:  0.161107 -0.000000  0.000000
  | Unit cell volume                               :   0.975000E+05  A^3

  Number of empty states per atom not set in control.in - providing a guess from actual geometry.
  | Total number of empty states used during s.c.f. cycle:      135
  If you use a very high smearing, use empty_states (per atom!) in control.in to increase this value.

  Structure-dependent array size parameters: 
  | Maximum number of distinct radial functions  :       32
  | Maximum number of basis functions            :      840
  | Number of Kohn-Sham states (occupied + empty):      728
------------------------------------------------------------

------------------------------------------------------------
          Preparing all fixed parts of the calculation.
------------------------------------------------------------
  Determining machine precision:
    2.225073858507201E-308
  Setting up grids for atomic and cluster calculations.

  Creating wave function, potential, and density for free atoms.

  Species: Au

  List of occupied orbitals and eigenvalues:
    n    l              occ      energy [Ha]    energy [eV]
    1    0           2.0000     -3256.431199    -88612.0015
    2    0           2.0000      -533.654865    -14521.4877
    3    0           2.0000      -124.232088     -3380.5271
    4    0           2.0000       -26.843821      -730.4575
    5    0           2.0000        -3.974251      -108.1449
    6    0           1.0000        -0.207180        -5.6377
    2    1           6.0000      -460.384091    -12527.6885
    3    1           6.0000      -103.448928     -2814.9886
    4    1           6.0000       -20.075789      -546.2900
    5    1           6.0000        -2.189737       -59.5858
    3    2          10.0000       -81.364825     -2214.0495
    4    2          10.0000       -11.975168      -325.8609
    5    2          10.0000        -0.249072        -6.7776
    4    3          14.0000        -2.985533       -81.2405


  Species: Ag

  List of occupied orbitals and eigenvalues:
    n    l              occ      energy [Ha]    energy [eV]
    1    0           2.0000      -958.376532    -26078.7523
    2    0           2.0000      -137.767969     -3748.8572
    3    0           2.0000       -25.141857      -684.1447
    4    0           2.0000        -3.485255       -94.8386
    5    0           1.0000        -0.153893        -4.1876
    2    1           6.0000      -123.525516     -3361.3003
    3    1           6.0000       -20.493405      -557.6539
    4    1           6.0000        -2.144152       -58.3453
    3    2          10.0000       -13.176580      -358.5530
    4    2          10.0000        -0.266890        -7.2624

  Creating fixed part of basis set: Ionic, confined, hydrogenic.
 
  Au                   ion:

  List of free ionic orbitals and eigenvalues:
    n    l      energy [Ha]    energy [eV]
    1    0     -3257.305345    -88635.7882
    2    0      -534.468969    -14543.6406
    3    0      -125.037161     -3402.4343
    4    0       -27.646714      -752.3054
    5    0        -4.773414      -129.8912
    2    1      -461.196653    -12549.7994
    3    1      -104.253556     -2836.8836
    4    1       -20.878488      -568.1326
    5    1        -2.984283       -81.2065
    3    2       -82.168946     -2235.9308
    4    2       -12.777596      -347.6961
    5    2        -1.004504       -27.3340
    4    3        -3.787521      -103.0637


  List of ionic basis orbitals and eigenvalues:
    n    l      energy [Ha]    energy [eV]    outer radius [A]
    6    1        -0.535414       -14.5694       4.560053
    6    0        -0.835538       -22.7361       4.504645

 
  Au                   hydrogenic:
 
  List of hydrogenic basis orbitals: 
    n    l      effective z      eigenvalue [eV]  inner max. [A]     outer max. [A]     outer radius [A]   
    4    3         7.400000       -46.5648           1.145580           1.145580           4.504645
    3    2         2.500000        -9.0892           1.822958           1.822958           4.616141
 
 
  Ag                   ion:

  List of free ionic orbitals and eigenvalues:
    n    l      energy [Ha]    energy [eV]
    1    0      -959.242502    -26102.3166
    2    0      -138.615368     -3771.9161
    3    0       -25.985886      -707.1119
    4    0        -4.320835      -117.5759
    2    1      -124.372537     -3384.3489
    3    1       -21.337322      -580.6181
    4    1        -2.974632       -80.9438
    3    2       -14.020465      -381.5163
    4    2        -1.061785       -28.8926


  List of ionic basis orbitals and eigenvalues:
    n    l      energy [Ha]    energy [eV]    outer radius [A]
    5    1        -0.525828       -14.3085       4.586811

 
  Ag                   hydrogenic:
 
  List of hydrogenic basis orbitals: 
    n    l      effective z      eigenvalue [eV]  inner max. [A]     outer max. [A]     outer radius [A]   
    4    3         7.600000       -49.1160           1.110807           1.110807           4.421638
    3    0         2.600000        -9.1732           0.149597           2.489137           4.643229
    4    2         8.400000       -60.0006           0.428073           1.334373           4.367912
 

  Adding cutoff potential to free-atom effective potential.
  Creating atomic-like basis functions for current effective potential.

  Species Au                  :

  List of atomic basis orbitals and eigenvalues:
    n    l      energy [Ha]    energy [eV]    outer radius [A]
    1    0     -3256.431199    -88612.0015       0.120816
    2    0      -533.654865    -14521.4877       0.313506
    3    0      -124.232088     -3380.5271       0.652830
    4    0       -26.843821      -730.4575       1.359424
    5    0        -3.974251      -108.1449       3.318406
    6    0        -0.207180        -5.6377       4.560053
    2    1      -460.384091    -12527.6885       0.329217
    3    1      -103.448928     -2814.9886       0.702515
    4    1       -20.075789      -546.2900       1.536198
    5    1        -2.189737       -59.5858       4.035315
    3    2       -81.364825     -2214.0495       0.755981
    4    2       -11.975168      -325.8609       1.868078
    5    2        -0.249072        -6.7776       4.504645
    4    3        -2.985533       -81.2405       3.198908


  Species Ag                  :

  List of atomic basis orbitals and eigenvalues:
    n    l      energy [Ha]    energy [eV]    outer radius [A]
    1    0      -958.376532    -26078.7523       0.218529
    2    0      -137.767969     -3748.8572       0.595480
    3    0       -25.141857      -684.1447       1.384220
    4    0        -3.485255       -94.8386       3.462568
    5    0        -0.153893        -4.1876       4.586811
    2    1      -123.525516     -3361.3003       0.610219
    3    1       -20.493405      -557.6539       1.489569
    4    1        -2.144152       -58.3453       4.058994
    3    2       -13.176580      -358.5530       1.724930
    4    2        -0.266890        -7.2624       4.531079

  Assembling full basis from fixed parts.
  | Species Au :   atomic orbital   1 s accepted.
  | Species Au :   atomic orbital   2 s accepted.
  | Species Au :   atomic orbital   3 s accepted.
  | Species Au :   atomic orbital   4 s accepted.
  | Species Au :   atomic orbital   5 s accepted.
  | Species Au :    ionic orbital   6 s accepted.
  | Species Au :   atomic orbital   6 s accepted.
  | Species Au :   atomic orbital   2 p accepted.
  | Species Au :   atomic orbital   3 p accepted.
  | Species Au :   atomic orbital   4 p accepted.
  | Species Au :   atomic orbital   5 p accepted.
  | Species Au :    ionic orbital   6 p accepted.
  | Species Au :   atomic orbital   3 d accepted.
  | Species Au :   atomic orbital   4 d accepted.
  | Species Au :   atomic orbital   5 d accepted.
  | Species Au :    hydro orbital   3 d accepted.
  | Species Au :   atomic orbital   4 f accepted.
  | Species Au :    hydro orbital   4 f accepted.
  | Species Ag :   atomic orbital   1 s accepted.
  | Species Ag :   atomic orbital   2 s accepted.
  | Species Ag :   atomic orbital   3 s accepted.
  | Species Ag :   atomic orbital   4 s accepted.
  | Species Ag :   atomic orbital   5 s accepted.
  | Species Ag :    hydro orbital   3 s accepted.
  | Species Ag :   atomic orbital   2 p accepted.
  | Species Ag :   atomic orbital   3 p accepted.
  | Species Ag :   atomic orbital   4 p accepted.
  | Species Ag :    ionic orbital   5 p accepted.
  | Species Ag :   atomic orbital   3 d accepted.
  | Species Ag :    hydro orbital   4 d accepted.
  | Species Ag :   atomic orbital   4 d accepted.
  | Species Ag :    hydro orbital   4 f accepted.
 
  Basis size parameters after reduction:
  | Total number of radial functions:       32
  | Total number of basis functions :      840
 
  Testing on-site integration grid accuracy.
  |  Species  Function  <phi|h_atom|phi> (log., in eV)  <phi|h_atom|phi> (rad., in eV)
           1        1             -88612.0014632774             -88611.6712034180 ***
           1        2             -14521.4877182964             -14521.4813999840
           1        3              -3380.5271184873              -3380.5267747403
           1        4               -730.4575387750               -730.4575126103
           1        5               -108.1448599487               -108.1448564257
           1        6                 -5.0942970264                 -5.0944290505
           1        7                  6.1115134725                  6.0788143786 ***
           1        8             -12527.6885190593             -12527.6885173588
           1        9              -2814.9885638658              -2814.9885482953
           1       10               -546.2900141357               -546.2900083742
           1       11                -59.5857773529                -59.5857755927
           1       12                  0.8801786309                  0.8779179090
           1       13              -2214.0495316492              -2214.0495265682
           1       14               -325.8609015357               -325.8608990336
           1       15                 -6.7779523923                 -6.7780549541
           1       16                  6.8774732691                  6.8534371069
           1       17                -81.2404736787                -81.2404731538
           1       18                 21.6950885255                 21.6950713539
           2       19             -26078.7522962004             -26078.7050038282 ***
           2       20              -3748.8571825891              -3748.8564638137
           2       21               -684.1447429952               -684.1447145505
           2       22                -94.8386020389                -94.8385997776
           2       23                 -4.2026518779                 -4.2150124605
           2       24                  6.5883049883                  6.4593378836 ***
           2       25              -3361.3003164451              -3361.3003151577
           2       26               -557.6539219411               -557.6539191551
           2       27                -58.3453484083                -58.3453474066
           2       28                  1.2032632121                  1.1972375912
           2       29               -358.5529845261               -358.5529835865
           2       30                 17.9428490881                 17.9429259916
           2       31                 -6.0696970103                 -6.0698655744
           2       32                 24.3026730906                 24.3026930796
 * Note: Onsite integrals marked "***" above are less accurate than
 * onsite_accuracy_threshold =    0.03000 eV. Usually, this is harmless.
 * However, one integral did have a negative value. This integral could be important.
 * When in doubt, tighten the "radial" and/or "radial_multiplier" flags to check.

  Preparing densities etc. for the partition functions (integrals / Hartree potential).

  Preparations completed.
  max(cpu_time)          :      0.564 s.
  Wall clock time (cpu1) :      0.564 s.
------------------------------------------------------------

------------------------------------------------------------
          Begin self-consistency loop: Initialization.

          Date     :  20140415, Time     :  110910.284
------------------------------------------------------------

  Initializing index lists of integration centers etc. from given atomic structure:
  Mapping all atomic coordinates to central unit cell.

  Initializing the k-points
          Using symmetry for reducing the k-points
  | k-points reduced from:       12 to        7
  | Number of k-points                             :         7
  The eigenvectors in the calculations are COMPLEX.
  | K-points in task   0:         1
  | K-points in task   1:         2
  | K-points in task   2:         2
  | K-points in task   3:         2
  | Number of basis functions in the Hamiltonian integrals :       974
  | Number of basis functions in a single unit cell        :       840
  | Number of centers in hartree potential         :        23
  | Number of centers in hartree multipole         :        23
  | Number of centers in electron density summation:        21
  | Number of centers in basis integrals           :        21
  | Number of centers in integrals                 :        19
  | Consuming          0 KiB for k_phase.
  | Number of super-cells :                   4
  | Size of matrix packed + index :      112711
  Perform CPU consistency test for lattice for partition grid
  Perform CPU consistency test for map_to_center_cell_matrix for partition grid
  Partitioning the integration grid into batches with parallel hashing+maxmin method.
  | Number of batches:     1968
  | Maximal batch size:     152
  | Minimal batch size:      44
  | Average batch size:      69.527
  | Standard deviation of batch sizes:      12.535

  Integration load balanced across     4 MPI tasks.
  Work distribution over tasks is as follows:
  Task     0 has      34172 integration points.
  Task     1 has      34172 integration points.
  Task     2 has      34205 integration points.
  Task     3 has      34281 integration points.
  Initializing partition tables, free-atom densities, potentials, etc. across the integration grid (initialize_grid_storage).
  | initialize_grid_storage: Actual outermost partition radius vs. multipole_radius_free
  | (-- VB: in principle, multipole_radius_free should be larger, hence this output)
  | Species        1: outer_partition_radius =              4.999999999999999 AA, multipole_radius_free =              5.028561921230412 AA.
  | Species        2: outer_partition_radius =              4.999999999999999 AA, multipole_radius_free =              5.058069901110960 AA.
  | Original list of interatomic distances with          21 x         21 entries is created.
  | Net number of integration points:   136830
  | of which are non-zero points    :   132390
  | Numerical average free-atom electrostatic potential    :     -0.07734024 eV
  Obtaining max. number of non-zero basis functions in each batch (get_n_compute_maxes).
  | Maximal number of non-zero basis functions:      155 in task     0
  | Maximal number of non-zero basis functions:      154 in task     1
  | Maximal number of non-zero basis functions:      155 in task     2
  | Maximal number of non-zero basis functions:      155 in task     3
  Integrating Hamiltonian matrix: batch-based integration.
  Time summed over all CPUs for integration: real work        1.050 s, elapsed        1.055 s
  Integrating overlap matrix.
  Time summed over all CPUs for integration: real work        0.527 s, elapsed        0.535 s
  Decreasing sparse matrix size:
   Tolerance:  9.999999824516700E-014
   Hamiltonian matrix
  | Array has    29232 nonzero elements out of   112711 elements
  | Sparsity factor is 0.741
   Overlap matrix
  | Array has    25995 nonzero elements out of   112711 elements
  | Sparsity factor is 0.769
  New size of hamiltonian matrix:       48061

  Updating Kohn-Sham eigenvalues, eigenvectors, occupation numbers, and Fermi level.
  Solving generalized eigenproblem
  Transforming overlap matrix and checking for singularities.
  Overlap matrix is nonsingular at first k-point:
  | Lowest eigenvalue:  0.207435E-02
  Determining occupation numbers for Kohn-Sham eigenstates.
  | Chemical potential (Fermi level) in eV                 : -.56330521E+01
  | Error in electron count due to remaining E_F inaccuracy: 0.90949470E-11
  | Maximum occupation number of highest empty state:  0.00E+00

  Writing Kohn-Sham eigenvalues.
  K-point:       1 at    0.000000    0.000000    0.000000 (in units of recip. lattice)

  State    Occupation    Eigenvalue [Ha]    Eigenvalue [eV]
      1       2.00000       -3256.413691       -88611.52503
      2       2.00000       -3256.413691       -88611.52503
      3       2.00000       -3256.413691       -88611.52503
      4       2.00000       -3256.413691       -88611.52503
      5       2.00000       -3256.413691       -88611.52503
      6       2.00000       -3256.413691       -88611.52503
      7       2.00000       -3256.413691       -88611.52503
      8       2.00000       -3256.413691       -88611.52503
      9       2.00000       -3256.413691       -88611.52503
     10       2.00000       -3256.413691       -88611.52503
     11       2.00000       -3256.413691       -88611.52503
     12       2.00000       -3256.413691       -88611.52503
     13       2.00000       -3256.413691       -88611.52503
     14       2.00000       -3256.413691       -88611.52503
     15       2.00000       -3256.413691       -88611.52503
     16       2.00000        -533.654974       -14521.49069
     17       2.00000        -533.654974       -14521.49069
     18       2.00000        -533.654974       -14521.49069
     19       2.00000        -533.654974       -14521.49069
     20       2.00000        -533.654974       -14521.49069
     21       2.00000        -533.654974       -14521.49069
     22       2.00000        -533.654974       -14521.49069
     23       2.00000        -533.654974       -14521.49069
     24       2.00000        -533.654974       -14521.49069
     25       2.00000        -533.654974       -14521.49069
     26       2.00000        -533.654974       -14521.49069
     27       2.00000        -533.654974       -14521.49069
     28       2.00000        -533.654974       -14521.49069
     29       2.00000        -533.654974       -14521.49069
     30       2.00000        -533.654974       -14521.49069
     31       2.00000        -460.386770       -12527.76142
     32       2.00000        -460.386770       -12527.76142
     33       2.00000        -460.386770       -12527.76142
     34       2.00000        -460.386770       -12527.76142
     35       2.00000        -460.386770       -12527.76142
     36       2.00000        -460.386770       -12527.76142
     37       2.00000        -460.386770       -12527.76142
     38       2.00000        -460.386770       -12527.76142
     39       2.00000        -460.386770       -12527.76142
     40       2.00000        -460.386770       -12527.76142
     41       2.00000        -460.386770       -12527.76142
     42       2.00000        -460.386770       -12527.76142
     43       2.00000        -460.386770       -12527.76142
     44       2.00000        -460.386770       -12527.76142
     45       2.00000        -460.386770       -12527.76142
     46       2.00000        -460.386758       -12527.76110
     47       2.00000        -460.386758       -12527.76110
     48       2.00000        -460.386758       -12527.76110
     49       2.00000        -460.386758       -12527.76110
     50       2.00000        -460.386758       -12527.76110
     51       2.00000        -460.386758       -12527.76110
     52       2.00000        -460.386758       -12527.76110
     53       2.00000        -460.386758       -12527.76110
     54       2.00000        -460.386758       -12527.76110
     55       2.00000        -460.386758       -12527.76110
     56       2.00000        -460.386758       -12527.76110
     57       2.00000        -460.386758       -12527.76110
     58       2.00000        -460.386758       -12527.76110
     59       2.00000        -460.386758       -12527.76110
     60       2.00000        -460.386758       -12527.76110
     61       2.00000        -460.386758       -12527.76110
     62       2.00000        -460.386758       -12527.76110
     63       2.00000        -460.386758       -12527.76110
     64       2.00000        -460.386758       -12527.76110
     65       2.00000        -460.386758       -12527.76110
     66       2.00000        -460.386758       -12527.76110
     67       2.00000        -460.386758       -12527.76110
     68       2.00000        -460.386758       -12527.76110
     69       2.00000        -460.386758       -12527.76110
     70       2.00000        -460.386758       -12527.76110
     71       2.00000        -460.386758       -12527.76110
     72       2.00000        -460.386758       -12527.76110
     73       2.00000        -460.386758       -12527.76110
     74       2.00000        -460.386758       -12527.76110
     75       2.00000        -460.386758       -12527.76110
     76       2.00000        -124.234264        -3380.58633
     77       2.00000        -124.234264        -3380.58633
     78       2.00000        -124.234264        -3380.58633
     79       2.00000        -124.234264        -3380.58633
     80       2.00000        -124.234264        -3380.58633
     81       2.00000        -124.234264        -3380.58633
     82       2.00000        -124.234264        -3380.58633
     83       2.00000        -124.234264        -3380.58633
     84       2.00000        -124.234264        -3380.58633
     85       2.00000        -124.234264        -3380.58633
     86       2.00000        -124.234264        -3380.58633
     87       2.00000        -124.234264        -3380.58633
     88       2.00000        -124.234264        -3380.58633
     89       2.00000        -124.234264        -3380.58633
     90       2.00000        -124.234264        -3380.58633
     91       2.00000        -103.451743        -2815.06516
     92       2.00000        -103.451743        -2815.06516
     93       2.00000        -103.451743        -2815.06516
     94       2.00000        -103.451743        -2815.06516
     95       2.00000        -103.451743        -2815.06516
     96       2.00000        -103.451743        -2815.06516
     97       2.00000        -103.451743        -2815.06516
     98       2.00000        -103.451743        -2815.06516
     99       2.00000        -103.451743        -2815.06516
    100       2.00000        -103.451743        -2815.06516
    101       2.00000        -103.451743        -2815.06516
    102       2.00000        -103.451743        -2815.06516
    103       2.00000        -103.451743        -2815.06516
    104       2.00000        -103.451743        -2815.06516
    105       2.00000        -103.451743        -2815.06516
    106       2.00000        -103.451649        -2815.06260
    107       2.00000        -103.451649        -2815.06260
    108       2.00000        -103.451649        -2815.06260
    109       2.00000        -103.451649        -2815.06260
    110       2.00000        -103.451649        -2815.06260
    111       2.00000        -103.451649        -2815.06260
    112       2.00000        -103.451649        -2815.06260
    113       2.00000        -103.451649        -2815.06260
    114       2.00000        -103.451649        -2815.06260
    115       2.00000        -103.451649        -2815.06260
    116       2.00000        -103.451649        -2815.06260
    117       2.00000        -103.451649        -2815.06260
    118       2.00000        -103.451649        -2815.06260
    119       2.00000        -103.451649        -2815.06260
    120       2.00000        -103.451649        -2815.06260
    121       2.00000        -103.451649        -2815.06260
    122       2.00000        -103.451649        -2815.06260
    123       2.00000        -103.451649        -2815.06260
    124       2.00000        -103.451649        -2815.06260
    125       2.00000        -103.451649        -2815.06260
    126       2.00000        -103.451649        -2815.06260
    127       2.00000        -103.451649        -2815.06260
    128       2.00000        -103.451649        -2815.06260
    129       2.00000        -103.451649        -2815.06260
    130       2.00000        -103.451649        -2815.06260
    131       2.00000        -103.451649        -2815.06260
    132       2.00000        -103.451649        -2815.06260
    133       2.00000        -103.451649        -2815.06260
    134       2.00000        -103.451649        -2815.06260
    135       2.00000        -103.451649        -2815.06260
    136       2.00000         -81.367596        -2214.12495
    137       2.00000         -81.367596        -2214.12495
    138       2.00000         -81.367596        -2214.12495
    139       2.00000         -81.367596        -2214.12495
    140       2.00000         -81.367596        -2214.12495
    141       2.00000         -81.367596        -2214.12495
    142       2.00000         -81.367596        -2214.12495
    143       2.00000         -81.367596        -2214.12495
    144       2.00000         -81.367596        -2214.12495
    145       2.00000         -81.367596        -2214.12495
    146       2.00000         -81.367596        -2214.12495
    147       2.00000         -81.367596        -2214.12495
    148       2.00000         -81.367596        -2214.12495
    149       2.00000         -81.367596        -2214.12495
    150       2.00000         -81.367596        -2214.12495
    151       2.00000         -81.367577        -2214.12443
    152       2.00000         -81.367577        -2214.12443
    153       2.00000         -81.367577        -2214.12443
    154       2.00000         -81.367577        -2214.12443
    155       2.00000         -81.367577        -2214.12443
    156       2.00000         -81.367577        -2214.12443
    157       2.00000         -81.367577        -2214.12443
    158       2.00000         -81.367577        -2214.12443
    159       2.00000         -81.367577        -2214.12443
    160       2.00000         -81.367577        -2214.12443
    161       2.00000         -81.367577        -2214.12443
    162       2.00000         -81.367577        -2214.12443
    163       2.00000         -81.367577        -2214.12443
    164       2.00000         -81.367577        -2214.12443
    165       2.00000         -81.367577        -2214.12443
    166       2.00000         -81.367577        -2214.12443
    167       2.00000         -81.367577        -2214.12443
    168       2.00000         -81.367577        -2214.12443
    169       2.00000         -81.367577        -2214.12443
    170       2.00000         -81.367577        -2214.12443
    171       2.00000         -81.367577        -2214.12443
    172       2.00000         -81.367577        -2214.12443
    173       2.00000         -81.367577        -2214.12443
    174       2.00000         -81.367577        -2214.12443
    175       2.00000         -81.367577        -2214.12443
    176       2.00000         -81.367577        -2214.12443
    177       2.00000         -81.367577        -2214.12443
    178       2.00000         -81.367577        -2214.12443
    179       2.00000         -81.367577        -2214.12443
    180       2.00000         -81.367577        -2214.12443
    181       2.00000         -81.367522        -2214.12292
    182       2.00000         -81.367522        -2214.12292
    183       2.00000         -81.367522        -2214.12292
    184       2.00000         -81.367522        -2214.12292
    185       2.00000         -81.367522        -2214.12292
    186       2.00000         -81.367522        -2214.12292
    187       2.00000         -81.367522        -2214.12292
    188       2.00000         -81.367522        -2214.12292
    189       2.00000         -81.367522        -2214.12292
    190       2.00000         -81.367522        -2214.12292
    191       2.00000         -81.367522        -2214.12292
    192       2.00000         -81.367522        -2214.12292
    193       2.00000         -81.367522        -2214.12292
    194       2.00000         -81.367522        -2214.12292
    195       2.00000         -81.367522        -2214.12292
    196       2.00000         -81.367522        -2214.12292
    197       2.00000         -81.367522        -2214.12292
    198       2.00000         -81.367522        -2214.12292
    199       2.00000         -81.367522        -2214.12292
    200       2.00000         -81.367522        -2214.12292
    201       2.00000         -81.367522        -2214.12292
    202       2.00000         -81.367522        -2214.12292
    203       2.00000         -81.367522        -2214.12292
    204       2.00000         -81.367522        -2214.12292
    205       2.00000         -81.367522        -2214.12292
    206       2.00000         -81.367522        -2214.12292
    207       2.00000         -81.367522        -2214.12292
    208       2.00000         -81.367522        -2214.12292
    209       2.00000         -81.367522        -2214.12292
    210       2.00000         -81.367522        -2214.12292
    211       2.00000         -26.846655         -730.53465
    212       2.00000         -26.846655         -730.53465
    213       2.00000         -26.846655         -730.53465
    214       2.00000         -26.846655         -730.53465
    215       2.00000         -26.846655         -730.53465
    216       2.00000         -26.846655         -730.53465
    217       2.00000         -26.846655         -730.53465
    218       2.00000         -26.846655         -730.53465
    219       2.00000         -26.846655         -730.53465
    220       2.00000         -26.846655         -730.53465
    221       2.00000         -26.846655         -730.53465
    222       2.00000         -26.846655         -730.53465
    223       2.00000         -26.846655         -730.53465
    224       2.00000         -26.846655         -730.53465
    225       2.00000         -26.846655         -730.53465
    226       2.00000         -20.079170         -546.38202
    227       2.00000         -20.079170         -546.38202
    228       2.00000         -20.079170         -546.38202
    229       2.00000         -20.079170         -546.38202
    230       2.00000         -20.079170         -546.38202
    231       2.00000         -20.079170         -546.38202
    232       2.00000         -20.079170         -546.38202
    233       2.00000         -20.079170         -546.38202
    234       2.00000         -20.079170         -546.38202
    235       2.00000         -20.079170         -546.38202
    236       2.00000         -20.079170         -546.38202
    237       2.00000         -20.079170         -546.38202
    238       2.00000         -20.079170         -546.38202
    239       2.00000         -20.079170         -546.38202
    240       2.00000         -20.079170         -546.38202
    241       2.00000         -20.078635         -546.36746
    242       2.00000         -20.078635         -546.36746
    243       2.00000         -20.078635         -546.36746
    244       2.00000         -20.078635         -546.36746
    245       2.00000         -20.078635         -546.36746
    246       2.00000         -20.078635         -546.36746
    247       2.00000         -20.078635         -546.36746
    248       2.00000         -20.078635         -546.36746
    249       2.00000         -20.078635         -546.36746
    250       2.00000         -20.078635         -546.36746
    251       2.00000         -20.078635         -546.36746
    252       2.00000         -20.078635         -546.36746
    253       2.00000         -20.078635         -546.36746
    254       2.00000         -20.078635         -546.36746
    255       2.00000         -20.078635         -546.36746
    256       2.00000         -20.078635         -546.36746
    257       2.00000         -20.078635         -546.36746
    258       2.00000         -20.078635         -546.36746
    259       2.00000         -20.078635         -546.36746
    260       2.00000         -20.078635         -546.36746
    261       2.00000         -20.078635         -546.36746
    262       2.00000         -20.078635         -546.36746
    263       2.00000         -20.078635         -546.36746
    264       2.00000         -20.078635         -546.36746
    265       2.00000         -20.078635         -546.36746
    266       2.00000         -20.078635         -546.36746
    267       2.00000         -20.078635         -546.36746
    268       2.00000         -20.078635         -546.36746
    269       2.00000         -20.078635         -546.36746
    270       2.00000         -20.078635         -546.36746
    271       2.00000         -11.978554         -325.95305
    272       2.00000         -11.978554         -325.95305
    273       2.00000         -11.978554         -325.95305
    274       2.00000         -11.978554         -325.95305
    275       2.00000         -11.978554         -325.95305
    276       2.00000         -11.978554         -325.95305
    277       2.00000         -11.978554         -325.95305
    278       2.00000         -11.978554         -325.95305
    279       2.00000         -11.978554         -325.95305
    280       2.00000         -11.978554         -325.95305
    281       2.00000         -11.978554         -325.95305
    282       2.00000         -11.978554         -325.95305
    283       2.00000         -11.978554         -325.95305
    284       2.00000         -11.978554         -325.95305
    285       2.00000         -11.978554         -325.95305
    286       2.00000         -11.978378         -325.94824
    287       2.00000         -11.978378         -325.94824
    288       2.00000         -11.978378         -325.94824
    289       2.00000         -11.978378         -325.94824
    290       2.00000         -11.978378         -325.94824
    291       2.00000         -11.978378         -325.94824
    292       2.00000         -11.978378         -325.94824
    293       2.00000         -11.978378         -325.94824
    294       2.00000         -11.978378         -325.94824
    295       2.00000         -11.978378         -325.94824
    296       2.00000         -11.978378         -325.94824
    297       2.00000         -11.978378         -325.94824
    298       2.00000         -11.978378         -325.94824
    299       2.00000         -11.978378         -325.94824
    300       2.00000         -11.978378         -325.94824
    301       2.00000         -11.978378         -325.94824
    302       2.00000         -11.978378         -325.94824
    303       2.00000         -11.978378         -325.94824
    304       2.00000         -11.978378         -325.94824
    305       2.00000         -11.978378         -325.94824
    306       2.00000         -11.978378         -325.94824
    307       2.00000         -11.978378         -325.94824
    308       2.00000         -11.978378         -325.94824
    309       2.00000         -11.978378         -325.94824
    310       2.00000         -11.978378         -325.94824
    311       2.00000         -11.978378         -325.94824
    312       2.00000         -11.978378         -325.94824
    313       2.00000         -11.978378         -325.94824
    314       2.00000         -11.978378         -325.94824
    315       2.00000         -11.978378         -325.94824
    316       2.00000         -11.977952         -325.93665
    317       2.00000         -11.977952         -325.93665
    318       2.00000         -11.977952         -325.93665
    319       2.00000         -11.977952         -325.93665
    320       2.00000         -11.977952         -325.93665
    321       2.00000         -11.977952         -325.93665
    322       2.00000         -11.977952         -325.93665
    323       2.00000         -11.977952         -325.93665
    324       2.00000         -11.977952         -325.93665
    325       2.00000         -11.977952         -325.93665
    326       2.00000         -11.977952         -325.93665
    327       2.00000         -11.977952         -325.93665
    328       2.00000         -11.977952         -325.93665
    329       2.00000         -11.977952         -325.93665
    330       2.00000         -11.977952         -325.93665
    331       2.00000         -11.977952         -325.93665
    332       2.00000         -11.977952         -325.93665
    333       2.00000         -11.977952         -325.93665
    334       2.00000         -11.977952         -325.93665
    335       2.00000         -11.977952         -325.93665
    336       2.00000         -11.977952         -325.93665
    337       2.00000         -11.977952         -325.93665
    338       2.00000         -11.977952         -325.93665
    339       2.00000         -11.977952         -325.93665
    340       2.00000         -11.977952         -325.93665
    341       2.00000         -11.977952         -325.93665
    342       2.00000         -11.977952         -325.93665
    343       2.00000         -11.977952         -325.93665
    344       2.00000         -11.977952         -325.93665
    345       2.00000         -11.977952         -325.93665
    346       2.00000          -3.979094         -108.27665
    347       2.00000          -3.979062         -108.27579
    348       2.00000          -3.979062         -108.27579
    349       2.00000          -3.978973         -108.27336
    350       2.00000          -3.978973         -108.27336
    351       2.00000          -3.978841         -108.26978
    352       2.00000          -3.978841         -108.26978
    353       2.00000          -3.978690         -108.26566
    354       2.00000          -3.978690         -108.26566
    355       2.00000          -3.978545         -108.26172
    356       2.00000          -3.978545         -108.26172
    357       2.00000          -3.978432         -108.25863
    358       2.00000          -3.978432         -108.25863
    359       2.00000          -3.978370         -108.25695
    360       2.00000          -3.978370         -108.25695
    361       2.00000          -2.989169          -81.33943
    362       2.00000          -2.989169          -81.33943
    363       2.00000          -2.989159          -81.33916
    364       2.00000          -2.989159          -81.33916
    365       2.00000          -2.989141          -81.33866
    366       2.00000          -2.989141          -81.33866
    367       2.00000          -2.989117          -81.33802
    368       2.00000          -2.989117          -81.33802
    369       2.00000          -2.989093          -81.33736
    370       2.00000          -2.989093          -81.33736
    371       2.00000          -2.989072          -81.33679
    372       2.00000          -2.989072          -81.33679
    373       2.00000          -2.989058          -81.33640
    374       2.00000          -2.989058          -81.33640
    375       2.00000          -2.989053          -81.33626
    376       2.00000          -2.989019          -81.33535
    377       2.00000          -2.989019          -81.33535
    378       2.00000          -2.989017          -81.33529
    379       2.00000          -2.989017          -81.33529
    380       2.00000          -2.989017          -81.33529
    381       2.00000          -2.989017          -81.33529
    382       2.00000          -2.989011          -81.33513
    383       2.00000          -2.989011          -81.33513
    384       2.00000          -2.989011          -81.33513
    385       2.00000          -2.989011          -81.33513
    386       2.00000          -2.989002          -81.33489
    387       2.00000          -2.989002          -81.33489
    388       2.00000          -2.989002          -81.33489
    389       2.00000          -2.989002          -81.33489
    390       2.00000          -2.988992          -81.33461
    391       2.00000          -2.988992          -81.33461
    392       2.00000          -2.988992          -81.33461
    393       2.00000          -2.988992          -81.33461
    394       2.00000          -2.988982          -81.33435
    395       2.00000          -2.988982          -81.33435
    396       2.00000          -2.988982          -81.33435
    397       2.00000          -2.988982          -81.33435
    398       2.00000          -2.988975          -81.33414
    399       2.00000          -2.988975          -81.33414
    400       2.00000          -2.988975          -81.33414
    401       2.00000          -2.988975          -81.33414
    402       2.00000          -2.988971          -81.33403
    403       2.00000          -2.988971          -81.33403
    404       2.00000          -2.988971          -81.33403
    405       2.00000          -2.988971          -81.33403
    406       2.00000          -2.988700          -81.32667
    407       2.00000          -2.988700          -81.32667
    408       2.00000          -2.988700          -81.32665
    409       2.00000          -2.988700          -81.32665
    410       2.00000          -2.988699          -81.32665
    411       2.00000          -2.988699          -81.32665
    412       2.00000          -2.988699          -81.32663
    413       2.00000          -2.988699          -81.32663
    414       2.00000          -2.988698          -81.32661
    415       2.00000          -2.988698          -81.32661
    416       2.00000          -2.988698          -81.32660
    417       2.00000          -2.988698          -81.32660
    418       2.00000          -2.988696          -81.32656
    419       2.00000          -2.988696          -81.32656
    420       2.00000          -2.988696          -81.32655
    421       2.00000          -2.988696          -81.32655
    422       2.00000          -2.988695          -81.32652
    423       2.00000          -2.988695          -81.32652
    424       2.00000          -2.988694          -81.32650
    425       2.00000          -2.988694          -81.32650
    426       2.00000          -2.988693          -81.32647
    427       2.00000          -2.988693          -81.32647
    428       2.00000          -2.988693          -81.32646
    429       2.00000          -2.988693          -81.32646
    430       2.00000          -2.988692          -81.32645
    431       2.00000          -2.988692          -81.32645
    432       2.00000          -2.988692          -81.32644
    433       2.00000          -2.988692          -81.32643
    434       2.00000          -2.988692          -81.32643
    435       2.00000          -2.988691          -81.32642
    436       2.00000          -2.988288          -81.31545
    437       2.00000          -2.988288          -81.31545
    438       2.00000          -2.988288          -81.31545
    439       2.00000          -2.988288          -81.31545
    440       2.00000          -2.988288          -81.31545
    441       2.00000          -2.988288          -81.31545
    442       2.00000          -2.988288          -81.31545
    443       2.00000          -2.988288          -81.31545
    444       2.00000          -2.988288          -81.31545
    445       2.00000          -2.988288          -81.31545
    446       2.00000          -2.988288          -81.31545
    447       2.00000          -2.988288          -81.31545
    448       2.00000          -2.988288          -81.31545
    449       2.00000          -2.988288          -81.31545
    450       2.00000          -2.988288          -81.31545
    451       2.00000          -2.988288          -81.31545
    452       2.00000          -2.988288          -81.31545
    453       2.00000          -2.988288          -81.31545
    454       2.00000          -2.988288          -81.31544
    455       2.00000          -2.988288          -81.31544
    456       2.00000          -2.988288          -81.31544
    457       2.00000          -2.988288          -81.31544
    458       2.00000          -2.988287          -81.31544
    459       2.00000          -2.988287          -81.31544
    460       2.00000          -2.988287          -81.31544
    461       2.00000          -2.988287          -81.31544
    462       2.00000          -2.988287          -81.31544
    463       2.00000          -2.988287          -81.31544
    464       2.00000          -2.988287          -81.31544
    465       2.00000          -2.988287          -81.31544
    466       2.00000          -2.205278          -60.00866
    467       2.00000          -2.205278          -60.00866
    468       2.00000          -2.204097          -59.97654
    469       2.00000          -2.204097          -59.97654
    470       2.00000          -2.201929          -59.91754
    471       2.00000          -2.201929          -59.91754
    472       2.00000          -2.199134          -59.84149
    473       2.00000          -2.199134          -59.84149
    474       2.00000          -2.196188          -59.76132
    475       2.00000          -2.196188          -59.76132
    476       2.00000          -2.194248          -59.70852
    477       2.00000          -2.194248          -59.70852
    478       2.00000          -2.194190          -59.70696
    479       2.00000          -2.194190          -59.70696
    480       2.00000          -2.194190          -59.70696
    481       2.00000          -2.194190          -59.70696
    482       2.00000          -2.194028          -59.70254
    483       2.00000          -2.194028          -59.70254
    484       2.00000          -2.194028          -59.70254
    485       2.00000          -2.194028          -59.70254
    486       2.00000          -2.193789          -59.69603
    487       2.00000          -2.193789          -59.69603
    488       2.00000          -2.193789          -59.69603
    489       2.00000          -2.193789          -59.69603
    490       2.00000          -2.193603          -59.69097
    491       2.00000          -2.193603          -59.69097
    492       2.00000          -2.193513          -59.68853
    493       2.00000          -2.193513          -59.68853
    494       2.00000          -2.193513          -59.68853
    495       2.00000          -2.193513          -59.68853
    496       2.00000          -2.193250          -59.68136
    497       2.00000          -2.193250          -59.68136
    498       2.00000          -2.193250          -59.68136
    499       2.00000          -2.193250          -59.68136
    500       2.00000          -2.193043          -59.67575
    501       2.00000          -2.193043          -59.67575
    502       2.00000          -2.193043          -59.67575
    503       2.00000          -2.193043          -59.67575
    504       2.00000          -2.192930          -59.67267
    505       2.00000          -2.192930          -59.67267
    506       2.00000          -2.192930          -59.67267
    507       2.00000          -2.192930          -59.67267
    508       2.00000          -2.191837          -59.64293
    509       2.00000          -2.191837          -59.64293
    510       2.00000          -2.191211          -59.62589
    511       2.00000          -0.380648          -10.35797
    512       2.00000          -0.373239          -10.15634
    513       2.00000          -0.373239          -10.15634
    514       2.00000          -0.351395           -9.56194
    515       2.00000          -0.351395           -9.56194
    516       2.00000          -0.316546           -8.61364
    517       2.00000          -0.316546           -8.61364
    518       2.00000          -0.307786           -8.37528
    519       2.00000          -0.307786           -8.37528
    520       2.00000          -0.307786           -8.37528
    521       2.00000          -0.307786           -8.37528
    522       2.00000          -0.301555           -8.20573
    523       2.00000          -0.301555           -8.20573
    524       2.00000          -0.301555           -8.20573
    525       2.00000          -0.301555           -8.20573
    526       2.00000          -0.289476           -7.87705
    527       2.00000          -0.289476           -7.87705
    528       2.00000          -0.289476           -7.87705
    529       2.00000          -0.289476           -7.87705
    530       2.00000          -0.273215           -7.43456
    531       2.00000          -0.273215           -7.43456
    532       2.00000          -0.272414           -7.41276
    533       2.00000          -0.272414           -7.41276
    534       2.00000          -0.272414           -7.41276
    535       2.00000          -0.272414           -7.41276
    536       2.00000          -0.263776           -7.17770
    537       2.00000          -0.263772           -7.17760
    538       2.00000          -0.262932           -7.15474
    539       2.00000          -0.262932           -7.15474
    540       2.00000          -0.262929           -7.15466
    541       2.00000          -0.262929           -7.15466
    542       2.00000          -0.260523           -7.08919
    543       2.00000          -0.260523           -7.08919
    544       2.00000          -0.260521           -7.08913
    545       2.00000          -0.260521           -7.08913
    546       2.00000          -0.257560           -7.00856
    547       2.00000          -0.256907           -6.99078
    548       2.00000          -0.256907           -6.99078
    549       2.00000          -0.256906           -6.99077
    550       2.00000          -0.256906           -6.99077
    551       2.00000          -0.255543           -6.95369
    552       2.00000          -0.255543           -6.95369
    553       2.00000          -0.252653           -6.87504
    554       2.00000          -0.252653           -6.87504
    555       2.00000          -0.252652           -6.87501
    556       2.00000          -0.252652           -6.87501
    557       2.00000          -0.251913           -6.85489
    558       2.00000          -0.251913           -6.85489
    559       2.00000          -0.251913           -6.85489
    560       2.00000          -0.251913           -6.85489
    561       2.00000          -0.249554           -6.79072
    562       2.00000          -0.249554           -6.79072
    563       2.00000          -0.248479           -6.76147
    564       2.00000          -0.248479           -6.76147
    565       2.00000          -0.248478           -6.76142
    566       2.00000          -0.248478           -6.76142
    567       2.00000          -0.245143           -6.67068
    568       2.00000          -0.245143           -6.67068
    569       2.00000          -0.245141           -6.67062
    570       2.00000          -0.245141           -6.67062
    571       2.00000          -0.243288           -6.62021
    572       2.00000          -0.243288           -6.62021
    573       2.00000          -0.243286           -6.62016
    574       2.00000          -0.243286           -6.62016
    575       2.00000          -0.239549           -6.51845
    576       2.00000          -0.239549           -6.51845
    577       2.00000          -0.238664           -6.49438
    578       2.00000          -0.238664           -6.49438
    579       2.00000          -0.230603           -6.27502
    580       2.00000          -0.230603           -6.27502
    581       2.00000          -0.230603           -6.27502
    582       2.00000          -0.230603           -6.27502
    583       2.00000          -0.223423           -6.07965
    584       2.00000          -0.223423           -6.07965
    585       2.00000          -0.223212           -6.07391
    586       2.00000          -0.223212           -6.07391
    587       2.00000          -0.216596           -5.89388
    588       2.00000          -0.216596           -5.89388
    589       2.00000          -0.213013           -5.79637
    590       2.00000          -0.213013           -5.79637
    591       2.00000          -0.213013           -5.79637
    592       2.00000          -0.213013           -5.79637
    593       0.00000          -0.205807           -5.60030
    594       0.00000          -0.205807           -5.60030
    595       0.00000          -0.187491           -5.10189
    596       0.00000          -0.187491           -5.10189
    597       0.00000          -0.126332           -3.43767
    598       0.00000          -0.126332           -3.43767
    599       0.00000          -0.058741           -1.59844
    600       0.00000          -0.058741           -1.59844
    601       0.00000          -0.048119           -1.30937
    602       0.00000          -0.048119           -1.30937
    603       0.00000          -0.040383           -1.09888
    604       0.00000          -0.040383           -1.09888
    605       0.00000          -0.040383           -1.09888
    606       0.00000          -0.040383           -1.09888
    607       0.00000          -0.019952           -0.54293
    608       0.00000          -0.019952           -0.54293
    609       0.00000          -0.019952           -0.54293
    610       0.00000          -0.019952           -0.54293
    611       0.00000           0.008768            0.23858
    612       0.00000           0.008768            0.23858
    613       0.00000           0.008768            0.23858
    614       0.00000           0.008768            0.23858
    615       0.00000           0.043197            1.17544
    616       0.00000           0.043197            1.17544
    617       0.00000           0.043197            1.17544
    618       0.00000           0.043197            1.17544
    619       0.00000           0.045391            1.23514
    620       0.00000           0.045391            1.23514
    621       0.00000           0.081967            2.23043
    622       0.00000           0.081967            2.23043
    623       0.00000           0.081967            2.23043
    624       0.00000           0.081967            2.23043
    625       0.00000           0.122967            3.34610
    626       0.00000           0.122967            3.34610
    627       0.00000           0.122967            3.34610
    628       0.00000           0.122967            3.34610
    629       0.00000           0.123253            3.35388
    630       0.00000           0.123253            3.35388
    631       0.00000           0.157551            4.28719
    632       0.00000           0.157551            4.28719
    633       0.00000           0.157551            4.28719
    634       0.00000           0.157551            4.28719
    635       0.00000           0.184432            5.01864
    636       0.00000           0.187762            5.10926
    637       0.00000           0.187762            5.10926
    638       0.00000           0.194996            5.30611
    639       0.00000           0.195218            5.31216
    640       0.00000           0.197812            5.38275
    641       0.00000           0.197812            5.38275
    642       0.00000           0.198186            5.39292
    643       0.00000           0.198186            5.39292
    644       0.00000           0.198384            5.39830
    645       0.00000           0.198384            5.39830
    646       0.00000           0.208074            5.66198
    647       0.00000           0.208074            5.66198
    648       0.00000           0.208200            5.66541
    649       0.00000           0.208200            5.66541
    650       0.00000           0.208763            5.68073
    651       0.00000           0.208763            5.68073
    652       0.00000           0.214456            5.83564
    653       0.00000           0.214456            5.83564
    654       0.00000           0.225720            6.14215
    655       0.00000           0.225720            6.14215
    656       0.00000           0.225736            6.14258
    657       0.00000           0.225736            6.14258
    658       0.00000           0.237074            6.45111
    659       0.00000           0.237074            6.45111
    660       0.00000           0.253066            6.88627
    661       0.00000           0.253066            6.88627
    662       0.00000           0.253186            6.88954
    663       0.00000           0.253186            6.88954
    664       0.00000           0.269776            7.34097
    665       0.00000           0.269776            7.34097
    666       0.00000           0.293123            7.97629
    667       0.00000           0.293123            7.97629
    668       0.00000           0.293391            7.98356
    669       0.00000           0.293391            7.98356
    670       0.00000           0.294992            8.02715
    671       0.00000           0.294992            8.02715
[...]
  -1.07615234565962        4.99859485468516     
  -1.06412830673211        4.99913510151109     
  -1.05210416643430        4.99988178566074     
  -1.04008012750679        4.99633004903101     
  -1.02805608857928        4.99927348851612     
  -1.01603204965177        4.99939347388251     
  -1.00400801072426        4.99980939541671     
 -0.991983971796753        4.99972044545782     
 -0.979959932869244        4.99879859030151     
 -0.967935893941736        5.73189663978976     
 -0.955911855014227        5.92526925706058     
 -0.943887816086719        5.99804837051908     
 -0.931863777159210        5.98604841146013     
 -0.919839636861395        5.98837878418985     
 -0.907815597933887        5.99623285583221     
 -0.895791559006378        5.99989009234630     
 -0.883767520078870        5.99737233482599     
 -0.871743481151361        5.99297189232566     
 -0.859719442223853        5.99381726014321     
 -0.847695403296344        5.99680121347025     
 -0.835671364368835        5.99284415779250     
 -0.823647274756174        5.99213456551624     
 -0.811623235828665        5.99895667369367     
 -0.799599196901157        5.96796829254582     
 -0.787575157973648        5.99902169948760     
 -0.775551119046140        5.88694226888090     
 -0.763527029433478        3.98861725578740     
 -0.751502990505969        3.99347897959310     
 -0.739478951578461        3.99863969366640     
 -0.727454912650952        3.99707279942141     
 -0.715430873723444        3.99406287018667     
 -0.703406834795935        3.99901406558071     
 -0.691382745183273        3.99974762825647     
 -0.679358706255765        3.99310230921679     
 -0.667334667328256        3.99325195853464     
 -0.655310628400748        3.99603367420827     
 -0.643286589473239        3.99779016766113     
 -0.631262499860577        3.99559309896549     
 -0.619238460933069        3.99763276455713     
 -0.607214422005560        3.99682114093994     
 -0.595190383078052        3.99511782955636     
 -0.583166344150543        3.99838637152044     
 -0.571142305223035        3.88201603073774     
 -0.559118215610373        3.88610148380739     
 -0.547094176682864        3.92061191694306     
 -0.535070137755356        3.99706989740912     
 -0.523046098827847        3.98588561177931     
 -0.511022059900339        3.99267085203167     
 -0.498998020972830        3.99198181511654     
 -0.486973931360168        3.99024092915824     
 -0.474949892432660        3.99436176054929     
 -0.462925853505151        3.99587788128334     
 -0.450901814577643        3.99888892453695     
 -0.438877775650134        3.99796089004660     
 -0.426853686037472        3.99921811340251     
 -0.414829647109964        3.99793515655497     
 -0.402805608182455        3.99811664957215     
 -0.390781569254947        3.99837634988502     
 -0.378757504984862        3.99896069698577     
 -0.366733466057353        3.99912122654539     
 -0.354709427129845        3.99893145606913     
 -0.342685362859759        3.99898467333870     
 -0.330661323932251        3.99965497719335     
 -0.318637285004742        3.99976727643338     
 -0.306613220734657        3.99952264439685     
 -0.294589181807149        3.99955310887178     
 -0.282565142879640        3.99923443113645     
 -0.270541078609555        3.99839238046211     
 -0.258517039682047        3.99786316423281     
 -0.246492975411961        3.99725638164857     
 -0.234468936484453        3.99661019886452     
 -0.222444897556944        3.99673991189797     
 -0.210420845958147        3.99862442325010     
 -0.198396794359351        3.99597133754054     
 -0.186372742760554        3.99144237690586     
 -0.174348691161757        3.99700978537280     
 -0.162324652234248        3.95965680568323     
 -0.150300600635452        3.91126621383339     
 -0.138276549036655        3.94236242159422     
 -0.126252510109146        3.80019488821538     
 -0.114228458510349        3.03464196204090     
 -0.102204406911552        2.97947326121000     
 -9.018036164839974E-002   2.99474610816819     
 -7.815631004960288E-002   2.99348575393354     
 -6.613226478645019E-002   2.99333074317507     
 -5.410821952329751E-002   2.98997109198566     
 -4.208416792450066E-002   2.98902507106813     
 -3.006011949352588E-002   2.99163979741478     
 -1.803607264646215E-002   2.99971241473023     
 -6.012024215487385E-003   2.89859231177333     
  6.012024215487385E-003   1.26144134975938     
  1.803607264646215E-002   1.00376094606424     
  3.006011949352588E-002  0.999850309541617     
  4.208416792450066E-002  0.999295204366348     
  5.410821952329751E-002  0.999663826813496     
  6.613226478645019E-002  0.999167437257054     
  7.815631004960288E-002  0.999307886343956     
  9.018036164839974E-002  0.999365789073320     
  0.102204406911552       0.999367530801833     
  0.114228458510349       0.999356935043388     
  0.126252510109146       0.999404156112140     
  0.138276549036655       0.999590765829037     
  0.150300600635452       0.999471894965772     
  0.162324652234248       0.999574121918817     
  0.174348691161757       0.999529232348043     
  0.186372742760554       0.999626947375769     
  0.198396794359351       0.999543458979387     
  0.210420845958147       0.999692782363377     
  0.222444897556944       0.999572040804604     
  0.234468936484453       0.999598677632918     
  0.246492975411961       0.999761256398306     
  0.258517039682047       0.999915842336121     
  0.270541078609555       0.999989642625232     
  0.282565142879640       0.999998930899646     
  0.294589181807149       0.999990851362954     
  0.306613220734657       0.999991541689444     
  0.318637285004742       0.999998248645286     
  0.330661323932251       0.999999192986163     
  0.342685362859759       0.999991059074318     
  0.354709427129845       0.999980452722471     
  0.366733466057353       0.999975354351510     
  0.378757504984862       0.999978169107479     
  0.390781569254947       0.999985611030901     
  0.402805608182455       0.999992912578613     
  0.414829647109964       0.999997446326349     
  0.426853686037472       0.999999313998275     
  0.438877775650134       0.999999795407347     
  0.450901814577643       0.999999803909627     
  0.462925853505151       0.999999541584976     
  0.474949892432660       0.999999027882098     
  0.486973931360168       0.999998545421029     
  0.498998020972830       0.999998506363987     
  0.511022059900339       0.999999016056638     
  0.523046098827847       0.999999698039481     
  0.535070137755356       0.999999999897462     
  0.547094176682864       0.999999680345089     
  0.559118215610373       0.999999008768476     
  0.571142305223035       0.999998507156499     
  0.583166344150543       0.999998501905367     
  0.595190383078052       0.999998904140410     
  0.607214422005560       0.999999379132425     
  0.619238460933069       0.999999673300586     
  0.631262499860577       0.999999734286667     
  0.643286589473239       0.999999511501882     
  0.655310628400748       0.999998700821427     
  0.667334667328256       0.999996809405536     
  0.679358706255765       0.999993627438889     
  0.691382745183273       0.999989752068185     
  0.703406834795935       0.999986629163625     
  0.715430873723444       0.999985872482692     
  0.727454912650952       0.999988200491146     
  0.739478951578461       0.999992743277855     
  0.751502990505969       0.999997344054270     
  0.763527029433478       0.999999828514535     
  0.775551119046140       0.999999468583217     
  0.787575157973648       0.999997573384520     
  0.799599196901157       0.999996572913920     
  0.811623235828665       0.999997907288208     
  0.823647274756174       0.999999927470682     
  0.835671364368835       0.999997284814645     
  0.847695403296344       0.999982706996590     
  0.859719442223853       0.999950851012220     
  0.871743481151361       0.999902645436286     
  0.883767520078870       0.999847816806584     
  0.895791559006378       0.999803582508828     
  0.907815597933887       0.999788844343659     
  0.919839636861395       0.999815239984748     
  0.931863777159210       0.999878350193302     
  0.943887816086719       0.999953339598487     
  0.955911855014227       0.999787503980730     
  0.967935893941736       0.999779009979121     
  0.979959932869244       0.999817961598996     
  0.991983971796753       0.999894028588464     
   1.00400801072426       0.999971948994475     
   1.01603204965177       0.999998518849728     
   1.02805608857928       0.999988741198666     
   1.04008012750679       0.999703208554933     
   1.05210416643430       0.998991813602917     
   1.06412830673211       0.997890732350056     
   1.07615234565962       0.996543780723856     
   1.08817638458713       0.995219672452866     
   1.10020042351464       0.994192586431991     
   1.11222446244214       0.993714826162769     
   1.12424850136965       0.997607532507186     
   1.13627254029716       0.996136644795344     
   1.14829657922467       0.994761080716978     
   1.16032061815218       0.993829021279610     
   1.17234465707969       0.993602302779449     
   1.18436869600720       0.994244494475014     
   1.19639273493470       0.995620854793992     
   1.20841687523252       0.993565139295540     
   1.22044091416003       0.993402247969548     
   1.23246495308754       0.994225945896751     
   1.24448899201505       0.993685375949497     
   1.25651303094255       0.993028529338919     
   1.26853706987006       0.993537026570272     
   1.28056110879757       0.995114928410244     
   1.29258514772508       0.992658654361796     
   1.30460918665259       0.993281433648880     
   1.31663322558010       0.995135850807175     
   1.32865726450760       0.997563409855981     
   1.34068140480542       0.999526140023661     
   1.35270544373293       0.999885188111642     
   1.36472948266044       0.997926498983591     
   1.37675352158795       0.993649203539609     
   1.38877756051545       0.987866357581753     
   1.40080159944296       0.981998015737638     
   1.41282563837047       0.988944364925965     
   1.42484967729798       0.982452782418082     
   1.43687371622549       0.977439931842956     
   1.44889775515300       0.975595528585217     
   1.46092179408051       0.977900207013998     
   1.47294593437832       0.983578324040388     
   1.48496997330583       0.991035226060705     
   1.49699401223334       0.985555168883764     
   1.50901805116085       0.993605089017044     
   1.52104209008835       0.999201981468501     
   1.53306612901586       0.999064338939978     
   1.54509016794337       0.999141089840491     
   1.55711420687088       0.999241224196843     
   1.56913824579839       0.992874492185786     
   1.58116228472590       0.980861127482455     
   1.59318632365341       0.966535020130252     
   1.60521046395122       0.950476584594960     
   1.61723450287873       0.935408110352710     
   1.62925854180624       0.923216278208871     
   1.64128258073375       0.930316092092863     
   1.65330661966125       0.919610371559299     
   1.66533065858876       0.914588957488492     
   1.67735469751627       0.915912753968232     
   1.68937873644378       0.923975203750493     
   1.70140287674160       0.936771559959361     
   1.71342681429880       0.953026657773889     
   1.72545095459661       0.970304234293731     
   1.73747489215381       0.985701777087410     
   1.74949903245163       0.996331673649711     
   1.76152297000883       0.999996329086321     
   1.77354711030665       0.995823199683358     
   1.78557104786385       0.984559490204364     
   1.79759518816166       0.968366292112416     
   1.80961932845948       0.950215580193655     
   1.82164326601668       0.933179008575635     
   1.83366740631450       0.919869631096524     
   1.84569134387170       0.912132883225280     
   1.85771548416951       0.910937439873560     
   1.86973942172671       0.916366013202525     
   1.88176356202453       0.927635762238276     
   1.89378749958173       0.943142599279313     
   1.90581163987955       0.960585088151244     
   1.91783557743675       0.977247995435686     
   1.92985971773456       0.990479962041205     
   1.94188385803238       0.998280821531464     
   1.95390779558958       0.999789871737565     
   1.96593193588740       0.995453803926366     
   1.97795587344460       0.986799614670591     
   1.98998001374241       0.975940291187180     
   2.00200395129962       0.965040850184875     
   2.01402809159743       0.955920827335901     
   2.02605202915463       0.949848329003501     
   2.03807616945245       0.947488780923976     
   2.05010010700965       0.948942665929823     
   2.06212424730746       0.953821523883616     
   2.07414838760528       0.961339867547825     
   2.08617232516248       0.970423113013537     
   2.09819646546030       0.979840516513271     
   2.11022040301750       0.988366509977014     
   2.12224454331531       0.994957458168339     
   2.13426848087252       0.998912462189565     
   2.14629262117033       0.999978254699813     
   2.15831655872753       0.998367844384124     
   2.17034069902535       0.994688091692638     
   2.18236463658255       0.989799821658298     
   2.19438877688036       0.984650703322316     
   2.20641291717818       0.980119941596637     
   2.21843685473538       0.976899947586009     
   2.23046099503320       0.975423748130475     
   2.24248493259040       0.975835681588479     
   2.25450907288821       0.977998959796083     
   2.26653301044542       0.981534563240566     
   2.27855715074323       0.985887638937862     
   2.29058108830043       0.990416752769647     
   2.30260522859825       0.994496871242343     
   2.31462916615545       0.997620541092690     
   2.32665330645327       0.999477420562541     
   2.33867744675108       0.999994178398284     
   2.35070138430828       0.999325974895267     
   2.36272552460610       0.997804044940991     
   2.37474946216330       0.995855433774634     
   2.38677360246111       0.993915968025305     
   2.39879754001832       0.992355248609474     
   2.41082168031613       0.991425555699736     
   2.42284561787333       0.991238848472241     
   2.43486975817115       0.991770087479989     
   2.44689369572835       0.992881564243189     
   2.45891783602617       0.994361216534768     
   2.47094197632398       0.995967255770419     
   2.48296591388118       0.997471474391686     
   2.49499005417900       0.998694438822489     
   2.50701399173620       0.999527615896169     
   2.51903813203401       0.999940234365288     
   2.53106206959122       0.999971797571002     
   2.54308620988903       0.999713825903333     
   2.55511014744623       0.999285934702908     
   2.56713428774405       0.998811501335259     
   2.57915822530125       0.998397184715764     
   2.59118236559907       0.998118955940598     
   2.60320650589688       0.998015614525150     
   2.61523044345408       0.998089361345067     
   2.62725458375190       0.998312023742167     
   2.63927852130910       0.998634978125296     
   2.65130266160692       0.999000628653245     
   2.66332659916412       0.999353414271280     
   2.67535073946193       0.999648679661484     
   2.68737467701913       0.999858302623853     
   2.69939881731695       0.999972639656904     
   2.71142275487415       0.999999023666556     
   2.72344689517197       0.999957605284818     
   2.73547103546978       0.999875678205875     
   2.74749497302698       0.999781725056762     
   2.75951911332480       0.999700277805779     
   2.77154305088200       0.999648367432247     
   2.78356719117982       0.999633928672612     
   2.79559112873702       0.999656116037561     
   2.80761526903483       0.999707150246422     
   2.81963920659203       0.999775098060531     
   2.83166334688985       0.999846913576529     
   2.84368728444705       0.999911128879089     
   2.85571142474487       0.999959747229399     
   2.86773556504268       0.999989117409075     
   2.87975950259988       0.999999801737957     
   2.89178364289770       0.999995645262935     
   2.90380758045490       0.999982376124274     
   2.91583172075272       0.999966103142522     
   2.92785565830992       0.999952032369093     
   2.93987979860773       0.999943621770404     
   2.95190373616493       0.999942263209527     
   2.96392787646275       0.999947455105838     
   2.97595181401995       0.999957333262693     
   2.98797595431777       0.999969376624498     
   3.00000009461558       0.999981102333516     

------------------------------------------------------------------------------
  Final output of selected total energy values:

  The following output summarizes some interesting total energy values
  at the end of a run (AFTER all relaxation, molecular dynamics, etc.).

  | Total energy of the DFT / Hartree-Fock s.c.f. calculation      :       -8034765.961217144 eV
  | Final zero-broadening corrected energy (caution - metals only) :       -8034765.964412735 eV
  | For reference only, the value of 1 Hartree used in FHI-aims is :             27.211384500 eV

  Before relying on these values, please be sure to understand exactly which
  total energy value is referred to by a given number. Different objects may
  all carry the same name 'total energy'. Definitions:

  Total energy of the DFT / Hartree-Fock s.c.f. calculation:
  | Note that this energy does not include ANY quantities calculated after the
  | s.c.f. cycle, in particular not ANY RPA, MP2, etc. many-body perturbation terms.

  Final zero-broadening corrected energy:
  | For metallic systems only, a broadening of the occupation numbers at the Fermi
  | level can be extrapolated back to zero broadening by an electron-gas inspired
  | formula. For all systems that are not real metals, this value can be
  | meaningless and should be avoided.

------------------------------------------------------------------------------

 * A warning was issued further up regarding the accuracy of onsite integrals.
   An integral with a negative eigenvalue was among the flagged integrals.
   In most standard situations, this warning is probably harmless.
   If needed, this can be verified by adjusting the radial_multiplier flag.

------------------------------------------------------------
          Leaving FHI-aims.
          Date     :  20140415, Time     :  112907.047

          Computational steps:
          | Number of self-consistency cycles          :           15

          Detailed time accounting                     :  max(cpu_time)    wall_clock(cpu1)
          | Total time                                 :     1193.339 s        1197.341 s
          | Preparation time                           :        0.564 s           0.564 s
          | Grid partitioning                          :        0.116 s           0.116 s
          | Preloading free-atom quantities on grid    :        0.008 s           0.006 s
          | Free-atom superposition energy             :        0.032 s           0.033 s
          | Total time for integrations                :        4.308 s           4.288 s
          | Total time for solution of K.-S. equations :       37.734 s          37.845 s
          | Total time for density update              :        9.497 s           9.516 s
          | Total time for mixing & preconditioning    :        0.908 s           0.893 s
          | Total time for Hartree multipole update    :        0.088 s           0.070 s
          | Total time for Hartree multipole sum       :     1035.601 s        1038.955 s
          | Total time for total energy evaluation     :        0.000 s           0.003 s
          | Total time for scaled ZORA corrections     :        0.000 s           0.000 s

          Have a nice day.
------------------------------------------------------------
