  MPI-parallelism will be employed.
------------------------------------------------------------
          Invoking FHI-aims ...

          When using FHI-aims, please cite the following reference:

          Volker Blum, Ralf Gehrke, Felix Hanke, Paula Havu,
          Ville Havu, Xinguo Ren, Karsten Reuter, and Matthias Scheffler,
          'Ab Initio Molecular Simulations with Numeric Atom-Centered Orbitals',
          Computer Physics Communications 180, 2175-2196 (2009)

          For any questions about FHI-aims, please visit the aimsclub website
          with its forums and wiki. Contributions to both the forums and the
          wiki are warmly encouraged - they are for you, and everyone is welcome there.

------------------------------------------------------------



  Date     :  20190817, Time     :  153159.582
  Time zero on CPU 1             :   0.428330000000000E-01  s.
  Internal wall clock time zero  :           335287919.582  s.

  FHI-aims created a unique identifier for this run for later identification
  aims_uuid : DBC43071-1C5E-4ADE-A37A-D6D4C9BAB4B2

  Build configuration of the current instance of FHI-aims
  -------------------------------------------------------
  FHI-aims version      : 190813
  Commit number         : 3da7baeb3
  CMake host system     : Linux-4.4.180-94.97-default
  CMake version         : 3.5.2
  Fortran compiler      : /mpcdf/soft/SLE_12_SP3/packages/x86_64/intel_parallel_studio/2018.4/compilers_and_libraries_2018.5.274/linux/mpi/bin64/mpiifort (Intel) version 18.0.5.20180823
  Fortran compiler flags: -O3 -ip -fp-model precise
  C compiler            : /mpcdf/soft/SLE_12_SP3/packages/skylake/intel/18.0.5/bin/icc (Intel) version 18.0.5.20180823
  C compiler flags      : -O3 -ip -fp-model precise
  Architecture          :
  Using MPI
  Using Scalapack
  Using C files
  Using SPGlib
  Using i-PI
  Linking against: /mpcdf/soft/SLE_12_SP3/packages/x86_64/anaconda/3.5.1.0/lib/libmkl_intel_lp64.so
                   /mpcdf/soft/SLE_12_SP3/packages/x86_64/anaconda/3.5.1.0/lib/libmkl_sequential.so
                   /mpcdf/soft/SLE_12_SP3/packages/x86_64/anaconda/3.5.1.0/lib/libmkl_core.so
                   /mpcdf/soft/SLE_12_SP3/packages/x86_64/anaconda/3.5.1.0/lib/libmkl_blacs_intelmpi_lp64.so
                   /mpcdf/soft/SLE_12_SP3/packages/x86_64/anaconda/3.5.1.0/lib/libmkl_scalapack_lp64.so

  Using        8 parallel tasks.
  Task        0 on host co1631 reporting.
  Task        1 on host co1631 reporting.
  Task        2 on host co1631 reporting.
  Task        3 on host co1631 reporting.
  Task        4 on host co1631 reporting.
  Task        5 on host co1631 reporting.
  Task        6 on host co1631 reporting.
  Task        7 on host co1631 reporting.

  Performing system and environment tests:
  | Environment variable OMP_NUM_THREADS correctly set to 1.
  | Maximum stacksize for task 0: unlimited
  | Maximum stacksize for task 1: unlimited
  | Maximum stacksize for task 2: unlimited
  | Maximum stacksize for task 3: unlimited
  | Maximum stacksize for task 4: unlimited
  | Maximum stacksize for task 5: unlimited
  | Maximum stacksize for task 6: unlimited
  | Maximum stacksize for task 7: unlimited
  | Current stacksize for task 0: unlimited
  | Current stacksize for task 1: unlimited
  | Current stacksize for task 2: unlimited
  | Current stacksize for task 3: unlimited
  | Current stacksize for task 4: unlimited
  | Current stacksize for task 5: unlimited
  | Current stacksize for task 6: unlimited
  | Current stacksize for task 7: unlimited
  | Checking for scalapack...
  | Testing pdtran()...
  | All pdtran() tests passed.

  Obtaining array dimensions for all initial allocations:
  
  -----------------------------------------------------------------------
  Parsing control.in (first pass over file, find array dimensions only).
  The contents of control.in will be repeated verbatim below
  unless switched off by setting 'verbatim_writeout .false.' .
  in the first line of control.in .
  -----------------------------------------------------------------------
  
  #------------------------------------------
  #just a test set up for the pseudopotential
  #------------------------------------------
    #
    #  Physical model settings
    #
      xc               pbe
      charge           0.
      spin             collinear
      relativistic     zora scalar 1e-12
    #
    #  SCF convergence settings
    #
      default_initial_moment 0.1
  
      occupation_type  gaussian 0.1
      mixer            pulay
        n_max_pulay             10
        charge_mix_param        0.2
        # ini_linear_mixing     10
        # ini_linear_mix_param  0.05
        # preconditioner kerker 1.5
        # precondition_max_l    0
        # preconditioner turnoff charge 1e-4
        # preconditioner turnoff sum_ev 1e-1
      sc_accuracy_rho  1E-5
      sc_accuracy_eev  1E-4
      sc_accuracy_etot 1E-6
      sc_iter_limit    800
  
  
    output hirshfeld
    output mulliken
  
  
  ################################################################################
  #
  #  FHI-aims code project
  #  VB, Fritz-Haber Institut, 2009
  #
  #  Suggested "light" defaults for Cl atom (to be pasted into control.in file)
  #  Be sure to double-check any results obtained with these settings for post-processing,
  #  e.g., with the "tight" defaults and larger basis sets.
  #
  ################################################################################
    species        Cl
  #     global species definitions
      nucleus             17
      mass                35.453
  #
      l_hartree           4
  #
      cut_pot             3.5          1.5  1.0
      basis_dep_cutoff    1e-4
  #
      radial_base         45 5.0
      radial_multiplier   1
      angular_grids       specified
        division   0.4412  110
        division   0.5489  194
        division   0.6734  302
  #      division   0.7794  434
  #      division   0.9402  590
  #      division   1.0779  770
  #      division   1.1792  974
  #      outer_grid  974
        outer_grid  302
  ################################################################################
  #
  #  Definition of "minimal" basis
  #
  ################################################################################
  #     valence basis states
      valence      3  s   2.
      valence      3  p   5.
  #     ion occupancy
      ion_occ      3  s   1.
      ion_occ      3  p   4.
  ################################################################################
  #
  #  Suggested additional basis functions. For production calculations,
  #  uncomment them one after another (the most important basis functions are
  #  listed first).
  #
  #  Constructed for dimers: 1.65 A, 2.0 A, 2.5 A, 3.25 A, 4.0 A
  #
  ################################################################################
  #  "First tier" - improvements: -429.57 meV to -15.03 meV
       ionic 3 d auto
       hydro 2 p 1.9
       hydro 4 f 7.4
       ionic 3 s auto
       hydro 5 g 10.4
  #  "Second tier" - improvements: -7.84 meV to -0.48 meV
  #     hydro 3 d 3.3
  #     hydro 5 f 9.8
  #     hydro 1 s 0.75
  #     hydro 5 g 11.2
  #     hydro 4 p 10.4
  #  "Third tier" - improvements: -1.00 meV to -0.12 meV
  #     hydro 4 d 12.8
  #     hydro 4 f 4.6
  #     hydro 4 d 10.8
  #     hydro 2 s 1.8
  #     hydro 3 p 3
  #  Further functions that fell out - improvements: -0.10 meV and below
  #     hydro 5 f 14.4
  #     hydro 4 s 12.8
  #     hydro 3 d 11.6
  #     hydro 4 s 4.1
  ################################################################################
  #
  #  FHI-aims code project
  #  VB, Fritz-Haber Institut, 2009
  #
  #  Suggested "light" defaults for Na atom (to be pasted into control.in file)
  #  Be sure to double-check any results obtained with these settings for post-processing,
  #  e.g., with the "tight" defaults and larger basis sets.
  #
  ################################################################################
    species        Na_pseudo
  #     global species definitions
  
  #  MUST NOT WORK IF PSEUDO IS THERE AND VICE VERSA
      pseudo              Na.cpi
      nucleus             11.
      pp_charge           1.
      pp_local_component     0
      nonlinear_core      .false.
  #
      include_min_basis .false.
  #
      mass                22.98976928
  #
      l_hartree           4
  #
      cut_pot             4.0          1.5  1.0
      basis_dep_cutoff    1e-4
  #
      radial_base         40 5.5
      radial_multiplier   1
      angular_grids       specified
        division   0.5925  110
        division   0.7843  194
        division   1.0201  302
  #      division   1.1879  434
  #      division   1.3799  590
  #      division   1.4503  770
  #      division   7.0005  974
  #      outer_grid  974
        outer_grid  302
  ################################################################################
  #
  #  Definition of "minimal" basis
  #
  ################################################################################
  #     valence basis states
      valence      3  s   1.
      valence      2  p   6.
  #     ion occupancy
      ion_occ      2  s   2.
      ion_occ      2  p   6.
  ################################################################################
  #
  #  Suggested additional basis functions. For production calculations,
  #  uncomment them one after another (the most important basis functions are
  #  listed first).
  #
  #  Constructed for dimers: 2.0 A, 2.5 A, 3.0 A, 3.75 A, 4.5 A
  #
  ################################################################################
  #  "First tier" - improvements: -60.09 meV to -10.02 meV
  #     hydro 2 p 1.2
  #     hydro 3 s 1.8
  #     hydro 3 d 3.8
  #  "Second tier" - improvements: -2.94 meV to -1.27 meV
  #     hydro 4 p 3.1
  #     hydro 3 s 10
  #     hydro 4 f 6.2
  #     hydro 4 d 1.3
  #  "Third tier" - improvements: -0.83 meV to -0.07 meV
  #     hydro 3 d 7.8
  #     hydro 3 p 2.3
  #     hydro 5 g 9.6
  #     hydro 4 p 0.85
  #     hydro 5 f 1.8
  #     hydro 2 s 0.6
  #  Further basis functions that fell out of the optimization - noise level...
  #     hydro 5 g 0.1
  #     hydro 4 d 3.4
  #     hydro 4 s 0.1
  
  ################################################################################
  #
  #  FHI-aims code project
  #  VB, Fritz-Haber Institut, 2009
  #
  #  Suggested "light" defaults for Na atom (to be pasted into control.in file)
  #  Be sure to double-check any results obtained with these settings for post-processing,
  #  e.g., with the "tight" defaults and larger basis sets.
  #
  ################################################################################
    species        Na
  #     global species definitions
      nucleus             11
      mass                22.98976928
  #
      l_hartree           4
  #
      cut_pot             4.0          1.5  1.0
      basis_dep_cutoff    1e-4
  #
      radial_base         40 5.5
      radial_multiplier   1
      angular_grids       specified
        division   0.5925  110
        division   0.7843  194
        division   1.0201  302
  #      division   1.1879  434
  #      division   1.3799  590
  #      division   1.4503  770
  #      division   7.0005  974
  #      outer_grid  974
        outer_grid  302
  ################################################################################
  #
  #  Definition of "minimal" basis
  #
  ################################################################################
  #     valence basis states
      valence      3  s   1.
      valence      2  p   6.
  #     ion occupancy
      ion_occ      2  s   2.
      ion_occ      2  p   6.
  ################################################################################
  #
  #  Suggested additional basis functions. For production calculations,
  #  uncomment them one after another (the most important basis functions are
  #  listed first).
  #
  #  Constructed for dimers: 2.0 A, 2.5 A, 3.0 A, 3.75 A, 4.5 A
  #
  ################################################################################
  #  "First tier" - improvements: -60.09 meV to -10.02 meV
       hydro 2 p 1.2
       hydro 3 s 1.8
       hydro 3 d 3.8
  #  "Second tier" - improvements: -2.94 meV to -1.27 meV
  #     hydro 4 p 3.1
  #     hydro 3 s 10
  #     hydro 4 f 6.2
  #     hydro 4 d 1.3
  #  "Third tier" - improvements: -0.83 meV to -0.07 meV
  #     hydro 3 d 7.8
  #     hydro 3 p 2.3
  #     hydro 5 g 9.6
  #     hydro 4 p 0.85
  #     hydro 5 f 1.8
  #     hydro 2 s 0.6
  #  Further basis functions that fell out of the optimization - noise level...
  #     hydro 5 g 0.1
  #     hydro 4 d 3.4
  #     hydro 4 s 0.1
  
  -----------------------------------------------------------------------
  Completed first pass over input file control.in .
  -----------------------------------------------------------------------
  
  
  -----------------------------------------------------------------------
  Parsing geometry.in (first pass over file, find array dimensions only).
  The contents of geometry.in will be repeated verbatim below
  unless switched off by setting 'verbatim_writeout .false.' .
  in the first line of geometry.in .
  -----------------------------------------------------------------------
  
  pseudocore  2.25 0.000  0.000  Na_pseudo
  atom  0 0.000  0.000  Cl
  atom  0.0 2.25  0.000  Na
  multipole 2.5 2.5 0  0 -1
  
  #atom  2.5 2.5  0.000  Cl
  
  -----------------------------------------------------------------------
  Completed first pass over input file geometry.in .
  -----------------------------------------------------------------------
  

  Basic array size parameters:
  | Number of species                 :        3
  | Number of atoms                   :        2
  | Max. basis fn. angular momentum   :        4
  | Max. atomic/ionic basis occupied n:        3
  | Max. number of basis fn. types    :        3
  | Max. radial fns per species/type  :        5
  | Max. logarithmic grid size        :     1362
  | Max. radial integration grid size :       45
  | Max. angular integration grid size:      302
  | Max. angular grid division number :        8
  | Radial grid for Hartree potential :     1362
  | Number of spin channels           :        2
  | External embedding multipoles     :        1
  | Number of pseudoized species      :        1
  | Number of pseudocores             :        1

------------------------------------------------------------
          Reading file control.in.
------------------------------------------------------------
  XC: Using PBE gradient-corrected functionals.
  Charge =   0.000000E+00: Neutral system requested explicitly.
  Spin treatment: Spin density functional theory - collinear spins.
  Scalar relativistic treatment of kinetic energy: ZORA.
  Threshold value for ZORA:   0.100000E-11
  Initial spin moment per atom:   0.1000
  Occupation type: Gaussian broadening, width =   0.100000E+00 eV.
  Using pulay charge density mixing.
  Pulay mixing - number of memorized iterations:   10
  Charge density mixing - mixing parameter:     0.2000
  Convergence accuracy of self-consistent charge density:  0.1000E-04
  Convergence accuracy of sum of eigenvalues:  0.1000E-03
  Convergence accuracy of total energy:  0.1000E-05
  Maximum number of s.-c. iterations  :   800
  Hirshfeld charge analysis will be performed.
  Full Mulliken charge analysis will be written to file 'Mulliken.out'.
 
  Reading configuration options for species Cl                  .
  | Found nuclear charge :  17.0000
  | Found atomic mass :    35.4530000000000      amu
  | Found l_max for Hartree potential  :   4
  | Found cutoff potl. onset [A], width [A], scale factor :    3.50000    1.50000    1.00000
  | Threshold for basis-dependent cutoff potential is   0.100000E-03
  | Found data for basic radial integration grid :    45 points, outermost radius =    5.000 A
  | Found multiplier for basic radial grid :   1
  | Found angular grid specification: user-specified.
  | Specified grid contains     4 separate shells.
  | Check grid settings after all constraints further below.
  | Found free-atom valence shell :  3 s   2.000
  | Found free-atom valence shell :  3 p   5.000
  | Found free-ion valence shell :  3 s   1.000
  | Found free-ion valence shell :  3 p   4.000
  | Found ionic basis function :  3 d , default cutoff radius.
  | Found hydrogenic basis function :  2 p   1.900
  | Found hydrogenic basis function :  4 f   7.400
  | Found ionic basis function :  3 s , default cutoff radius.
  | Found hydrogenic basis function :  5 g  10.400
  Species Cl                  : Missing cutoff potential type.
  Defaulting to exp(1/x)/(1-x)^2 type cutoff potential.
  Species Cl: No 'logarithmic' tag. Using default grid for free atom:
  | Default logarithmic grid data [bohr] : 0.1000E-03 0.1000E+03 0.1012E+01
  | Will include ionic basis functions of  2.0-fold positive Cl                   ion.
  Species Cl: On-site basis accuracy parameter (for Gram-Schmidt orthonormalisation) not specified.
  Using default value basis_acc =  0.1000000E-03.
  Species Cl                  : Using default innermost maximum threshold i_radial=  2 for radial functions.
  Species Cl                  : Default cutoff onset for free atom density etc. : 0.35000000E+01 AA.
  Species Cl                  : Basic radial grid will be enhanced according to radial_multiplier =   1, to contain    45 grid points.
 
  Reading configuration options for species Na_pseudo           .
  | Found nuclear charge :  11.0000
  | Found pseudocore charge  :    1.00000000000000     
  | For this pseudo species            0  is used for the local component!
  | Found request to include minimal basis fns. :     F
  | Found atomic mass :    22.9897692800000      amu
  | Found l_max for Hartree potential  :   4
  | Found cutoff potl. onset [A], width [A], scale factor :    4.00000    1.50000    1.00000
  | Threshold for basis-dependent cutoff potential is   0.100000E-03
  | Found data for basic radial integration grid :    40 points, outermost radius =    5.500 A
  | Found multiplier for basic radial grid :   1
  | Found angular grid specification: user-specified.
  | Specified grid contains     4 separate shells.
  | Check grid settings after all constraints further below.
  | Found free-atom valence shell :  3 s   1.000
  | Found free-atom valence shell :  2 p   6.000
  | Found free-ion valence shell :  2 s   2.000
  | Found free-ion valence shell :  2 p   6.000
  Species Na_pseudo           : Missing cutoff potential type.
  Defaulting to exp(1/x)/(1-x)^2 type cutoff potential.
  Species Na: No 'logarithmic' tag. Using default grid for free atom:
  | Default logarithmic grid data [bohr] : 0.1000E-03 0.1000E+03 0.1012E+01
  Species Na: On-site basis accuracy parameter (for Gram-Schmidt orthonormalisation) not specified.
  Using default value basis_acc =  0.1000000E-03.
  Species Na_pseudo           : Using default innermost maximum threshold i_radial=  2 for radial functions.
  Species Na_pseudo           : Default cutoff onset for free atom density etc. : 0.40000000E+01 AA.
  Species Na_pseudo           : Basic radial grid will be enhanced according to radial_multiplier =   1, to contain    40 grid points.
 
  Reading configuration options for species Na                  .
  | Found nuclear charge :  11.0000
  | Found atomic mass :    22.9897692800000      amu
  | Found l_max for Hartree potential  :   4
  | Found cutoff potl. onset [A], width [A], scale factor :    4.00000    1.50000    1.00000
  | Threshold for basis-dependent cutoff potential is   0.100000E-03
  | Found data for basic radial integration grid :    40 points, outermost radius =    5.500 A
  | Found multiplier for basic radial grid :   1
  | Found angular grid specification: user-specified.
  | Specified grid contains     4 separate shells.
  | Check grid settings after all constraints further below.
  | Found free-atom valence shell :  3 s   1.000
  | Found free-atom valence shell :  2 p   6.000
  | Found free-ion valence shell :  2 s   2.000
  | Found free-ion valence shell :  2 p   6.000
  | Found hydrogenic basis function :  2 p   1.200
  | Found hydrogenic basis function :  3 s   1.800
  | Found hydrogenic basis function :  3 d   3.800
  Species Na                  : Missing cutoff potential type.
  Defaulting to exp(1/x)/(1-x)^2 type cutoff potential.
  Species Na: No 'logarithmic' tag. Using default grid for free atom:
  | Default logarithmic grid data [bohr] : 0.1000E-03 0.1000E+03 0.1012E+01
  Species Na: On-site basis accuracy parameter (for Gram-Schmidt orthonormalisation) not specified.
  Using default value basis_acc =  0.1000000E-03.
  Species Na                  : Using default innermost maximum threshold i_radial=  2 for radial functions.
  Species Na                  : Default cutoff onset for free atom density etc. : 0.40000000E+01 AA.
  Species Na                  : Basic radial grid will be enhanced according to radial_multiplier =   1, to contain    40 grid points.
 
  Finished reading input file 'control.in'. Consistency checks are next.
 
  MPI_IN_PLACE appears to work with this MPI implementation.
  | Keeping use_mpi_in_place .true. (see manual).
  Target number of points in a grid batch is not set. Defaulting to  100
  Method for grid partitioning is not set. Defaulting to parallel hash+maxmin partitioning.
  Batch size limit is not set. Defaulting to    200
  By default, will store active basis functions for each batch.
  If in need of memory, prune_basis_once .false. can be used to disable this option.
  communication_type for Hartree potential was not specified.
  Defaulting to calc_hartree .
  Pulay mixer: Number of initial linear mixing iterations not set.
  Defaulting to    0 iterations.
  Work space size for distributed Hartree potential not set.
  Defaulting to   0.200000E+03 MB.
  Mixing parameter for spin density mixing has not been set.
  Using charge_mix_param as default:     0.2000.
  Algorithm-dependent basis array size parameters:
  | n_max_pulay                         :       10
  Presetting      1001 iterations before the initial mixing cycle
  is restarted anyway using the sc_init_iter criterion / keyword.
  Presetting a factor      1.000 between actual scf density residual
  and density convergence criterion sc_accuracy_rho below which sc_init_iter
  takes no effect.
  Calculation of forces was not defined in control.in. No forces will be calculated.
  Geometry relaxation not requested: no relaxation will be performed.
  No accuracy limit for integral partition fn. given. Defaulting to  0.1000E-14.
  No threshold value for u(r) in integrations given. Defaulting to  0.1000E-05.
  No accuracy for occupation numbers given. Defaulting to  0.1000E-12.
  No threshold value for occupation numbers given. Defaulting to  0.0000E+00.
  No accuracy for fermi level given. Defaulting to  0.1000E-19.
  Maximum # of iterations to find E_F not set. Defaulting to  200.
  Preferred method for the eigenvalue solver ('KS_method') not specified in 'control.in'.
  Calling BLACS routine to test compilation state
  Since ScaLAPACK support is enabled, defaulting to ELPA (via ELSI).
  Will not use alltoall communication since running on < 1024 CPUs.
  Threshold for basis singularities not set.
  Default threshold for basis singularities:  0.1000E-04
  partition_type (choice of integration weights) for integrals was not specified.
  | Using a version of the partition function of Stratmann and coworkers ('stratmann_sparse').
  | At each grid point, the set of atoms used to build the partition table is smoothly restricted to
  | only those atoms whose free-atom density would be non-zero at that grid point.
  Partitioning for Hartree potential was not defined. Using partition_type for integrals.
  | Adjusted default value of keyword multip_moments_threshold to:       0.10000000E-11
  | This value may affect high angular momentum components of the Hartree potential in periodic systems.
  No q(lm)/r^(l+1) cutoff set for long-range Hartree potential.
  | Using default value of  0.100000E-09 .
  | Verify using the multipole_threshold keyword.
  Defaulting to new monopole extrapolation.
  Density update method: automatic selection selected.
 * Warning: When pseudopotentials are used, only the Kohn-Sham orbital based
 * density update method is currently allowed. For very large QM systems, this
 * will lead to O(N^2) scaling, please contact us if this is a practical problem.
  Charge integration errors on the 3D integration grid will be compensated
  by explicit normalization and distribution of residual charges.
  Use the "compensate_multipole_errors" flag to change this behaviour.
------------------------------------------------------------


------------------------------------------------------------
          Reading geometry description geometry.in.
------------------------------------------------------------
  Input structure read successfully.
  The structure contains        2 atoms,  and a total of         28.000 electrons.
  It furthermore comprises        1 multipoles.

  Input geometry:
  | No unit cell requested.
  | Atomic structure:
  |       Atom                x [A]            y [A]            z [A]
  |    1: Species Cl            0.00000000        0.00000000        0.00000000
  |    2: Species Na            0.00000000        2.25000000        0.00000000
  |    1: Multipole         2.50000000        2.50000000        0.00000000     0      -1.000
  |    1: Pseudocore Na_pseudo      2.25000000        0.00000000        0.00000000
  | The smallest distance between any two atoms is         2.25000000 AA.
  | The first atom of this pair is atom number                      1 .
  | The second atom of this pair is atom number                     2 .

  Initial moments and charges:
  |  Atom   Moment         Charge        Species
  |     1   0.100000E+00   0.000000E+00   Cl
  |     2   0.100000E+00   0.000000E+00   Na

  Number of empty states per atom not set in control.in - providing a guess from actual geometry.
  | Total number of empty states used during s.c.f. cycle:        6
  If you use a very high smearing, use empty_states (per atom!) in control.in to increase this value.

  Structure-dependent array size parameters: 
  | Number of distinct atom types in initial rho :        2
  | Maximum number of distinct radial functions  :       17
  | Maximum number of basis functions            :       49
  | Number of Kohn-Sham states (occupied + empty):       20
------------------------------------------------------------

------------------------------------------------------------
          Preparing all fixed parts of the calculation.
------------------------------------------------------------
  Determining machine precision:
    2.225073858507201E-308
  Setting up grids for atomic and cluster calculations.

  Creating wave function, potential, and density for free atoms.

  Species: Cl

  List of occupied orbitals and eigenvalues:
    n    l              occ      energy [Ha]    energy [eV]
    1    0           2.0000      -101.451673     -2760.6405
    2    0           2.0000        -9.288282      -252.7470
    3    0           2.0000        -0.759332       -20.6625
    2    1           6.0000        -7.042657      -191.6405
    3    1           5.0000        -0.314806        -8.5663


  Species: Na_pseudo

  List of occupied orbitals and eigenvalues:
    n    l              occ      energy [Ha]    energy [eV]
    1    0           2.0000       -38.022277     -1034.6388
    2    0           2.0000        -2.069032       -56.3012
    3    0           1.0000        -0.087110        -2.3704
    2    1           6.0000        -1.037053       -28.2196


  Species: Na

  List of occupied orbitals and eigenvalues:
    n    l              occ      energy [Ha]    energy [eV]
    1    0           2.0000       -38.022277     -1034.6388
    2    0           2.0000        -2.069032       -56.3012
    3    0           1.0000        -0.087110        -2.3704
    2    1           6.0000        -1.037053       -28.2196

  Spin-polarized or charged system:
  Charge density initialized according to selected moments and charges.

  Creating spin-polarized density from free atoms.

  Species: Cl
  Charge:   0.000000
  Moment:   0.100000

  List of occupied orbitals and eigenvalues:
    n    l      energy [Ha]    energy [eV]    occupation
  Spin-up
    1    0      -101.451946     -2760.6479     1.00000000
    2    0        -9.288531      -252.7538     1.00000000
    3    0        -0.761092       -20.7104     1.00000000
    2    1        -7.043019      -191.6503     3.00000000
    3    1        -0.316400        -8.6097     2.55000000
  Spin-down
    1    0      -101.451368     -2760.6322     1.00000000
    2    0        -9.288004      -252.7395     1.00000000
    3    0        -0.757542       -20.6138     1.00000000
    2    1        -7.042267      -191.6298     3.00000000
    3    1        -0.313185        -8.5222     2.45000000


  Species: Na
  Charge:   0.000000
  Moment:   0.100000

  List of occupied orbitals and eigenvalues:
    n    l      energy [Ha]    energy [eV]    occupation
  Spin-up
    1    0       -38.022304     -1034.6395     1.00000000
    2    0        -2.069141       -56.3042     1.00000000
    3    0        -0.088802        -2.4164     0.55000000
    2    1        -1.037182       -28.2232     3.00000000
  Spin-down
    1    0       -38.022195     -1034.6366     1.00000000
    2    0        -2.068872       -56.2969     1.00000000
    3    0        -0.085344        -2.3223     0.45000000
    2    1        -1.036871       -28.2147     3.00000000

  Creating fixed part of basis set: Ionic, confined, hydrogenic.
 
  Cl                   ion:

  List of free ionic orbitals and eigenvalues:
    n    l      energy [Ha]    energy [eV]
    1    0      -102.554413     -2790.6476
    2    0       -10.359555      -281.8978
    3    0        -1.672516       -45.5115
    2    1        -8.116241      -220.8542
    3    1        -1.184158       -32.2226


  List of ionic basis orbitals and eigenvalues:
    n    l      energy [Ha]    energy [eV]    outer radius [A]
    3    2        -0.527851       -14.3636       4.541334
    3    0        -1.672502       -45.5111       3.428237

 
  Cl                   hydrogenic:
 
  List of hydrogenic basis orbitals: 
    n    l      effective z      eigenvalue [eV]  inner max. [A]     outer max. [A]     outer radius [A]   
    2    1         1.900000       -12.2492           1.113321           1.113321           4.597192
    4    3         7.400000       -46.5647           1.140877           1.140877           4.486154
    5    4        10.400000       -58.8630           1.273568           1.273568           4.541334
 
 
  Na                   hydrogenic:
 
  List of hydrogenic basis orbitals: 
    n    l      effective z      eigenvalue [eV]  inner max. [A]     outer max. [A]     outer radius [A]   
    2    1         1.200000        -4.7043           1.699681           1.699681           5.107393
    3    0         1.800000        -2.7647           0.215330           3.132057           5.107393
    3    2         3.800000       -21.8265           1.252092           1.252092           5.045336
 

  Adding cutoff potential to free-atom effective potential.
  Creating atomic-like basis functions for current effective potential.

  Species Cl                  :

  List of atomic basis orbitals and eigenvalues:
    n    l      energy [Ha]    energy [eV]    outer radius [A]
    1    0      -101.451673     -2760.6405       0.642251
    2    0        -9.288282      -252.7470       2.102331
    3    0        -0.759332       -20.6625       4.431645
    2    1        -7.042657      -191.6405       2.346844
    3    1        -0.314806        -8.5663       4.541334


  Species Na                  :

  List of atomic basis orbitals and eigenvalues:
    n    l      energy [Ha]    energy [eV]    outer radius [A]
    1    0       -38.022277     -1034.6388       1.017136
    2    0        -2.069032       -56.3012       4.200021
    3    0        -0.087110        -2.3704       5.107393
    2    1        -1.037053       -28.2196       4.746176

  Assembling full basis from fixed parts.
  | Species Cl :   atomic orbital   1 s accepted.
  | Species Cl :   atomic orbital   2 s accepted.
  | Species Cl :    ionic orbital   3 s accepted.
  | Species Cl :   atomic orbital   3 s accepted.
  | Species Cl :   atomic orbital   2 p accepted.
  | Species Cl :   atomic orbital   3 p accepted.
  | Species Cl :    hydro orbital   2 p accepted.
  | Species Cl :    ionic orbital   3 d accepted.
  | Species Cl :    hydro orbital   4 f accepted.
  | Species Cl :    hydro orbital   5 g accepted.
  | Species Na :   atomic orbital   1 s accepted.
  | Species Na :   atomic orbital   2 s accepted.
  | Species Na :   atomic orbital   3 s accepted.
  | Species Na :    hydro orbital   3 s accepted.
  | Species Na :   atomic orbital   2 p accepted.
  | Species Na :    hydro orbital   2 p accepted.
  | Species Na :    hydro orbital   3 d accepted.
 
  Basis size parameters after reduction:
  | Total number of radial functions:       17
  | Total number of basis functions :       49
 
  Per-task memory consumption for arrays in subroutine allocate_ext:
  |           4.448016MB.
  Testing on-site integration grid accuracy.
  |  Species  Function  <phi|h_atom|phi> (log., in eV)  <phi|h_atom|phi> (rad., in eV)
           1        1              -2760.6404886993              -2760.6391665419
           1        2               -252.7470135404               -252.7470034035
           1        3                -20.4099766542                -20.4099452942
           1        4                  8.9880683036                  8.9931146795
           1        5               -191.6404587283               -191.6404582933
           1        6                 -8.5668684728                 -8.5677140807
           1        7                  8.1442214101                  8.1082388464 ***
           1        8                  7.0580434362                  7.0555511345
           1        9                 28.0828341331                 28.0824618426
           1       10                 45.0775103661                 45.0771353925
           3       11              -1034.6388015345              -1034.6384292053
           3       12                -56.3012341042                -56.3012327622
           3       13                 -2.3917926930                 -2.3919758405
           3       14                  4.7971360279                  4.7797727316
           3       15                -28.2196408420                -28.2196407991
           3       16                  0.6522078092                  0.6519032012
           3       17                 10.4290155204                 10.4290902730
 * Note: Onsite integrals marked "***" above are less accurate than
 * onsite_accuracy_threshold =    0.03000 eV. Usually, this is harmless.
 * When in doubt, tighten the "radial" and/or "radial_multiplier" flags to check.

 * ERROR: Atom        2 and multipole number            1 are too close to each other!
 * Distance:   2.51246891.
 * Multipoles inside or close to the basis function radius of an atom should have integration grids of their own.
 * Grids can be placed on a multipole by using empty sites without basis functions.
 * The following multipole sites require empty sites:
        1
  A number of   1  pseudocores are too close to the QM-region, and have been added to n_atoms.
  Updated number of atoms:   3

  Preparing densities etc. for the partition functions (integrals / Hartree potential).

  Preparations completed.
  max(cpu_time)          :      0.416 s.
  Wall clock time (cpu1) :      0.417 s.
------------------------------------------------------------

------------------------------------------------------------
          Begin self-consistency loop: Initialization.

          Date     :  20190817, Time     :  153200.055
------------------------------------------------------------

  Initializing index lists of integration centers etc. from given atomic structure:
  | Number of centers in hartree potential         :         3
  | Number of centers in hartree multipole         :         3
  | Number of centers in electron density summation:         3
  | Number of centers in basis integrals           :         3
  | Number of centers in integrals                 :         3
  | Number of centers in hamiltonian               :         3
  * Using 8 tasks for Scalapack Eigenvalue solver.
  Detailed listing of tasks and assigned k-points:
  (for non-periodic systems, the "k-point" denotes an internal label only)
   Task     0 k-point     1 on co1631
   Task     1 k-point     1 on co1631
   Task     2 k-point     1 on co1631
   Task     3 k-point     1 on co1631
   Task     4 k-point     1 on co1631
   Task     5 k-point     1 on co1631
   Task     6 k-point     1 on co1631
   Task     7 k-point     1 on co1631
  Tasks:     8 split into      4 X      2 BLACS grid
  Calculating block size based on n_basis =           49  max_nprow =            4  max_npcol =            2
  ScaLAPACK block size set to:            8
  Allocating        0.003 MB for ovlp
  Allocating        0.006 MB for ham
  Allocating        0.006 MB for eigenvec
  Required Scalapack workspace - INTEGER:            1  REAL:             1
  SBT integration errors (all should be 'small'):
  large logFT aliasing -> increase N/lnrange
  large SBT aliasing -> decrease lnk0 & increase lnk0+lnrange
  large SBT ringing -> decrease lnr0 & increase lnr0+lnrange
  |            El't  L: logFT-al.   small-k   large-k   small-r   large-r
  Extension of Kleinman-Bylander projectors:     3.052  bohr
  Projection is zero for distance larger than   13.064  bohr

  Partitioning the integration grid into batches with parallel hashing+maxmin method.
  | Number of batches:      362
  | Maximal batch size:     104
  | Minimal batch size:      49
  | Average batch size:      67.950
  | Standard deviation of batch sizes:      14.944

  Integration load balanced across     8 MPI tasks.
  Work distribution over tasks is as follows:
  Task     0 has       3043 integration points.
  Task     1 has       3070 integration points.
  Task     2 has       3062 integration points.
  Task     3 has       3089 integration points.
  Task     4 has       3063 integration points.
  Task     5 has       3099 integration points.
  Task     6 has       3083 integration points.
  Task     7 has       3089 integration points.

  *** local pseudopotential part successfully written on global intgrid ***

  Initializing partition tables, free-atom densities, potentials, etc. across the integration grid (initialize_grid_storage).
  | initialize_grid_storage: Actual outermost partition radius vs. multipole_radius_free
  | (-- VB: in principle, multipole_radius_free should be larger, hence this output)
  | Species        1: Confinement radius =              4.999999999999999 AA, multipole_radius_free =              5.007919576009533 AA.
  | Species        1: outer_partition_radius set to              5.007919576009533 AA .
  | Species        2: Confinement radius =              5.500000000000000 AA, multipole_radius_free =              5.563704032673898 AA.
  | Species        2: outer_partition_radius set to              5.563704032673898 AA .
  | Species        3: Confinement radius =              5.500000000000000 AA, multipole_radius_free =              5.563704032673898 AA.
  | Species        3: outer_partition_radius set to              5.563704032673898 AA .
  | The sparse table of interatomic distances needs          0.09 kbyte instead of         0.07 kbyte of memory.
  | Using the partition_type stratmann_smoother will reduce your memory usage.
  | Net number of integration points:    24598
  | of which are non-zero points    :    23868
  Renormalizing the initial density to the exact electron count on the 3D integration grid.
  | Initial density: Formal number of electrons (from input files) :      28.0000000000
  | Integrated number of electrons on 3D grid     :      27.9996639715
  | Charge integration error                      :      -0.0003360285
  | Normalization factor for density and gradient :       1.0000120012
  Renormalizing the free-atom superposition density to the exact electron count on the 3D integration grid.
  | Formal number of electrons (from input files) :      28.0000000000
  | Integrated number of electrons on 3D grid     :      27.9996636163
  | Charge integration error                      :      -0.0003363837
  | Normalization factor for density and gradient :       1.0000120138
  Obtaining max. number of non-zero basis functions in each batch (get_n_compute_maxes).
  | Maximal number of non-zero basis functions:       48 in task     0
  | Maximal number of non-zero basis functions:       49 in task     1
  | Maximal number of non-zero basis functions:       49 in task     2
  | Maximal number of non-zero basis functions:       49 in task     3
  | Maximal number of non-zero basis functions:       49 in task     4
  | Maximal number of non-zero basis functions:       48 in task     5
  | Maximal number of non-zero basis functions:       49 in task     6
  | Maximal number of non-zero basis functions:       49 in task     7
  Allocating        0.015 MB for KS_eigenvector
  Integrating Hamiltonian matrix: batch-based integration.
  Time summed over all CPUs for integration: real work        0.127 s, elapsed        0.131 s
  Integrating overlap matrix.
  Time summed over all CPUs for integration: real work        0.024 s, elapsed        0.025 s
  Not deallocating overlap matrix.

  Updating Kohn-Sham eigenvalues and eigenvectors using ELSI and the ELPA eigensolver.
  Overlap matrix is not singular
  | Lowest and highest eigenvalues :  0.4016E-01,  0.1960E+01
  Finished singularity check of overlap matrix
  | Time :     0.001 s
  Starting ELPA eigensolver
  Finished Cholesky decomposition
  | Time :     0.001 s
  Finished transformation to standard eigenproblem
  | Time :     0.000 s
  Finished solving standard eigenproblem
  | Time :     0.001 s
  Finished back-transformation of eigenvectors
  | Time :     0.000 s
  Starting ELPA eigensolver
  Finished transformation to standard eigenproblem
  | Time :     0.000 s
  Finished solving standard eigenproblem
  | Time :     0.001 s
  Finished back-transformation of eigenvectors
  | Time :     0.000 s

  Obtaining occupation numbers and chemical potential using ELSI.
  | Chemical potential (Fermi level):    -6.71526048 eV
  Writing Kohn-Sham eigenvalues.

  Spin-up eigenvalues:

  State    Occupation    Eigenvalue [Ha]    Eigenvalue [eV]
      1       1.00000        -101.549058        -2763.29047
      2       1.00000         -37.978985        -1033.46076
      3       1.00000          -9.388771         -255.48146
      4       1.00000          -7.144044         -194.39932
      5       1.00000          -7.143416         -194.38225
      6       1.00000          -7.142593         -194.35986
      7       1.00000          -2.028501          -55.19831
      8       1.00000          -1.005297          -27.35551
      9       1.00000          -0.996502          -27.11620
     10       1.00000          -0.992657          -27.01158
     11       1.00000          -0.867161          -23.59666
     12       1.00000          -0.427320          -11.62796
     13       1.00000          -0.417972          -11.37359
     14       1.00000          -0.413206          -11.24390
     15       0.00000          -0.036071           -0.98155
     16       0.00000           0.043614            1.18679
     17       0.00000           0.081859            2.22749
     18       0.00000           0.088927            2.41982
     19       0.00000           0.137181            3.73289
     20       0.00000           0.147427            4.01169

  Spin-down eigenvalues:

  State    Occupation    Eigenvalue [Ha]    Eigenvalue [eV]
      1       1.00000        -101.548477        -2763.27465
      2       1.00000         -37.978875        -1033.45778
      3       1.00000          -9.388220         -255.46647
      4       1.00000          -7.143270         -194.37828
      5       1.00000          -7.142642         -194.36118
      6       1.00000          -7.141820         -194.33882
      7       1.00000          -2.028239          -55.19119
      8       1.00000          -1.004882          -27.34422
      9       1.00000          -0.996192          -27.10777
     10       1.00000          -0.992347          -27.00314
     11       1.00000          -0.863473          -23.49628
     12       1.00000          -0.423748          -11.53076
     13       1.00000          -0.414386          -11.27602
     14       1.00000          -0.409683          -11.14805
     15       0.00000          -0.032738           -0.89084
     16       0.00000           0.046978            1.27835
     17       0.00000           0.084815            2.30794
     18       0.00000           0.091863            2.49973
     19       0.00000           0.139739            3.80250
     20       0.00000           0.150483            4.09484

  Current spin moment of the entire structure :
  | N = N_up - N_down :    0.00
  | S                 :    0.00
  | J                 :    1.00

  Highest occupied state (VBM) at    -11.14804950 eV
  | Occupation number:      1.00000000
  | Spin channel:        2

  Lowest unoccupied state (CBM) at    -0.98155259 eV
  | Occupation number:      0.00000000
  | Spin channel:        1

  Overall HOMO-LUMO gap:     10.16649691 eV.
  Calculating total energy contributions from superposition of free atom densities.

  Total energy components:
  | Sum of eigenvalues            :        -354.97173753 Ha       -9659.27243653 eV
  | XC energy correction          :         -42.47303846 Ha       -1155.75018037 eV
  | XC potential correction       :          54.85057317 Ha        1492.56003666 eV
  | Free-atom electrostatic energy:        -283.41304494 Ha       -7712.06133811 eV
  | Hartree energy correction     :           0.00000000 Ha           0.00000000 eV
  | Ionic    embedding energy     :           0.96629467 Ha          26.29421591 eV
  | Density  embedding energy     :          -0.92878716 Ha         -25.27358451 eV
  | Nonlocal embedding energy     :           0.00000000 Ha           0.00000000 eV
  | External embedding energy     :           0.03750751 Ha           1.02063140 eV
  | Entropy correction            :           0.00000000 Ha           0.00000000 eV
  | ---------------------------
  | Total energy                  :        -625.07846059 Ha      -17009.25033384 eV
  | Total energy, T -> 0          :        -625.07846059 Ha      -17009.25033384 eV  <-- do not rely on this value for anything but (periodic) metals
  | Electronic free energy        :        -625.07846059 Ha      -17009.25033384 eV

  Total energy including external embedding contributions:
  | Total energy + embedding      :        -625.04095308 Ha      -17008.22970244 eV
  | Total energy + embedding, T->0:        -625.04095308 Ha      -17008.22970244 eV  <-- do not rely on this value for anything but (periodic) metals
  | Elec. free energy + embedding :        -625.04095308 Ha      -17008.22970244 eV

  Derived energy quantities:
  | Kinetic energy                :         625.73280408 Ha       17027.05592613 eV
  | Electrostatic energy          :       -1209.26701337 Ha      -32905.82966411 eV
  | Energy correction for multipole
  | error in Hartree potential    :           0.00000000 Ha           0.00000000 eV
  | Sum of eigenvalues per atom                           :       -4829.63621826 eV
  | Total energy (T->0) per atom                          :       -8504.62516692 eV  <-- do not rely on this value for anything but (periodic) metals
  | Electronic free energy per atom                       :       -8504.62516692 eV
  Initialize hartree_potential_storage
  Max. number of atoms included in rho_multipole:            3

  End scf initialization - timings             :  max(cpu_time)    wall_clock(cpu1)
  | Time for scf. initialization               :        0.101 s           0.154 s
  | Boundary condition initialization          :        0.000 s           0.000 s
  | Integration                                :        0.020 s           0.020 s
  | Solution of K.-S. eqns.                    :        0.004 s           0.004 s
  | Grid partitioning                          :        0.010 s           0.010 s
  | Preloading free-atom quantities on grid    :        0.003 s           0.003 s
  | Free-atom superposition energy             :        0.003 s           0.003 s
  | Total energy evaluation                    :        0.000 s           0.000 s

  Partial memory accounting:
  | Current value for overall tracked memory usage:
  |   Minimum:        0.052 MB (on task 7)
  |   Maximum:        0.062 MB (on task 0)
  |   Average:        0.057 MB
  | Peak value for overall tracked memory usage:
  |   Minimum:        0.718 MB (on task 5 after allocating zora_vector2)
  |   Maximum:        0.739 MB (on task 2 after allocating zora_vector2)
  |   Average:        0.732 MB
  | Largest tracked array allocation so far:
  |   Minimum:        0.229 MB (zora_vector1 on task 0)
  |   Maximum:        0.233 MB (zora_vector1 on task 1)
  |   Average:        0.232 MB
  Note:  These values currently only include a subset of arrays which are explicitly tracked.
  The "true" memory usage will be greater.
------------------------------------------------------------

------------------------------------------------------------
          Begin self-consistency iteration #    1

  Date     :  20190817, Time     :  153200.209
------------------------------------------------------------
  Evaluating new KS density.
  Integration grid: deviation in total charge (<rho> - N_e) =  -3.552714E-15
  | <rho_up-rho_dn> = N_up-N_dn =     -0.0000; <|rho_up-rho_dn|> =      0.0056
  Pulay mixing of updated and previous charge densities.
  Renormalizing the density to the exact electron count on the 3D integration grid.
  | Formal number of electrons (from input files) :      28.0000000000
  | Integrated number of electrons on 3D grid     :      28.0000000000
  | Charge integration error                      :       0.0000000000
  | Normalization factor for density and gradient :       1.0000000000

  Evaluating partitioned Hartree potential by multipole expansion.
  | Original multipole sum: apparent total charge =  -0.858000E-14
  | Sum of charges compensated after spline to logarithmic grids =   0.185505E-03
  | Analytical far-field extrapolation by fixed multipoles:
  | Hartree multipole sum: apparent total charge =  -0.877755E-14
  Summing up the Hartree potential.
  Time summed over all CPUs for potential: real work        0.038 s, elapsed        0.042 s
  | RMS charge density error from multipole expansion :   0.118877E-02

  Integrating Hamiltonian matrix: batch-based integration.
  Time summed over all CPUs for integration: real work        0.125 s, elapsed        0.142 s

  Updating Kohn-Sham eigenvalues and eigenvectors using ELSI and the ELPA eigensolver.
  Starting ELPA eigensolver
  Finished transformation to standard eigenproblem
  | Time :     0.000 s
  Finished solving standard eigenproblem
  | Time :     0.001 s
  Finished back-transformation of eigenvectors
  | Time :     0.000 s
  Starting ELPA eigensolver
  Finished transformation to standard eigenproblem
  | Time :     0.000 s
  Finished solving standard eigenproblem
  | Time :     0.000 s
  Finished back-transformation of eigenvectors
  | Time :     0.000 s

  Obtaining occupation numbers and chemical potential using ELSI.
  | Chemical potential (Fermi level):    -5.39800466 eV
  Writing Kohn-Sham eigenvalues.

  Spin-up eigenvalues:

  State    Occupation    Eigenvalue [Ha]    Eigenvalue [eV]
      1       1.00000        -101.430962        -2760.07692
      2       1.00000         -37.996013        -1033.92411
      3       1.00000          -9.286153         -252.68909
      4       1.00000          -7.039746         -191.56122
      5       1.00000          -7.039319         -191.54962
      6       1.00000          -7.038722         -191.53337
      7       1.00000          -2.043109          -55.59584
      8       1.00000          -1.017545          -27.68881
      9       1.00000          -1.011523          -27.52494
     10       1.00000          -1.007665          -27.41997
     11       1.00000          -0.801136          -21.80002
     12       1.00000          -0.368846          -10.03680
     13       1.00000          -0.359463           -9.78148
     14       1.00000          -0.354833           -9.65550
     15       0.00000          -0.037131           -1.01037
     16       0.00000           0.048790            1.32764
     17       0.00000           0.094579            2.57363
     18       0.00000           0.099650            2.71162
     19       0.00000           0.170554            4.64102
     20       0.00000           0.196215            5.33929

  Spin-down eigenvalues:

  State    Occupation    Eigenvalue [Ha]    Eigenvalue [eV]
      1       1.00000        -101.430492        -2760.06411
      2       1.00000         -37.995929        -1033.92182
      3       1.00000          -9.285708         -252.67698
      4       1.00000          -7.039120         -191.54421
      5       1.00000          -7.038694         -191.53261
      6       1.00000          -7.038096         -191.51634
      7       1.00000          -2.042895          -55.59000
      8       1.00000          -1.017249          -27.68076
      9       1.00000          -1.011262          -27.51783
     10       1.00000          -1.007404          -27.41286
     11       1.00000          -0.798173          -21.71939
     12       1.00000          -0.366044           -9.96057
     13       1.00000          -0.356646           -9.70484
     14       1.00000          -0.352073           -9.58038
     15       0.00000          -0.034270           -0.93254
     16       0.00000           0.051610            1.40439
     17       0.00000           0.096758            2.63292
     18       0.00000           0.102380            2.78591
     19       0.00000           0.172519            4.69449
     20       0.00000           0.198618            5.40466

  Current spin moment of the entire structure :
  | N = N_up - N_down :    0.00
  | S                 :    0.00
  | J                 :    1.00

  Highest occupied state (VBM) at     -9.58038154 eV
  | Occupation number:      1.00000000
  | Spin channel:        2

  Lowest unoccupied state (CBM) at    -1.01037258 eV
  | Occupation number:      0.00000000
  | Spin channel:        1

  Overall HOMO-LUMO gap:      8.57000896 eV.

  Total energy components:
  | Sum of eigenvalues            :        -353.57482050 Ha       -9621.26039001 eV
  | XC energy correction          :         -42.56066372 Ha       -1158.13458493 eV
  | XC potential correction       :          54.96581200 Ha        1495.69584470 eV
  | Free-atom electrostatic energy:        -283.41304494 Ha       -7712.06133811 eV
  | Hartree energy correction     :          -1.37003088 Ha         -37.28043709 eV
  | Ionic    embedding energy     :           0.96629467 Ha          26.29421591 eV
  | Density  embedding energy     :          -0.95785652 Ha         -26.06460208 eV
  | Nonlocal embedding energy     :          -0.01534590 Ha          -0.41758312 eV
  | External embedding energy     :          -0.00690774 Ha          -0.18796929 eV
  | Entropy correction            :           0.00000000 Ha           0.00000000 eV
  | ---------------------------
  | Total energy                  :        -624.97954561 Ha      -17006.55872024 eV
  | Total energy, T -> 0          :        -624.97954561 Ha      -17006.55872024 eV  <-- do not rely on this value for anything but (periodic) metals
  | Electronic free energy        :        -624.97954561 Ha      -17006.55872024 eV

  Total energy including external embedding contributions:
  | Total energy + embedding      :        -624.98645335 Ha      -17006.74668953 eV
  | Total energy + embedding, T->0:        -624.98645335 Ha      -17006.74668953 eV  <-- do not rely on this value for anything but (periodic) metals
  | Elec. free energy + embedding :        -624.98645335 Ha      -17006.74668953 eV

  Derived energy quantities:
  | Kinetic energy                :         626.33102897 Ha       17043.33445356 eV
  | Electrostatic energy          :       -1209.72311328 Ha      -32918.24077407 eV
  | Energy correction for multipole
  | error in Hartree potential    :           0.00084756 Ha           0.02306316 eV
  | Sum of eigenvalues per atom                           :       -4810.63019500 eV
  | Total energy (T->0) per atom                          :       -8503.27936012 eV  <-- do not rely on this value for anything but (periodic) metals
  | Electronic free energy per atom                       :       -8503.27936012 eV

  Self-consistency convergence accuracy:
  | Change of charge/spin density :  0.1704E+00  0.1565E-01
  | Change of sum of eigenvalues  :  0.3801E+02 eV
  | Change of total energy        :  0.1483E+01 eV

  End self-consistency iteration #     1       :  max(cpu_time)    wall_clock(cpu1)
  | Time for this iteration                    :        0.035 s           0.035 s
  | Charge density update                      :        0.007 s           0.007 s
  | Density mixing                             :        0.001 s           0.001 s
  | Hartree multipole update                   :        0.001 s           0.001 s
  | Hartree multipole summation                :        0.006 s           0.006 s
  | Integration                                :        0.018 s           0.018 s
  | Solution of K.-S. eqns.                    :        0.002 s           0.002 s
  | Total energy evaluation                    :        0.000 s           0.000 s

  Partial memory accounting:
  | Current value for overall tracked memory usage:
  |   Minimum:        0.052 MB (on task 7)
  |   Maximum:        0.062 MB (on task 0)
  |   Average:        0.057 MB
  | Peak value for overall tracked memory usage:
  |   Minimum:        0.720 MB (on task 5 after allocating zora_vector2)
  |   Maximum:        0.742 MB (on task 2 after allocating zora_vector2)
  |   Average:        0.734 MB
  | Largest tracked array allocation so far:
  |   Minimum:        0.229 MB (zora_vector1 on task 0)
  |   Maximum:        0.233 MB (zora_vector1 on task 1)
  |   Average:        0.232 MB
  Note:  These values currently only include a subset of arrays which are explicitly tracked.
  The "true" memory usage will be greater.
------------------------------------------------------------

------------------------------------------------------------
          Begin self-consistency iteration #    2

  Date     :  20190817, Time     :  153200.245
------------------------------------------------------------
  Evaluating new KS density.
  Integration grid: deviation in total charge (<rho> - N_e) =  -1.065814E-14
  | <rho_up-rho_dn> = N_up-N_dn =     -0.0000; <|rho_up-rho_dn|> =      0.0051
  Pulay mixing of updated and previous charge densities.
  Renormalizing the density to the exact electron count on the 3D integration grid.
  | Formal number of electrons (from input files) :      28.0000000000
  | Integrated number of electrons on 3D grid     :      28.0000000000
  | Charge integration error                      :      -0.0000000000
  | Normalization factor for density and gradient :       1.0000000000

  Evaluating partitioned Hartree potential by multipole expansion.
  | Original multipole sum: apparent total charge =  -0.246996E-13
  | Sum of charges compensated after spline to logarithmic grids =   0.469035E-03
  | Analytical far-field extrapolation by fixed multipoles:
  | Hartree multipole sum: apparent total charge =  -0.250324E-13
  Summing up the Hartree potential.
  Time summed over all CPUs for potential: real work        0.037 s, elapsed        0.039 s
  | RMS charge density error from multipole expansion :   0.317255E-02

  Integrating Hamiltonian matrix: batch-based integration.
  Time summed over all CPUs for integration: real work        0.125 s, elapsed        0.129 s

  Updating Kohn-Sham eigenvalues and eigenvectors using ELSI and the ELPA eigensolver.
  Starting ELPA eigensolver
  Finished transformation to standard eigenproblem
  | Time :     0.000 s
  Finished solving standard eigenproblem
  | Time :     0.000 s
  Finished back-transformation of eigenvectors
  | Time :     0.001 s
  Starting ELPA eigensolver
  Finished transformation to standard eigenproblem
  | Time :     0.000 s
  Finished solving standard eigenproblem
  | Time :     0.000 s
  Finished back-transformation of eigenvectors
  | Time :     0.000 s

  Obtaining occupation numbers and chemical potential using ELSI.
  | Chemical potential (Fermi level):    -3.78419777 eV
  Current spin moment of the entire structure :
  | N = N_up - N_down :    0.00
  | S                 :    0.00
  | J                 :    1.00

  Highest occupied state (VBM) at     -7.57929587 eV
  | Occupation number:      1.00000000
  | Spin channel:        2

  Lowest unoccupied state (CBM) at    -1.07648789 eV
  | Occupation number:      0.00000000
  | Spin channel:        1

  Overall HOMO-LUMO gap:      6.50280798 eV.

  Checking to see if s.c.f. parameters should be adjusted.

  Total energy components:
  | Sum of eigenvalues            :        -351.90862949 Ha       -9575.92102583 eV
  | XC energy correction          :         -42.66627796 Ha       -1161.00849477 eV
  | XC potential correction       :          55.10505437 Ha        1499.48482244 eV
  | Free-atom electrostatic energy:        -283.41304494 Ha       -7712.06133811 eV
  | Hartree energy correction     :          -3.03303604 Ha         -82.53310981 eV
  | Ionic    embedding energy     :           0.96629467 Ha          26.29421591 eV
  | Density  embedding energy     :          -1.00043295 Ha         -27.22316577 eV
  | Nonlocal embedding energy     :          -0.01494803 Ha          -0.40675663 eV
  | External embedding energy     :          -0.04908631 Ha          -1.33570649 eV
  | Entropy correction            :          -0.00000000 Ha          -0.00000000 eV
  | ---------------------------
  | Total energy                  :        -624.90055306 Ha      -17004.40922368 eV
  | Total energy, T -> 0          :        -624.90055306 Ha      -17004.40922368 eV  <-- do not rely on this value for anything but (periodic) metals
  | Electronic free energy        :        -624.90055306 Ha      -17004.40922368 eV

  Total energy including external embedding contributions:
  | Total energy + embedding      :        -624.94963937 Ha      -17005.74493017 eV
  | Total energy + embedding, T->0:        -624.94963937 Ha      -17005.74493017 eV  <-- do not rely on this value for anything but (periodic) metals
  | Elec. free energy + embedding :        -624.94963937 Ha      -17005.74493017 eV

  Derived energy quantities:
  | Kinetic energy                :         626.85424456 Ha       17057.57187406 eV
  | Electrostatic energy          :       -1210.10390064 Ha      -32928.60252537 eV
  | Energy correction for multipole
  | error in Hartree potential    :           0.00196597 Ha           0.05349672 eV
  | Sum of eigenvalues per atom                           :       -4787.96051291 eV
  | Total energy (T->0) per atom                          :       -8502.20461184 eV  <-- do not rely on this value for anything but (periodic) metals
  | Electronic free energy per atom                       :       -8502.20461184 eV

  Self-consistency convergence accuracy:
  | Change of charge/spin density :  0.9676E-01  0.1257E-01
  | Change of sum of eigenvalues  :  0.4534E+02 eV
  | Change of total energy        :  0.1002E+01 eV

  End self-consistency iteration #     2       :  max(cpu_time)    wall_clock(cpu1)
  | Time for this iteration                    :        0.033 s           0.033 s
  | Charge density update                      :        0.007 s           0.007 s
  | Density mixing                             :        0.001 s           0.001 s
  | Hartree multipole update                   :        0.001 s           0.001 s
  | Hartree multipole summation                :        0.005 s           0.005 s
  | Integration                                :        0.016 s           0.016 s
  | Solution of K.-S. eqns.                    :        0.002 s           0.001 s
  | Total energy evaluation                    :        0.000 s           0.001 s

  Partial memory accounting:
  | Current value for overall tracked memory usage:
  |   Minimum:        0.053 MB (on task 7)
  |   Maximum:        0.063 MB (on task 0)
  |   Average:        0.058 MB
  | Peak value for overall tracked memory usage:
  |   Minimum:        0.721 MB (on task 5 after allocating zora_vector2)
  |   Maximum:        0.743 MB (on task 2 after allocating zora_vector2)
  |   Average:        0.735 MB
  | Largest tracked array allocation so far:
  |   Minimum:        0.229 MB (zora_vector1 on task 0)
  |   Maximum:        0.233 MB (zora_vector1 on task 1)
  |   Average:        0.232 MB
  Note:  These values currently only include a subset of arrays which are explicitly tracked.
  The "true" memory usage will be greater.
------------------------------------------------------------

------------------------------------------------------------
          Begin self-consistency iteration #    3

  Date     :  20190817, Time     :  153200.278
------------------------------------------------------------
  Evaluating new KS density.
  Integration grid: deviation in total charge (<rho> - N_e) =   0.000000E+00
  | <rho_up-rho_dn> = N_up-N_dn =     -0.0000; <|rho_up-rho_dn|> =      0.0038
  Pulay mixing of updated and previous charge densities.
  Renormalizing the density to the exact electron count on the 3D integration grid.
  | Formal number of electrons (from input files) :      28.0000000000
  | Integrated number of electrons on 3D grid     :      28.0000000000
  | Charge integration error                      :       0.0000000000
  | Normalization factor for density and gradient :       1.0000000000

  Evaluating partitioned Hartree potential by multipole expansion.
  | Original multipole sum: apparent total charge =   0.132520E-13
  | Sum of charges compensated after spline to logarithmic grids =   0.692689E-03
  | Analytical far-field extrapolation by fixed multipoles:
  | Hartree multipole sum: apparent total charge =   0.110413E-13
  Summing up the Hartree potential.
  Time summed over all CPUs for potential: real work        0.038 s, elapsed        0.042 s
  | RMS charge density error from multipole expansion :   0.558457E-02

  Integrating Hamiltonian matrix: batch-based integration.
  Time summed over all CPUs for integration: real work        0.125 s, elapsed        0.144 s

  Updating Kohn-Sham eigenvalues and eigenvectors using ELSI and the ELPA eigensolver.
  Starting ELPA eigensolver
  Finished transformation to standard eigenproblem
  | Time :     0.000 s
  Finished solving standard eigenproblem
  | Time :     0.001 s
  Finished back-transformation of eigenvectors
  | Time :     0.000 s
  Starting ELPA eigensolver
  Finished transformation to standard eigenproblem
  | Time :     0.000 s
  Finished solving standard eigenproblem
  | Time :     0.000 s
  Finished back-transformation of eigenvectors
  | Time :     0.001 s

  Obtaining occupation numbers and chemical potential using ELSI.
  | Chemical potential (Fermi level):    -3.45428974 eV
  Current spin moment of the entire structure :
  | N = N_up - N_down :    0.00
  | S                 :    0.00
  | J                 :    1.00

  Highest occupied state (VBM) at     -7.13125299 eV
  | Occupation number:      1.00000000
  | Spin channel:        2

  Lowest unoccupied state (CBM) at    -1.06027914 eV
  | Occupation number:      0.00000000
  | Spin channel:        1

  Overall HOMO-LUMO gap:      6.07097385 eV.

  Total energy components:
  | Sum of eigenvalues            :        -352.10964457 Ha       -9581.39092460 eV
  | XC energy correction          :         -42.64521937 Ha       -1160.43546138 eV
  | XC potential correction       :          55.07841246 Ha        1498.75985905 eV
  | Free-atom electrostatic energy:        -283.41304494 Ha       -7712.06133811 eV
  | Hartree energy correction     :          -2.82190345 Ha         -76.78789971 eV
  | Ionic    embedding energy     :           0.96629467 Ha          26.29421591 eV
  | Density  embedding energy     :          -1.02727965 Ha         -27.95370160 eV
  | Nonlocal embedding energy     :          -0.01499339 Ha          -0.40799091 eV
  | External embedding energy     :          -0.07597837 Ha          -2.06747659 eV
  | Entropy correction            :          -0.00000000 Ha          -0.00000000 eV
  | ---------------------------
  | Total energy                  :        -624.86912683 Ha      -17003.55407225 eV
  | Total energy, T -> 0          :        -624.86912683 Ha      -17003.55407225 eV  <-- do not rely on this value for anything but (periodic) metals
  | Electronic free energy        :        -624.86912683 Ha      -17003.55407225 eV

  Total energy including external embedding contributions:
  | Total energy + embedding      :        -624.94510519 Ha      -17005.62154885 eV
  | Total energy + embedding, T->0:        -624.94510519 Ha      -17005.62154885 eV  <-- do not rely on this value for anything but (periodic) metals
  | Elec. free energy + embedding :        -624.94510519 Ha      -17005.62154885 eV

  Derived energy quantities:
  | Kinetic energy                :         626.19626284 Ha       17039.66728052 eV
  | Electrostatic energy          :       -1209.46244333 Ha      -32911.14758390 eV
  | Energy correction for multipole
  | error in Hartree potential    :           0.00204748 Ha           0.05571488 eV
  | Sum of eigenvalues per atom                           :       -4790.69546230 eV
  | Total energy (T->0) per atom                          :       -8501.77703613 eV  <-- do not rely on this value for anything but (periodic) metals
  | Electronic free energy per atom                       :       -8501.77703613 eV

  Self-consistency convergence accuracy:
  | Change of charge/spin density :  0.4536E-01  0.7643E-02
  | Change of sum of eigenvalues  : -0.5470E+01 eV
  | Change of total energy        :  0.1234E+00 eV

  End self-consistency iteration #     3       :  max(cpu_time)    wall_clock(cpu1)
  | Time for this iteration                    :        0.035 s           0.035 s
  | Charge density update                      :        0.007 s           0.007 s
  | Density mixing                             :        0.001 s           0.001 s
  | Hartree multipole update                   :        0.001 s           0.001 s
  | Hartree multipole summation                :        0.005 s           0.006 s
  | Integration                                :        0.018 s           0.018 s
  | Solution of K.-S. eqns.                    :        0.002 s           0.002 s
  | Total energy evaluation                    :        0.000 s           0.000 s

  Partial memory accounting:
  | Current value for overall tracked memory usage:
  |   Minimum:        0.053 MB (on task 7)
  |   Maximum:        0.063 MB (on task 0)
  |   Average:        0.058 MB
  | Peak value for overall tracked memory usage:
  |   Minimum:        0.721 MB (on task 5 after allocating zora_vector2)
  |   Maximum:        0.743 MB (on task 2 after allocating zora_vector2)
  |   Average:        0.735 MB
  | Largest tracked array allocation so far:
  |   Minimum:        0.229 MB (zora_vector1 on task 0)
  |   Maximum:        0.233 MB (zora_vector1 on task 1)
  |   Average:        0.232 MB
  Note:  These values currently only include a subset of arrays which are explicitly tracked.
  The "true" memory usage will be greater.
------------------------------------------------------------

------------------------------------------------------------
          Begin self-consistency iteration #    4

  Date     :  20190817, Time     :  153200.313
------------------------------------------------------------
  Evaluating new KS density.
  Integration grid: deviation in total charge (<rho> - N_e) =  -3.552714E-15
  | <rho_up-rho_dn> = N_up-N_dn =      0.0000; <|rho_up-rho_dn|> =      0.0018
  Pulay mixing of updated and previous charge densities.
  Renormalizing the density to the exact electron count on the 3D integration grid.
  | Formal number of electrons (from input files) :      28.0000000000
  | Integrated number of electrons on 3D grid     :      28.0000000000
  | Charge integration error                      :      -0.0000000000
  | Normalization factor for density and gradient :       1.0000000000

  Evaluating partitioned Hartree potential by multipole expansion.
  | Original multipole sum: apparent total charge =  -0.276755E-13
  | Sum of charges compensated after spline to logarithmic grids =   0.815864E-03
  | Analytical far-field extrapolation by fixed multipoles:
  | Hartree multipole sum: apparent total charge =  -0.281982E-13
  Summing up the Hartree potential.
  Time summed over all CPUs for potential: real work        0.038 s, elapsed        0.039 s
  | RMS charge density error from multipole expansion :   0.658395E-02

  Integrating Hamiltonian matrix: batch-based integration.
  Time summed over all CPUs for integration: real work        0.127 s, elapsed        0.133 s

  Updating Kohn-Sham eigenvalues and eigenvectors using ELSI and the ELPA eigensolver.
  Starting ELPA eigensolver
  Finished transformation to standard eigenproblem
  | Time :     0.000 s
  Finished solving standard eigenproblem
  | Time :     0.001 s
  Finished back-transformation of eigenvectors
  | Time :     0.000 s
  Starting ELPA eigensolver
  Finished transformation to standard eigenproblem
  | Time :     0.000 s
  Finished solving standard eigenproblem
  | Time :     0.000 s
  Finished back-transformation of eigenvectors
  | Time :     0.000 s

  Obtaining occupation numbers and chemical potential using ELSI.
  | Chemical potential (Fermi level):    -2.96716157 eV
  Current spin moment of the entire structure :
  | N = N_up - N_down :    0.00
  | S                 :    0.00
  | J                 :    1.00

  Highest occupied state (VBM) at     -6.43827708 eV
  | Occupation number:      1.00000000
  | Spin channel:        2

  Lowest unoccupied state (CBM) at    -0.92817431 eV
  | Occupation number:      0.00000000
  | Spin channel:        1

  Overall HOMO-LUMO gap:      5.51010277 eV.

  Total energy components:
  | Sum of eigenvalues            :        -351.58427372 Ha       -9567.09485648 eV
  | XC energy correction          :         -42.68153619 Ha       -1161.42369225 eV
  | XC potential correction       :          55.12673373 Ha        1500.07474766 eV
  | Free-atom electrostatic energy:        -283.41304494 Ha       -7712.06133811 eV
  | Hartree energy correction     :          -3.35761892 Ha         -91.36545953 eV
  | Ionic    embedding energy     :           0.96629467 Ha          26.29421591 eV
  | Density  embedding energy     :          -1.04440981 Ha         -28.41983687 eV
  | Nonlocal embedding energy     :          -0.01485203 Ha          -0.40414431 eV
  | External embedding energy     :          -0.09296717 Ha          -2.52976527 eV
  | Entropy correction            :          -0.00000000 Ha          -0.00000000 eV
  | ---------------------------
  | Total energy                  :        -624.85047821 Ha      -17003.04661753 eV
  | Total energy, T -> 0          :        -624.85047821 Ha      -17003.04661753 eV  <-- do not rely on this value for anything but (periodic) metals
  | Electronic free energy        :        -624.85047821 Ha      -17003.04661753 eV

  Total energy including external embedding contributions:
  | Total energy + embedding      :        -624.94344537 Ha      -17005.57638281 eV
  | Total energy + embedding, T->0:        -624.94344537 Ha      -17005.57638281 eV  <-- do not rely on this value for anything but (periodic) metals
  | Elec. free energy + embedding :        -624.94344537 Ha      -17005.57638281 eV

  Derived energy quantities:
  | Kinetic energy                :         626.28726154 Ha       17042.14348113 eV
  | Electrostatic energy          :       -1209.51546540 Ha      -32912.59038761 eV
  | Energy correction for multipole
  | error in Hartree potential    :           0.00236162 Ha           0.06426296 eV
  | Sum of eigenvalues per atom                           :       -4783.54742824 eV
  | Total energy (T->0) per atom                          :       -8501.52330877 eV  <-- do not rely on this value for anything but (periodic) metals
  | Electronic free energy per atom                       :       -8501.52330877 eV

  Self-consistency convergence accuracy:
  | Change of charge/spin density :  0.2365E-01  0.2784E-02
  | Change of sum of eigenvalues  :  0.1430E+02 eV
  | Change of total energy        :  0.4517E-01 eV

  End self-consistency iteration #     4       :  max(cpu_time)    wall_clock(cpu1)
  | Time for this iteration                    :        0.033 s           0.034 s
  | Charge density update                      :        0.007 s           0.007 s
  | Density mixing                             :        0.001 s           0.002 s
  | Hartree multipole update                   :        0.001 s           0.001 s
  | Hartree multipole summation                :        0.005 s           0.005 s
  | Integration                                :        0.017 s           0.017 s
  | Solution of K.-S. eqns.                    :        0.002 s           0.001 s
  | Total energy evaluation                    :        0.000 s           0.001 s

  Partial memory accounting:
  | Current value for overall tracked memory usage:
  |   Minimum:        0.053 MB (on task 7)
  |   Maximum:        0.063 MB (on task 0)
  |   Average:        0.058 MB
  | Peak value for overall tracked memory usage:
  |   Minimum:        0.721 MB (on task 5 after allocating zora_vector2)
  |   Maximum:        0.743 MB (on task 2 after allocating zora_vector2)
  |   Average:        0.735 MB
  | Largest tracked array allocation so far:
  |   Minimum:        0.229 MB (zora_vector1 on task 0)
  |   Maximum:        0.233 MB (zora_vector1 on task 1)
  |   Average:        0.232 MB
  Note:  These values currently only include a subset of arrays which are explicitly tracked.
  The "true" memory usage will be greater.
------------------------------------------------------------

------------------------------------------------------------
          Begin self-consistency iteration #    5

  Date     :  20190817, Time     :  153200.347
------------------------------------------------------------
  Evaluating new KS density.
  Integration grid: deviation in total charge (<rho> - N_e) =   3.552714E-15
  | <rho_up-rho_dn> = N_up-N_dn =     -0.0000; <|rho_up-rho_dn|> =      0.0007
  Pulay mixing of updated and previous charge densities.
  Renormalizing the density to the exact electron count on the 3D integration grid.
  | Formal number of electrons (from input files) :      28.0000000000
  | Integrated number of electrons on 3D grid     :      28.0000000000
  | Charge integration error                      :       0.0000000000
  | Normalization factor for density and gradient :       1.0000000000

  Evaluating partitioned Hartree potential by multipole expansion.
  | Original multipole sum: apparent total charge =   0.130829E-13
  | Sum of charges compensated after spline to logarithmic grids =   0.813873E-03
[...]
      2       1.00000         -38.022286        -1034.63905
      3       1.00000          -9.154777         -249.11416
      4       1.00000          -6.908846         -187.99927
      5       1.00000          -6.908660         -187.99419
      6       1.00000          -6.907307         -187.95739
      7       1.00000          -2.074798          -56.45811
      8       1.00000          -1.044397          -28.41949
      9       1.00000          -1.043838          -28.40427
     10       1.00000          -1.039901          -28.29715
     11       1.00000          -0.674037          -18.34147
     12       1.00000          -0.253692           -6.90332
     13       1.00000          -0.244168           -6.64415
     14       1.00000          -0.240153           -6.53488
     15       0.00000          -0.030232           -0.82267
     16       0.00000           0.065124            1.77212
     17       0.00000           0.111357            3.03018
     18       0.00000           0.130396            3.54824
     19       0.00000           0.216563            5.89298
     20       0.00000           0.286334            7.79154

  Current spin moment of the entire structure :
  | N = N_up - N_down :    0.00
  | S                 :    0.00
  | J                 :    1.00

  Highest occupied state (VBM) at     -6.53488486 eV
  | Occupation number:      1.00000000
  | Spin channel:        1

  Lowest unoccupied state (CBM) at    -0.82266709 eV
  | Occupation number:      0.00000000
  | Spin channel:        2

  Overall HOMO-LUMO gap:      5.71221777 eV.

  Self-consistency cycle converged.

  End self-consistency iteration #    14       :  max(cpu_time)    wall_clock(cpu1)
  | Time for this iteration                    :        0.034 s           0.033 s
  | Charge density update                      :        0.007 s           0.007 s
  | Density mixing                             :        0.002 s           0.002 s
  | Hartree multipole update                   :        0.001 s           0.001 s
  | Hartree multipole summation                :        0.005 s           0.005 s
  | Integration                                :        0.016 s           0.016 s
  | Solution of K.-S. eqns.                    :        0.002 s           0.001 s
  | Total energy evaluation                    :        0.000 s           0.000 s

  Partial memory accounting:
  | Current value for overall tracked memory usage:
  |   Minimum:        0.054 MB (on task 7)
  |   Maximum:        0.063 MB (on task 0)
  |   Average:        0.058 MB
  | Peak value for overall tracked memory usage:
  |   Minimum:        0.721 MB (on task 5 after allocating zora_vector2)
  |   Maximum:        0.743 MB (on task 2 after allocating zora_vector2)
  |   Average:        0.735 MB
  | Largest tracked array allocation so far:
  |   Minimum:        0.229 MB (zora_vector1 on task 0)
  |   Maximum:        0.233 MB (zora_vector1 on task 1)
  |   Average:        0.232 MB
  Note:  These values currently only include a subset of arrays which are explicitly tracked.
  The "true" memory usage will be greater.
------------------------------------------------------------

------------------------------------------------------------
          Post-processing: scaled ZORA corrections to eigenvalues and total energy.

  Date     :  20190817, Time     :  153200.690
------------------------------------------------------------
  Computing correction matrix for scaled ZORA eigenvalues.
  Evaluating scaled zora correction for each Kohn-Sham eigenstate.
  Evaluating scaled zora correction for each Kohn-Sham eigenstate.
  Writing Kohn-Sham eigenvalues.

  Spin-up eigenvalues:

  State    Occupation    Eigenvalue [Ha]    Eigenvalue [eV]
      1       1.00000        -100.933420        -2746.53810
      2       1.00000         -37.965349        -1033.08972
      3       1.00000          -9.149528         -248.97132
      4       1.00000          -6.905053         -187.89605
      5       1.00000          -6.904866         -187.89097
      6       1.00000          -6.903515         -187.85419
      7       1.00000          -2.074420          -56.44785
      8       1.00000          -1.044233          -28.41504
      9       1.00000          -1.043673          -28.39978
     10       1.00000          -1.039737          -28.29268
     11       1.00000          -0.673979          -18.33989
     12       1.00000          -0.253677           -6.90291
     13       1.00000          -0.244153           -6.64373
     14       1.00000          -0.240139           -6.53451
     15       0.00000          -0.030232           -0.82265
     16       0.00000           0.065123            1.77208
     17       0.00000           0.111354            3.03011
     18       0.00000           0.130392            3.54816
     19       0.00000           0.216557            5.89282
     20       0.00000           0.286323            7.79125

  Spin-down eigenvalues:

  State    Occupation    Eigenvalue [Ha]    Eigenvalue [eV]
      1       1.00000        -100.933420        -2746.53810
      2       1.00000         -37.965349        -1033.08972
      3       1.00000          -9.149528         -248.97132
      4       1.00000          -6.905053         -187.89605
      5       1.00000          -6.904866         -187.89097
      6       1.00000          -6.903515         -187.85419
      7       1.00000          -2.074420          -56.44785
      8       1.00000          -1.044233          -28.41504
      9       1.00000          -1.043673          -28.39978
     10       1.00000          -1.039737          -28.29268
     11       1.00000          -0.673979          -18.33989
     12       1.00000          -0.253677           -6.90291
     13       1.00000          -0.244153           -6.64373
     14       1.00000          -0.240139           -6.53451
     15       0.00000          -0.030232           -0.82265
     16       0.00000           0.065123            1.77208
     17       0.00000           0.111354            3.03011
     18       0.00000           0.130392            3.54816
     19       0.00000           0.216557            5.89281
     20       0.00000           0.286323            7.79125

  Current spin moment of the entire structure :
  | N = N_up - N_down :    0.00
  | S                 :    0.00
  | J                 :    1.00

  Highest occupied state (VBM) at     -6.53451025 eV
  | Occupation number:      1.00000000
  | Spin channel:        1

  Lowest unoccupied state (CBM) at    -0.82265405 eV
  | Occupation number:      0.00000000
  | Spin channel:        2

  Overall HOMO-LUMO gap:      5.71185620 eV.

  Total energy components:
  | Sum of eigenvalues            :        -350.75148263 Ha       -9544.43345780 eV
  | XC energy correction          :         -42.67829281 Ha       -1161.33543551 eV
  | XC potential correction       :          55.12245005 Ha        1499.95818291 eV
  | Free-atom electrostatic energy:        -283.41304494 Ha       -7712.06133811 eV
  | Hartree energy correction     :          -3.29818667 Ha         -89.74822565 eV
  | Ionic    embedding energy     :           0.96629467 Ha          26.29421591 eV
  | Density  embedding energy     :          -1.04313085 Ha         -28.38503470 eV
  | Nonlocal embedding energy     :          -0.01488168 Ha          -0.40495123 eV
  | External embedding energy     :          -0.09171786 Ha          -2.49577002 eV
  | Entropy correction            :          -0.00000000 Ha          -0.00000000 eV
  | ---------------------------
  | Total energy                  :        -623.96054446 Ha      -16978.83028824 eV
  | Total energy, T -> 0          :        -623.96054446 Ha      -16978.83028824 eV  <-- do not rely on this value for anything but (periodic) metals
  | Electronic free energy        :        -623.96054446 Ha      -16978.83028824 eV

  Total energy including external embedding contributions:
  | Total energy + embedding      :        -624.05226233 Ha      -16981.32605826 eV
  | Total energy + embedding, T->0:        -624.05226233 Ha      -16981.32605826 eV  <-- do not rely on this value for anything but (periodic) metals
  | Elec. free energy + embedding :        -624.05226233 Ha      -16981.32605826 eV

  Derived energy quantities:
  | Kinetic energy                :         627.19166406 Ha       17066.75352584 eV
  | Electrostatic energy          :       -1209.53192824 Ha      -32913.03836449 eV
  | Energy correction for multipole
  | error in Hartree potential    :           0.00205600 Ha           0.05594663 eV
  | Sum of eigenvalues per atom                           :       -4772.21672890 eV
  | Total energy (T->0) per atom                          :       -8489.41514412 eV  <-- do not rely on this value for anything but (periodic) metals
  | Electronic free energy per atom                       :       -8489.41514412 eV
  End evaluation of scaled ZORA corrections.
  | Time for scaled ZORA corrections           :        0.019 s           0.019 s
------------------------------------------------------------
  Obtaining max. number of non-zero basis functions in each batch .
  Evaluating KS electron density on previously omitted grid points.

  Energy and forces in a compact form:
  | Total energy uncorrected      :         -0.169813260582555E+05 eV
  | Total energy corrected        :         -0.169813260582555E+05 eV  <-- do not rely on this value for anything but (periodic) metals
  | Electronic free energy        :         -0.169813260582555E+05 eV


  ------------------------------------------------------------
                   Starting Mulliken Analysis
  ------------------------------------------------------------

  Performing Mulliken charge analysis on all atoms.
  Full analysis will be written to separate file 'Mulliken.out'.
  Summary of the per-atom charge analysis:
  |
  |  atom       electrons          charge             l=0             l=1             l=2             l=3             l=4
  |     1       17.860809       -0.860809        5.983326       11.865936        0.008278        0.002097        0.001173
  |     2       10.139191        0.860809        4.051868        6.044956        0.042367
  |
  | Total       28.000000       -0.000000
 
  Summary of the per-atom spin analysis:
  |
  |  atom   spin      l=0         l=1         l=2         l=3         l=4
  |     1    0.000000    0.000000    0.000000   -0.000000   -0.000000   -0.000000
  |     2   -0.000000   -0.000000   -0.000000   -0.000000
  |
  | Total   -0.000000
 
  Writing Mulliken decomposition to disk ...

  Mulliken analysis                                       :  max(cpu_time)    wall_clock(cpu1)
  | Time for Mulliken analysis                            :          0.002               0.003
  | Total time for Mulliken analysis                      :          0.002               0.003
------------------------------------------------------------
  Performing Hirshfeld analysis of fragment charges and moments.
  ----------------------------------------------------------------------
  | Atom     1: Cl
  |   Hirshfeld charge        :     -0.65095283
  |   Free atom volume        :     65.35447769
  |   Hirshfeld volume        :     74.24631849
  |   Hirshfeld spin moment   :     -0.00000001
  |   Hirshfeld dipole vector :     -0.11472670       0.08498821       0.00000000
  |   Hirshfeld dipole moment :      0.14277679
  |   Hirshfeld second moments:     -0.31464490       0.02959615       0.00000000
  |                                  0.02959615      -0.30343783       0.00000000
  |                                  0.00000000       0.00000000      -0.34031145
  ----------------------------------------------------------------------
  | Atom     2: Na
  |   Hirshfeld charge        :      0.65040938
  |   Free atom volume        :     83.41506493
  |   Hirshfeld volume        :     33.46849463
  |   Hirshfeld spin moment   :     -0.00000005
  |   Hirshfeld dipole vector :      0.02463805       0.43424986       0.00000000
  |   Hirshfeld dipole moment :      0.43494824
  |   Hirshfeld second moments:      1.14165333      -0.00005608      -0.00000000
  |                                 -0.00005608       0.71290729      -0.00000000
  |                                 -0.00000000      -0.00000000       1.11374539
  ----------------------------------------------------------------------

  |------------------------------------------------------
  | Final ELSI Output
  |------------------------------------------------------
  |
  | Physical Properties
  |   Number of electrons       :        0.28000000E+02
  |   Number of spins           :                     1
  |   Number of k-points        :                     1
  |   Number of states          :                    20
  |
  | Matrix Properties
  |   Matrix format             :           BLACS_DENSE
  |   Number of basis functions :                    49
  |   Matrix sparsity           :        0.44148272E+00
  |
  | Computational Details
  |   Parallel mode             :            MULTI_PROC
  |   Number of MPI tasks       :                     8
  |   Solver requested          :                  ELPA
  |   Number of ELSI calls      :                    30
  |
  |------------------------------------------------------
  | ELSI Project (c)  elsi-interchange.org
  |------------------------------------------------------

------------------------------------------------------------------------------
  Final output of selected total energy values:

  The following output summarizes some interesting total energy values
  at the end of a run (AFTER all relaxation, molecular dynamics, etc.).

  | Total energy of the DFT / Hartree-Fock s.c.f. calculation      :         -16981.326058255 eV
  | Final zero-broadening corrected energy (caution - metals only) :         -16981.326058255 eV
  | For reference only, the value of 1 Hartree used in FHI-aims is :             27.211384500 eV

  Before relying on these values, please be sure to understand exactly which
  total energy value is referred to by a given number. Different objects may
  all carry the same name 'total energy'. Definitions:

  Total energy of the DFT / Hartree-Fock s.c.f. calculation:
  | Note that this energy does not include ANY quantities calculated after the
  | s.c.f. cycle, in particular not ANY RPA, MP2, etc. many-body perturbation terms.
  | Scalar relativistic effects have been included in the 'scaled ZORA' approximation.

  Final zero-broadening corrected energy:
  | For metallic systems only, a broadening of the occupation numbers at the Fermi
  | level can be extrapolated back to zero broadening by an electron-gas inspired
  | formula. For all systems that are not real metals, this value can be
  | meaningless and should be avoided.

------------------------------------------------------------------------------
  Methods described in the following list of references were used in this FHI-aims run.
  If you publish the results, please make sure to cite these reference if they apply.
  FHI-aims is an academic code, and for our developers (often, Ph.D. students
  and postdocs), scientific credit in the community is essential.
  Thank you for helping us!

  For any use of FHI-aims, please cite:

    Volker Blum, Ralf Gehrke, Felix Hanke, Paula Havu, Ville Havu,
    Xinguo Ren, Karsten Reuter, and Matthias Scheffler
    'Ab initio molecular simulations with numeric atom-centered orbitals'
    Computer Physics Communications 180, 2175-2196 (2009)
    http://dx.doi.org/10.1016/j.cpc.2009.06.022


  For pseudopotentials or QM/MM embedding infrastructure used in your run, please cite:

    D. Berger, A. J. Logsdail, H. Oberhofer, M. R. Farrow, C. R. A. Catlow, P. Sherwood,
    A. A. Sokol, V. Blum, and K. Reuter,
    'Embedded-cluster calculations in a numeric atomic orbital'
    'density-functional theory framework'
    The Journal of Chemical Physics 141, (2014).
    http://dx.doi.org/10.1063/1.4885816


  The ELSI infrastructure was used in your run to solve the Kohn-Sham electronic structure.
  Please check out http://elsi-interchange.org to learn more.
  If scalability is important for your project, please acknowledge ELSI by citing:

    V. W-z. Yu, F. Corsetti, A. Garcia, W. P. Huhn, M. Jacquelin, W. Jia,
    B. Lange, L. Lin, J. Lu, W. Mi, A. Seifitokaldani, A. Vazquez-Mayagoitia,
    C. Yang, H. Yang, and V. Blum
    'ELSI: A unified software interface for Kohn-Sham electronic structure solvers'
    Computer Physics Communications 222, 267-285 (2018).
    http://dx.doi.org/10.1016/j.cpc.2017.09.007


  For the real-space grid partitioning and parallelization used in this calculation, please cite:

    Ville Havu, Volker Blum, Paula Havu, and Matthias Scheffler,
    'Efficient O(N) integration for all-electron electronic structure calculation'
    'using numerically tabulated basis functions'
    Journal of Computational Physics 228, 8367-8379 (2009).
    http://dx.doi.org/10.1016/j.jcp.2009.08.008

  Of course, there are many other important community references, e.g., those cited in the
  above references. Our list is limited to references that describe implementations in the
  FHI-aims code. The reason is purely practical (length of this list) - please credit others as well.

------------------------------------------------------------
          Leaving FHI-aims.
          Date     :  20190817, Time     :  153200.717

          Computational steps:
          | Number of self-consistency cycles          :           14
          | Number of SCF (re)initializations          :            1

          Detailed time accounting                     :  max(cpu_time)    wall_clock(cpu1)
          | Total time                                 :        1.074 s           1.135 s
          | Preparation time                           :        0.416 s           0.417 s
          | Boundary condition initalization           :        0.000 s           0.000 s
          | Grid partitioning                          :        0.010 s           0.010 s
          | Preloading free-atom quantities on grid    :        0.003 s           0.003 s
          | Free-atom superposition energy             :        0.003 s           0.003 s
          | Total time for integrations                :        0.257 s           0.257 s
          | Total time for solution of K.-S. equations :        0.027 s           0.025 s
          | Total time for density update              :        0.102 s           0.103 s
          | Total time for mixing                      :        0.021 s           0.022 s
          | Total time for Hartree multipole update    :        0.016 s           0.014 s
          | Total time for Hartree multipole sum       :        0.071 s           0.072 s
          | Total time for total energy evaluation     :        0.002 s           0.002 s
          | Total time for scaled ZORA corrections     :        0.019 s           0.019 s
          | Total time for QM/MM embedding             :        0.058 s           0.112 s
          | Total time for Mulliken analysis           :        0.002 s           0.003 s

          Partial memory accounting:
          | Residual value for overall tracked memory usage across tasks:     0.000000 MB (should be 0.000000 MB)
          | Peak values for overall tracked memory usage:
          |   Minimum:        0.721 MB (on task 5 after allocating zora_vector2)
          |   Maximum:        0.743 MB (on task 2 after allocating zora_vector2)
          |   Average:        0.735 MB
          | Largest tracked array allocation:
          |   Minimum:        0.229 MB (zora_vector1 on task 0)
          |   Maximum:        0.233 MB (zora_vector1 on task 1)
          |   Average:        0.232 MB
          Note:  These values currently only include a subset of arrays which are explicitly tracked.
          The "true" memory usage will be greater.

          Have a nice day.
------------------------------------------------------------
