  MPI-parallelism will be employed.
------------------------------------------------------------
          Invoking FHI-aims ...
          Version 180101-
          Git rev. (modified): fa29f3a Merge branch master of fhiaims.rzberlin.mp[...]
          Compiled on 2018/01/19 at 14:47:46 on host theobook132.

          When using FHI-aims, please cite the following reference:

          Volker Blum, Ralf Gehrke, Felix Hanke, Paula Havu,
          Ville Havu, Xinguo Ren, Karsten Reuter, and Matthias Scheffler,
          'Ab Initio Molecular Simulations with Numeric Atom-Centered Orbitals',
          Computer Physics Communications 180, 2175-2196 (2009)

          For any questions about FHI-aims, please visit the aimsclub website
          with its forums and wiki. Contributions to both the forums and the
          wiki are warmly encouraged - they are for you, and everyone is welcome there.

------------------------------------------------------------



  Date     :  20180214, Time     :  152449.024
  Time zero on CPU 1             :   0.480000000000000E-01  s.
  Internal wall clock time zero  :           287853889.024  s.

  FHI-aims created a unique identifier for this run for later identification
  aims_uuid : A309FEE1-EC35-45DA-AEC2-F32DE36B06B2

  Using        8 parallel tasks.
  Task        0 on host theobook132 reporting.
  Task        1 on host theobook132 reporting.
  Task        2 on host theobook132 reporting.
  Task        3 on host theobook132 reporting.
  Task        4 on host theobook132 reporting.
  Task        5 on host theobook132 reporting.
  Task        6 on host theobook132 reporting.
  Task        7 on host theobook132 reporting.

  Performing system and environment tests:
  *** Environment variable OMP_NUM_THREADS is not set
  *** For performance reasons you might want to set it to 1
  | Stacksize not measured: no C compiler
  | Checking for scalapack...
  | No scalapack compiled in.

  Obtaining array dimensions for all initial allocations:
  
  -----------------------------------------------------------------------
  Parsing control.in (first pass over file, find array dimensions only).
  The contents of control.in will be repeated verbatim below
  unless switched off by setting 'verbatim_writeout .false.' .
  in the first line of control.in .
  -----------------------------------------------------------------------
  
  ################################################################################
  #
  #		Control.in generated by mkcontrol
  #
  ################################################################################
  xc			pbe
  vdw_correction_hirshfeld
  charge			0.0
  relativistic		atomic_zora scalar
  
  sc_accuracy_rho		1E-5
  sc_accuracy_eev		1E-3
  sc_accuracy_etot	1E-6
  sc_iter_limit		1000	
  
  compute_forces .true.
  final_forces_cleaned .true.
  
  
  ################################################################################
  #
  #  FHI-aims code project
  # Volker Blum, Fritz Haber Institute Berlin, 2009
  #
  #  Suggested "tight" defaults for H atom (to be pasted into control.in file)
  #
  ################################################################################
    species        H
  #     global species definitions
      nucleus             1
      mass                1.00794
  #
      l_hartree           6
  #
      cut_pot             4.0  2.0  1.0
      basis_dep_cutoff    1e-4
  #
      radial_base         24 7.0
      radial_multiplier   2
      angular_grids       specified
        division   0.1930   50
        division   0.3175  110
        division   0.4293  194
        division   0.5066  302
        division   0.5626  434
  #      division   0.5922  590
  #      division   0.6227  974
  #      division   0.6868 1202
  #      outer_grid  770
        outer_grid  434
  ################################################################################
  #
  #  Definition of "minimal" basis
  #
  ################################################################################
  #     valence basis states
      valence      1  s   1.
  #     ion occupancy
      ion_occ      1  s   0.5
  ################################################################################
  #
  #  Suggested additional basis functions. For production calculations,
  #  uncomment them one after another (the most important basis functions are
  #  listed first).
  #
  #  Basis constructed for dimers: 0.5 A, 0.7 A, 1.0 A, 1.5 A, 2.5 A
  #
  ################################################################################
  #  "First tier" - improvements: -1014.90 meV to -62.69 meV
       hydro 2 s 2.1
       hydro 2 p 3.5
  #  "Second tier" - improvements: -12.89 meV to -1.83 meV
       hydro 1 s 0.85
       hydro 2 p 3.7
       hydro 2 s 1.2
       hydro 3 d 7
  #  "Third tier" - improvements: -0.25 meV to -0.12 meV
  #     hydro 4 f 11.2
  #     hydro 3 p 4.8
  #     hydro 4 d 9
  #     hydro 3 s 3.2
  
  
  
  ################################################################################
  #
  #  FHI-aims code project
  # Volker Blum, Fritz Haber Institute Berlin, 2009
  #
  #  Suggested "tight" defaults for N atom (to be pasted into control.in file)
  #
  ################################################################################
    species        N
  #     global species definitions
      nucleus             7
      mass                14.0067
  #
      l_hartree           6
  #
      cut_pot             4.0  2.0  1.0
      basis_dep_cutoff    1e-4
  #
      radial_base         35 7.0
      radial_multiplier   2
      angular_grids       specified
        division   0.1841   50
        division   0.3514  110
        division   0.5126  194
        division   0.6292  302
        division   0.6939  434
  #      division   0.7396  590
  #      division   0.7632  770
  #      division   0.8122  974
  #      division   1.1604 1202
  #      outer_grid  974
        outer_grid  434
  ################################################################################
  #
  #  Definition of "minimal" basis
  #
  ################################################################################
  #     valence basis states
      valence      2  s   2.
      valence      2  p   3.
  #     ion occupancy
      ion_occ      2  s   1.
      ion_occ      2  p   2.
  ################################################################################
  #
  #  Suggested additional basis functions. For production calculations,
  #  uncomment them one after another (the most important basis functions are
  #  listed first).
  #
  #  Constructed for dimers: 1.0 A, 1.1 A, 1.5 A, 2.0 A, 3.0 A
  #
  ################################################################################
  #  "First tier" - improvements: -1193.42 meV to -220.60 meV
       hydro 2 p 1.8
       hydro 3 d 6.8
       hydro 3 s 5.8
  #  "Second tier" - improvements: -80.21 meV to -6.86 meV
       hydro 4 f 10.8
       hydro 3 p 5.8
       hydro 1 s 0.8
       hydro 5 g 16
       hydro 3 d 4.9
  #  "Third tier" - improvements: -4.29 meV to -0.53 meV
  #     hydro 3 s 16
  #     ionic 2 p auto
  #     hydro 3 d 6.6
  #     hydro 4 f 11.6
  #  "Fourth tier" - improvements: -0.75 meV to -0.25 meV
  #     hydro 2 p 4.5
  #     hydro 2 s 2.4
  #     hydro 5 g 14.4
  #     hydro 4 d 14.4
  #     hydro 4 f 16.8
  # Further basis functions - -0.21 meV and below
  #     hydro 3 p 14.8
  #     hydro 3 s 4.4
  #     hydro 3 d 19.6
  #     hydro 5 g 12.8
  
  -----------------------------------------------------------------------
  Completed first pass over input file control.in .
  -----------------------------------------------------------------------
  
  
  -----------------------------------------------------------------------
  Parsing geometry.in (first pass over file, find array dimensions only).
  The contents of geometry.in will be repeated verbatim below
  unless switched off by setting 'verbatim_writeout .false.' .
  in the first line of geometry.in .
  -----------------------------------------------------------------------
  
  #=======================================#
  # iterations/iteration0064/aims-chain-node-0.77778/geometry.in
  #=======================================#
  atom -0.0000000000000810 -0.0000011587701117 0.1929390213966393 N
  atom 0.8171175155483097 -0.4717500636380155 -0.1977143851988227 H
  atom -0.8171175155484046 -0.4717500636382723 -0.1977143851987880 H
  atom 0.0000000000001734 0.9435237860463986 -0.1977154657791656 H
  
  -----------------------------------------------------------------------
  Completed first pass over input file geometry.in .
  -----------------------------------------------------------------------
  

  Basic array size parameters:
  | Number of species                 :        2
  | Number of atoms                   :        4
  | Max. basis fn. angular momentum   :        4
  | Max. atomic/ionic basis occupied n:        2
  | Max. number of basis fn. types    :        2
  | Max. radial fns per species/type  :        8
  | Max. logarithmic grid size        :     1290
  | Max. radial integration grid size :       71
  | Max. angular integration grid size:      434
  | Max. angular grid division number :        8
  | Radial grid for Hartree potential :     1290
  | Number of spin channels           :        1

------------------------------------------------------------
          Reading file control.in.
------------------------------------------------------------
  XC: Using PBE gradient-corrected functionals.
  Charge =   0.000000E+00: Neutral system requested explicitly.
  Scalar relativistic treatment of kinetic energy: on-site free-atom approximation to ZORA.
  Convergence accuracy of self-consistent charge density:  0.1000E-04
  Convergence accuracy of sum of eigenvalues:  0.1000E-02
  Convergence accuracy of total energy:  0.1000E-05
  Maximum number of s.-c. iterations  :  1000
  Forces will be computed.
  Cleaning forces before final output.
 
  Reading configuration options for species H                   .
  | Found nuclear charge :   1.0000
  | Found atomic mass :    1.00794000000000      amu
  | Found l_max for Hartree potential  :   6
  | Found cutoff potl. onset [A], width [A], scale factor :    4.00000    2.00000    1.00000
  | Threshold for basis-dependent cutoff potential is   0.100000E-03
  | Found data for basic radial integration grid :    24 points, outermost radius =    7.000 A
  | Found multiplier for basic radial grid :   2
  | Found angular grid specification: user-specified.
  | Specified grid contains     6 separate shells.
  | Check grid settings after all constraints further below.
  | Found free-atom valence shell :  1 s   1.000
  | No ionic wave fns used. Skipping ion_occ.
  | Found hydrogenic basis function :  2 s   2.100
  | Found hydrogenic basis function :  2 p   3.500
  | Found hydrogenic basis function :  1 s   0.850
  | Found hydrogenic basis function :  2 p   3.700
  | Found hydrogenic basis function :  2 s   1.200
  | Found hydrogenic basis function :  3 d   7.000
  Species H                   : Missing cutoff potential type.
  Defaulting to exp(1/x)/(1-x)^2 type cutoff potential.
  Species H : No 'logarithmic' tag. Using default grid for free atom:
  | Default logarithmic grid data [bohr] : 0.1000E-03 0.1000E+03 0.1012E+01
  Species H : On-site basis accuracy parameter (for Gram-Schmidt orthonormalisation) not specified.
  Using default value basis_acc =  0.1000000E-03.
  Species H                   : Using default innermost maximum threshold i_radial=  2 for radial functions.
  Species H                   : Default cutoff onset for free atom density etc. : 0.40000000E+01 AA.
  Species H                   : Basic radial grid will be enhanced according to radial_multiplier =   2, to contain    49 grid points.
 
  Reading configuration options for species N                   .
  | Found nuclear charge :   7.0000
  | Found atomic mass :    14.0067000000000      amu
  | Found l_max for Hartree potential  :   6
  | Found cutoff potl. onset [A], width [A], scale factor :    4.00000    2.00000    1.00000
  | Threshold for basis-dependent cutoff potential is   0.100000E-03
  | Found data for basic radial integration grid :    35 points, outermost radius =    7.000 A
  | Found multiplier for basic radial grid :   2
  | Found angular grid specification: user-specified.
  | Specified grid contains     6 separate shells.
  | Check grid settings after all constraints further below.
  | Found free-atom valence shell :  2 s   2.000
  | Found free-atom valence shell :  2 p   3.000
  | No ionic wave fns used. Skipping ion_occ.
  | No ionic wave fns used. Skipping ion_occ.
  | Found hydrogenic basis function :  2 p   1.800
  | Found hydrogenic basis function :  3 d   6.800
  | Found hydrogenic basis function :  3 s   5.800
  | Found hydrogenic basis function :  4 f  10.800
  | Found hydrogenic basis function :  3 p   5.800
  | Found hydrogenic basis function :  1 s   0.800
  | Found hydrogenic basis function :  5 g  16.000
  | Found hydrogenic basis function :  3 d   4.900
  Species N                   : Missing cutoff potential type.
  Defaulting to exp(1/x)/(1-x)^2 type cutoff potential.
  Species N : No 'logarithmic' tag. Using default grid for free atom:
  | Default logarithmic grid data [bohr] : 0.1000E-03 0.1000E+03 0.1012E+01
  Species N : On-site basis accuracy parameter (for Gram-Schmidt orthonormalisation) not specified.
  Using default value basis_acc =  0.1000000E-03.
  Species N                   : Using default innermost maximum threshold i_radial=  2 for radial functions.
  Species N                   : Default cutoff onset for free atom density etc. : 0.40000000E+01 AA.
  Species N                   : Basic radial grid will be enhanced according to radial_multiplier =   2, to contain    71 grid points.
 
  Finished reading input file 'control.in'. Consistency checks are next.
 
  MPI_IN_PLACE appears to work with this MPI implementation.
  | Keeping use_mpi_in_place .true. (see manual).
  Target number of points in a grid batch is not set. Defaulting to  100
  Method for grid partitioning is not set. Defaulting to parallel hash+maxmin partitioning.
  Batch size limit is not set. Defaulting to    200
  By default, will store active basis functions for each batch.
  If in need of memory, prune_basis_once .false. can be used to disable this option.
  communication_type for Hartree potential was not specified.
  Defaulting to calc_hartree .
  Defaulting to Pulay charge density mixer.
  Pulay mixer: Number of relevant iterations not set.
  Defaulting to    8 iterations.
  Pulay mixer: Number of initial linear mixing iterations not set.
  Defaulting to    0 iterations.
  Work space size for distributed Hartree potential not set.
  Defaulting to   0.200000E+03 MB.
  Mixing parameter for charge density mixing has not been set.
  Using default: charge_mix_param =     0.0500.
  The mixing parameter will be adjusted in iteration number     2 of the first full s.c.f. cycle only.
  Algorithm-dependent basis array size parameters:
  | n_max_pulay                         :        8
  Presetting        40 iterations before the initial mixing cycle
  is restarted anyway using the sc_init_iter criterion / keyword.
  Presetting a factor      1.000 between actual scf density residual
  and density convergence criterion sc_accuracy_rho below which sc_init_iter
  takes no effect.
  Geometry relaxation not requested: no relaxation will be performed.
  Force calculation: scf convergence accuracy of forces not set.
  Defaulting to 'sc_accuracy_forces not_checked'.
  Handling of forces: Unphysical translation and rotation will be removed from forces.
  No accuracy limit for integral partition fn. given. Defaulting to  0.1000E-14.
  No threshold value for u(r) in integrations given. Defaulting to  0.1000E-05.
  No occupation type (smearing scheme) given. Defaulting to Gaussian broadening, width =  0.1000E-01 eV.
  The width will be adjusted in iteration number     2 of the first full s.c.f. cycle only.
  S.C.F. convergence parameters will be adjusted in iteration number     2 of the first full s.c.f. cycle only.
  No accuracy for occupation numbers given. Defaulting to  0.1000E-12.
  No threshold value for occupation numbers given. Defaulting to  0.0000E+00.
  No accuracy for fermi level given. Defaulting to  0.1000E-19.
  Maximum # of iterations to find E_F not set. Defaulting to  200.
  Preferred method for the eigenvalue solver ('KS_method') not specified in 'control.in'.
  Calling BLACS routine to test compilation state
  The best choice would be 'elsi', but your version of FHI-aims is compiled without ScaLAPACK support.
  Defaulting to 'lapack_fast' instead (serial solution, time will not improve with more CPUs).
  Will not use alltoall communication since running on < 1024 CPUs.
  Threshold for basis singularities not set.
  Default threshold for basis singularities:  0.1000E-04
  partition_type (choice of integration weights) for integrals was not specified.
  | Using a version of the partition function of Stratmann and coworkers ('stratmann_smoother').
  | At each grid point, the set of atoms used to build the partition table is smoothly restricted to
  | only those atoms whose free-atom density would be non-zero at that grid point.
  Partitioning for Hartree potential was not defined. Using partition_type for integrals.
  | Adjusted default value of keyword multip_moments_threshold to:       0.10000000E-11
  | This value may affect high angular momentum components of the Hartree potential in periodic systems.
  Spin handling was not defined in control.in. Defaulting to unpolarized case.
  No q(lm)/r^(l+1) cutoff set for long-range Hartree potential.
  | Using default value of  0.100000E-09 .
  | Verify using the multipole_threshold keyword.
  Defaulting to new monopole extrapolation.
  Density update method: automatic selection selected.
------------------------------------------------------------


------------------------------------------------------------
          Reading geometry description geometry.in.
------------------------------------------------------------
  Input structure read successfully.
  The structure contains        4 atoms,  and a total of         10.000 electrons.

  Input geometry:
  | No unit cell requested.
  | Atomic structure:
  |       Atom                x [A]            y [A]            z [A]
  |    1: Species N            -0.00000000       -0.00000116        0.19293902
  |    2: Species H             0.81711752       -0.47175006       -0.19771439
  |    3: Species H            -0.81711752       -0.47175006       -0.19771439
  |    4: Species H             0.00000000        0.94352379       -0.19771547
  |

  | The smallest distance between any two atoms is         1.02119447 AA.
  |
  | The first atom of this pair is atom number                      1 .
  | The second atom of this pair is atom number                     2 .

  Number of empty states per atom not set in control.in - providing a guess from actual geometry.
  | Total number of empty states used during s.c.f. cycle:        8
  If you use a very high smearing, use empty_states (per atom!) in control.in to increase this value.

  Structure-dependent array size parameters: 
  | Maximum number of distinct radial functions  :       18
  | Maximum number of basis functions            :       84
  | Number of Kohn-Sham states (occupied + empty):       13
------------------------------------------------------------

------------------------------------------------------------
          Preparing all fixed parts of the calculation.
------------------------------------------------------------
  Determining machine precision:
    2.225073858507201E-308
  Setting up grids for atomic and cluster calculations.

  Creating wave function, potential, and density for free atoms.

  Species: H

  List of occupied orbitals and eigenvalues:
    n    l              occ      energy [Ha]    energy [eV]
    1    0           1.0000        -0.238386        -6.4868


  Species: N

  List of occupied orbitals and eigenvalues:
    n    l              occ      energy [Ha]    energy [eV]
    1    0           2.0000       -14.144983      -384.9046
    2    0           2.0000        -0.682735       -18.5782
    2    1           3.0000        -0.260361        -7.0848

  Creating fixed part of basis set: Ionic, confined, hydrogenic.
 
  H                    hydrogenic:
 
  List of hydrogenic basis orbitals: 
    n    l      effective z      eigenvalue [eV]  inner max. [A]     outer max. [A]     outer radius [A]   
    2    0         2.100000       -14.9965           0.193243           1.317208           5.373006
    2    1         3.500000       -41.6672           0.602369           0.602369           4.056063
    1    0         0.850000        -9.8292           0.624871           0.624871           5.373006
    2    1         3.700000       -46.5653           0.573622           0.573622           3.910002
    2    0         1.200000        -4.5995           0.334980           2.228188           5.505995
    3    2         7.000000       -74.0753           0.680699           0.680699           3.769201
 
 
  N                    hydrogenic:
 
  List of hydrogenic basis orbitals: 
    n    l      effective z      eigenvalue [eV]  inner max. [A]     outer max. [A]     outer radius [A]   
    2    1         1.800000       -11.0118           1.177451           1.177451           5.427479
    3    2         6.800000       -69.9029           0.704619           0.704619           3.854246
    3    0         5.800000       -50.8549           0.067388           1.191934           4.629968
    4    3        10.800000       -99.1854           0.786571           0.786571           3.761152
    3    1         5.800000       -50.8549           0.274880           1.094176           4.518138
    1    0         0.800000        -8.7059           0.662839           0.662839           5.361532
    5    4        16.000000      -139.3222           0.825990           0.825990           3.625711
    3    2         4.900000       -36.2967           0.968267           0.968267           4.862000
 

  Adding cutoff potential to free-atom effective potential.
  Creating atomic-like basis functions for current effective potential.

  Species H                   :

  List of atomic basis orbitals and eigenvalues:
    n    l      energy [Ha]    energy [eV]    outer radius [A]
    1    0        -0.238386        -6.4868       5.373006


  Species N                   :

  List of atomic basis orbitals and eigenvalues:
    n    l      energy [Ha]    energy [eV]    outer radius [A]
    1    0       -14.144983      -384.9046       1.637919
    2    0        -0.682735       -18.5782       5.168461
    2    1        -0.260361        -7.0848       5.361532

  Assembling full basis from fixed parts.
  | Species H :   atomic orbital   1 s accepted.
  | Species H :    hydro orbital   2 s accepted.
  | Species H :    hydro orbital   1 s accepted.
  | Species H :    hydro orbital   2 s accepted.
  | Species H :    hydro orbital   2 p accepted.
  | Species H :    hydro orbital   2 p accepted.
  | Species H :    hydro orbital   3 d accepted.
  | Species N :   atomic orbital   1 s accepted.
  | Species N :    hydro orbital   3 s accepted.
  | Species N :   atomic orbital   2 s accepted.
  | Species N :    hydro orbital   1 s accepted.
  | Species N :    hydro orbital   3 p accepted.
  | Species N :   atomic orbital   2 p accepted.
  | Species N :    hydro orbital   2 p accepted.
  | Species N :    hydro orbital   3 d accepted.
  | Species N :    hydro orbital   3 d accepted.
  | Species N :    hydro orbital   4 f accepted.
  | Species N :    hydro orbital   5 g accepted.
 
  Basis size parameters after reduction:
  | Total number of radial functions:       18
  | Total number of basis functions :       84
 
  Per-task memory consumption for arrays in subroutine allocate_ext:
  |           5.947464MB.
  Testing on-site integration grid accuracy.
  |  Species  Function  <phi|h_atom|phi> (log., in eV)  <phi|h_atom|phi> (rad., in eV)
           1        1                 -6.4870767962                 -6.4871688290
           1        2                 13.5032046589                 13.5028982997
           1        3                 32.8195184817                 32.8119941656
           1        4                 33.8513856511                 33.7670005767 ***
           1        5                 28.8544614965                 28.8544615203
           1        6                 59.6326952547                 59.6327656460
           1        7                 60.2719308513                 60.2719305949
           2        8               -384.9045837915               -384.9045810047
           2        9                 12.5603464973                 12.5603454944
           2       10                -15.7898975011                -15.7898975786
           2       11                 26.9245114620                 26.9252865209
           2       12                 18.5932197354                 18.5932205971
           2       13                  1.2241635029                  1.2241662160
           2       14                 13.4399987723                 13.4405112378
           2       15                 35.9434723763                 35.9434722968
           2       16                 39.9236994472                 39.9237117157
           2       17                 72.9994981058                 72.9994982098
           2       18                116.4255814536                116.4255814825
 * Note: Onsite integrals marked "***" above are less accurate than
 * onsite_accuracy_threshold =    0.03000 eV. Usually, this is harmless.
 * When in doubt, tighten the "radial" and/or "radial_multiplier" flags to check.

  Preparing densities etc. for the partition functions (integrals / Hartree potential).

  Preparations completed.
  max(cpu_time)          :      0.232 s.
  Wall clock time (cpu1) :      0.247 s.
------------------------------------------------------------

------------------------------------------------------------
          Begin self-consistency loop: Initialization.

          Date     :  20180214, Time     :  152449.281
------------------------------------------------------------

  Initializing index lists of integration centers etc. from given atomic structure:
  | Number of centers in hartree potential         :         4
  | Number of centers in hartree multipole         :         4
  | Number of centers in electron density summation:         4
  | Number of centers in basis integrals           :         4
  | Number of centers in integrals                 :         4
  | Number of centers in hamiltonian               :         4
  Partitioning the integration grid into batches with parallel hashing+maxmin method.
  | Number of batches:      753
  | Maximal batch size:     200
  | Minimal batch size:      49
  | Average batch size:      83.671
  | Standard deviation of batch sizes:      23.256

  Integration load balanced across     8 MPI tasks.
  Work distribution over tasks is as follows:
  Task     0 has       7849 integration points.
  Task     1 has       7821 integration points.
  Task     2 has       7877 integration points.
  Task     3 has       7903 integration points.
  Task     4 has       7853 integration points.
  Task     5 has       7802 integration points.
  Task     6 has       7922 integration points.
  Task     7 has       7977 integration points.
  Initializing partition tables, free-atom densities, potentials, etc. across the integration grid (initialize_grid_storage).
  | initialize_grid_storage: Actual outermost partition radius vs. multipole_radius_free
  | (-- VB: in principle, multipole_radius_free should be larger, hence this output)
  | Species        1: Confinement radius =              6.000000000000000 AA, multipole_radius_free =              6.071692442739658 AA.
  | Species        1: outer_partition_radius set to              6.071692442739658 AA .
  | Species        2: Confinement radius =              6.000000000000000 AA, multipole_radius_free =              6.058726835495003 AA.
  | Species        2: outer_partition_radius set to              6.058726835495003 AA .
  | Original list of interatomic distances with           4 x          4 entries is created.
  | Net number of integration points:    63004
  | of which are non-zero points    :    54778
  Renormalizing the initial density to the exact electron count on the 3D integration grid.
  | Initial density: Formal number of electrons (from input files) :      10.0000000000
  | Integrated number of electrons on 3D grid     :       9.9999994992
  | Charge integration error                      :      -0.0000005008
  | Normalization factor for density and gradient :       1.0000000501
  Obtaining max. number of non-zero basis functions in each batch (get_n_compute_maxes).
  | Maximal number of non-zero basis functions:       84 in task     0
  | Maximal number of non-zero basis functions:       84 in task     1
  | Maximal number of non-zero basis functions:       84 in task     2
  | Maximal number of non-zero basis functions:       84 in task     3
  | Maximal number of non-zero basis functions:       84 in task     4
  | Maximal number of non-zero basis functions:       84 in task     5
  | Maximal number of non-zero basis functions:       84 in task     6
  | Maximal number of non-zero basis functions:       84 in task     7
  Selecting the method for density update.
  Loop over occupied states selected for charge density update.
  Allocating        0.009 MB for KS_eigenvector
  Integrating Hamiltonian matrix: batch-based integration.
  Time summed over all CPUs for integration: real work        1.182 s, elapsed        1.263 s
  Integrating overlap matrix.
  Time summed over all CPUs for integration: real work        0.409 s, elapsed        0.455 s

  Updating Kohn-Sham eigenvalues, eigenvectors, occupation numbers, and Fermi level.
  Solving generalized eigenproblem
  Updating Kohn-Sham eigenvalues and eigenfunctions.
  Transforming overlap matrix and checking for singularities.
  Overlap matrix is nonsingular:
  | Lowest eigenvalue:  0.149582E-03
  Solving real generalised eigenvalue problem by standard LAPACK (fast)

  Obtaining occupation numbers and chemical potential using ELSI.
  | Chemical potential (Fermi level):    -6.62186681eV
  Writing Kohn-Sham eigenvalues.

  State    Occupation    Eigenvalue [Ha]    Eigenvalue [eV]
      1       2.00000         -14.278507         -388.53795
      2       2.00000          -0.974118          -26.50709
      3       2.00000          -0.590557          -16.06989
      4       2.00000          -0.590552          -16.06974
      5       2.00000          -0.421552          -11.47102
      6       0.00000          -0.065556           -1.78386
      7       0.00000          -0.001482           -0.04032
      8       0.00000          -0.001481           -0.04029
      9       0.00000           0.078601            2.13884
     10       0.00000           0.078604            2.13892
     11       0.00000           0.103278            2.81035
     12       0.00000           0.129807            3.53222
     13       0.00000           0.209398            5.69801

  Highest occupied state (VBM) at    -11.47102127 eV
  | Occupation number:      2.00000000

  Lowest unoccupied state (CBM) at    -1.78385974 eV
  | Occupation number:      0.00000000

  Overall HOMO-LUMO gap:      9.68716153 eV.
  Calculating total energy contributions from superposition of free atom densities.

  Total energy components:
  | Sum of eigenvalues            :         -33.71057349 Ha        -917.31137682 eV
  | XC energy correction          :          -7.66574184 Ha        -208.59544862 eV
  | XC potential correction       :           9.85085036 Ha         268.05527681 eV
  | Free-atom electrostatic energy:         -25.15149568 Ha        -684.40701971 eV
  | Hartree energy correction     :           0.00000000 Ha           0.00000000 eV
  | vdW energy correction         :           0.00000000 Ha           0.00000000 eV
  | Entropy correction            :           0.00000000 Ha           0.00000000 eV
  | ---------------------------
  | Total energy                  :         -56.67696064 Ha       -1542.25856834 eV
  | Total energy, T -> 0          :         -56.67696064 Ha       -1542.25856834 eV  <-- do not rely on this value for anything but (periodic) metals
  | Electronic free energy        :         -56.67696064 Ha       -1542.25856834 eV

  Derived energy quantities:
  | Kinetic energy                :          55.54370380 Ha        1511.42108075 eV
  | Electrostatic energy          :        -104.55492261 Ha       -2845.08420047 eV
  | Energy correction for multipole
  | error in Hartree potential    :           0.00000000 Ha           0.00000000 eV
  | Sum of eigenvalues per atom                           :        -229.32784420 eV
  | Total energy (T->0) per atom                          :        -385.56464208 eV  <-- do not rely on this value for anything but (periodic) metals
  | Electronic free energy per atom                       :        -385.56464208 eV
  Initialize hartree_potential_storage
  Max. number of atoms included in rho_multipole:            4

  End scf initialization - timings             :  max(cpu_time)    wall_clock(cpu1)
  | Time for scf. initialization               :        0.356 s           0.356 s
  | Boundary condition initialization          :        0.000 s           0.003 s
  | Integration                                :        0.212 s           0.210 s
  | Solution of K.-S. eqns.                    :        0.008 s           0.008 s
  | Grid partitioning                          :        0.060 s           0.057 s
  | Preloading free-atom quantities on grid    :        0.020 s           0.023 s
  | Free-atom superposition energy             :        0.016 s           0.015 s
  | Total energy evaluation                    :        0.000 s           0.001 s

  Partial memory accounting:
  | Current value for overall tracked memory usage on task 0  :           0.123 MB
  | Peak value for overall tracked memory usage on task 0     :           0.528 MB after allocating wave
  | Largest tracked array allocation on task 0 so far         :           0.134 MB  when allocating H_times_psi
  Note:  These values currently only include a subset of arrays which are explicitly tracked.
  The "true" memory usage will be greater.
------------------------------------------------------------

------------------------------------------------------------
          Begin self-consistency iteration #    1

  Date     :  20180214, Time     :  152449.638
------------------------------------------------------------
  Evaluating new KS density.
  Integration grid: deviation in total charge (<rho> - N_e) =   5.329071E-15
  Pulay mixing of updated and previous charge densities.

  Evaluating partitioned Hartree potential by multipole expansion.
  | Analytical far-field extrapolation by fixed multipoles:
  | Hartree multipole sum: apparent total charge =  -0.669674E-06
  Summing up the Hartree potential.
  Time summed over all CPUs for potential: real work        0.877 s, elapsed        0.964 s
  | RMS charge density error from multipole expansion :   0.196947E-03

  Integrating Hamiltonian matrix: batch-based integration.
  Time summed over all CPUs for integration: real work        1.166 s, elapsed        1.296 s

  Updating Kohn-Sham eigenvalues, eigenvectors, occupation numbers, and Fermi level.
  Solving generalized eigenproblem
  Updating Kohn-Sham eigenvalues and eigenfunctions.
  Solving real generalised eigenvalue problem by standard LAPACK (fast)

  Obtaining occupation numbers and chemical potential using ELSI.
  | Chemical potential (Fermi level):    -6.45173462eV
  Writing Kohn-Sham eigenvalues.

  State    Occupation    Eigenvalue [Ha]    Eigenvalue [eV]
      1       2.00000         -14.234182         -387.33179
      2       2.00000          -0.952708          -25.92452
      3       2.00000          -0.571312          -15.54619
      4       2.00000          -0.571307          -15.54605
      5       2.00000          -0.399030          -10.85817
      6       0.00000          -0.060903           -1.65727
      7       0.00000           0.003493            0.09505
      8       0.00000           0.003494            0.09507
      9       0.00000           0.083565            2.27391
     10       0.00000           0.083568            2.27400
     11       0.00000           0.109279            2.97363
     12       0.00000           0.134296            3.65439
     13       0.00000           0.214422            5.83472

  Highest occupied state (VBM) at    -10.85817031 eV
  | Occupation number:      2.00000000

  Lowest unoccupied state (CBM) at    -1.65726688 eV
  | Occupation number:      0.00000000

  Overall HOMO-LUMO gap:      9.20090343 eV.

  Total energy components:
  | Sum of eigenvalues            :         -33.45707795 Ha        -910.41341240 eV
  | XC energy correction          :          -7.69427897 Ha        -209.37198354 eV
  | XC potential correction       :           9.88807534 Ha         269.06821997 eV
  | Free-atom electrostatic energy:         -25.15149568 Ha        -684.40701971 eV
  | Hartree energy correction     :          -0.23710477 Ha          -6.45194905 eV
  | vdW energy correction         :           0.00000000 Ha           0.00000000 eV
  | Entropy correction            :           0.00000000 Ha           0.00000000 eV
  | ---------------------------
  | Total energy                  :         -56.65188204 Ha       -1541.57614473 eV
  | Total energy, T -> 0          :         -56.65188204 Ha       -1541.57614473 eV  <-- do not rely on this value for anything but (periodic) metals
  | Electronic free energy        :         -56.65188204 Ha       -1541.57614473 eV

  Derived energy quantities:
  | Kinetic energy                :          55.71466331 Ha        1516.07312572 eV
  | Electrostatic energy          :        -104.67226638 Ha       -2848.27728691 eV
  | Energy correction for multipole
  | error in Hartree potential    :          -0.00026400 Ha          -0.00718370 eV
  | Sum of eigenvalues per atom                           :        -227.60335310 eV
  | Total energy (T->0) per atom                          :        -385.39403618 eV  <-- do not rely on this value for anything but (periodic) metals
  | Electronic free energy per atom                       :        -385.39403618 eV

  Self-consistency convergence accuracy:
  | Change of charge density      :  0.3433E+00
  | Change of sum of eigenvalues  :  0.6898E+01 eV
  | Change of total energy        :  0.6824E+00 eV

  End self-consistency iteration #     1       :  max(cpu_time)    wall_clock(cpu1)
  | Time for this iteration                    :        0.436 s           0.434 s
  | Charge density update                      :        0.140 s           0.136 s
  | Density mixing                             :        0.004 s           0.002 s
  | Hartree multipole update                   :        0.016 s           0.016 s
  | Hartree multipole summation                :        0.120 s           0.118 s
  | Integration                                :        0.160 s           0.158 s
  | Solution of K.-S. eqns.                    :        0.004 s           0.002 s
  | Total energy evaluation                    :        0.000 s           0.000 s

  Partial memory accounting:
  | Current value for overall tracked memory usage on task 0  :           0.123 MB
  | Peak value for overall tracked memory usage on task 0     :           0.661 MB after allocating gradient_basis_wave
  | Largest tracked array allocation on task 0 so far         :           0.403 MB  when allocating gradient_basis_wave
  Note:  These values currently only include a subset of arrays which are explicitly tracked.
  The "true" memory usage will be greater.
------------------------------------------------------------

------------------------------------------------------------
          Begin self-consistency iteration #    2

  Date     :  20180214, Time     :  152450.073
------------------------------------------------------------
  Evaluating new KS density.
  Integration grid: deviation in total charge (<rho> - N_e) =  -3.552714E-15
  Pulay mixing of updated and previous charge densities.

  Evaluating partitioned Hartree potential by multipole expansion.
  | Analytical far-field extrapolation by fixed multipoles:
  | Hartree multipole sum: apparent total charge =  -0.124259E-05
  Summing up the Hartree potential.
  Time summed over all CPUs for potential: real work        0.896 s, elapsed        0.948 s
  | RMS charge density error from multipole expansion :   0.142401E-02

  Integrating Hamiltonian matrix: batch-based integration.
  Time summed over all CPUs for integration: real work        1.177 s, elapsed        1.300 s

  Updating Kohn-Sham eigenvalues, eigenvectors, occupation numbers, and Fermi level.
  Solving generalized eigenproblem
  Updating Kohn-Sham eigenvalues and eigenfunctions.
  Solving real generalised eigenvalue problem by standard LAPACK (fast)

  Obtaining occupation numbers and chemical potential using ELSI.
  | Chemical potential (Fermi level):    -5.36896669eV
  Highest occupied state (VBM) at     -7.35056880 eV
  | Occupation number:      2.00000000

  Lowest unoccupied state (CBM) at    -0.94575578 eV
  | Occupation number:      0.00000000

  Overall HOMO-LUMO gap:      6.40481301 eV.

  Checking to see if s.c.f. parameters should be adjusted.
  The system likely has a gap. Increased the default Pulay mixing parameter (charge_mix_param). Value:   0.200000 .
  Kept the default occupation width. Value:   0.010000 eV.

  Total energy components:
  | Sum of eigenvalues            :         -31.98932023 Ha        -870.47369255 eV
  | XC energy correction          :          -7.87170053 Ha        -214.19986975 eV
  | XC potential correction       :          10.11944748 Ha         275.36417636 eV
  | Free-atom electrostatic energy:         -25.15149568 Ha        -684.40701971 eV
  | Hartree energy correction     :          -1.67973561 Ha         -45.70793151 eV
  | vdW energy correction         :           0.00000000 Ha           0.00000000 eV
  | Entropy correction            :           0.00000000 Ha           0.00000000 eV
  | ---------------------------
  | Total energy                  :         -56.57280456 Ha       -1539.42433715 eV
  | Total energy, T -> 0          :         -56.57280456 Ha       -1539.42433715 eV  <-- do not rely on this value for anything but (periodic) metals
  | Electronic free energy        :         -56.57280456 Ha       -1539.42433715 eV

  Derived energy quantities:
  | Kinetic energy                :          56.60455178 Ha        1540.28822303 eV
  | Electrostatic energy          :        -105.30565582 Ha       -2865.51269043 eV
  | Energy correction for multipole
  | error in Hartree potential    :          -0.00182486 Ha          -0.04965693 eV
  | Sum of eigenvalues per atom                           :        -217.61842314 eV
  | Total energy (T->0) per atom                          :        -384.85608429 eV  <-- do not rely on this value for anything but (periodic) metals
  | Electronic free energy per atom                       :        -384.85608429 eV

  Self-consistency convergence accuracy:
  | Change of charge density      :  0.3033E+00
  | Change of sum of eigenvalues  :  0.3994E+02 eV
  | Change of total energy        :  0.2152E+01 eV

  End self-consistency iteration #     2       :  max(cpu_time)    wall_clock(cpu1)
  | Time for this iteration                    :        0.432 s           0.431 s
  | Charge density update                      :        0.136 s           0.134 s
  | Density mixing                             :        0.004 s           0.003 s
  | Hartree multipole update                   :        0.016 s           0.016 s
  | Hartree multipole summation                :        0.116 s           0.117 s
  | Integration                                :        0.160 s           0.158 s
  | Solution of K.-S. eqns.                    :        0.004 s           0.002 s
  | Total energy evaluation                    :        0.000 s           0.001 s

  Partial memory accounting:
  | Current value for overall tracked memory usage on task 0  :           0.124 MB
  | Peak value for overall tracked memory usage on task 0     :           0.661 MB after allocating gradient_basis_wave
  | Largest tracked array allocation on task 0 so far         :           0.403 MB  when allocating gradient_basis_wave
  Note:  These values currently only include a subset of arrays which are explicitly tracked.
  The "true" memory usage will be greater.
------------------------------------------------------------

------------------------------------------------------------
          Begin self-consistency iteration #    3

  Date     :  20180214, Time     :  152450.505
------------------------------------------------------------
  Evaluating new KS density.
  Integration grid: deviation in total charge (<rho> - N_e) =   7.105427E-15
  Pulay mixing of updated and previous charge densities.

  Evaluating partitioned Hartree potential by multipole expansion.
  | Analytical far-field extrapolation by fixed multipoles:
  | Hartree multipole sum: apparent total charge =  -0.558771E-06
  Summing up the Hartree potential.
  Time summed over all CPUs for potential: real work        0.894 s, elapsed        0.940 s
  | RMS charge density error from multipole expansion :   0.213266E-02

  Integrating Hamiltonian matrix: batch-based integration.
  Time summed over all CPUs for integration: real work        1.159 s, elapsed        1.314 s

  Updating Kohn-Sham eigenvalues, eigenvectors, occupation numbers, and Fermi level.
  Solving generalized eigenproblem
  Updating Kohn-Sham eigenvalues and eigenfunctions.
  Solving real generalised eigenvalue problem by standard LAPACK (fast)

  Obtaining occupation numbers and chemical potential using ELSI.
  | Chemical potential (Fermi level):    -5.41036070eV
  Highest occupied state (VBM) at     -7.58212688 eV
  | Occupation number:      2.00000000

  Lowest unoccupied state (CBM) at    -0.89985972 eV
  | Occupation number:      0.00000000

  Overall HOMO-LUMO gap:      6.68226716 eV.

  Total energy components:
  | Sum of eigenvalues            :         -32.13064949 Ha        -874.31945745 eV
  | XC energy correction          :          -7.86215757 Ha        -213.94019269 eV
  | XC potential correction       :          10.10597117 Ha         274.99746729 eV
  | Free-atom electrostatic energy:         -25.15149568 Ha        -684.40701971 eV
  | Hartree energy correction     :          -1.53462564 Ha         -41.75928837 eV
  | vdW energy correction         :           0.00000000 Ha           0.00000000 eV
  | Entropy correction            :           0.00000000 Ha           0.00000000 eV
  | ---------------------------
  | Total energy                  :         -56.57295721 Ha       -1539.42849093 eV
  | Total energy, T -> 0          :         -56.57295721 Ha       -1539.42849093 eV  <-- do not rely on this value for anything but (periodic) metals
  | Electronic free energy        :         -56.57295721 Ha       -1539.42849093 eV

  Derived energy quantities:
  | Kinetic energy                :          56.34508039 Ha        1533.22764721 eV
  | Electrostatic energy          :        -105.05588003 Ha       -2858.71594545 eV
  | Energy correction for multipole
  | error in Hartree potential    :          -0.00156872 Ha          -0.04268702 eV
  | Sum of eigenvalues per atom                           :        -218.57986436 eV
  | Total energy (T->0) per atom                          :        -384.85712273 eV  <-- do not rely on this value for anything but (periodic) metals
  | Electronic free energy per atom                       :        -384.85712273 eV

  Self-consistency convergence accuracy:
  | Change of charge density      :  0.1385E+00
  | Change of sum of eigenvalues  : -0.3846E+01 eV
  | Change of total energy        : -0.4154E-02 eV

  End self-consistency iteration #     3       :  max(cpu_time)    wall_clock(cpu1)
  | Time for this iteration                    :        0.432 s           0.430 s
  | Charge density update                      :        0.136 s           0.132 s
  | Density mixing                             :        0.008 s           0.005 s
  | Hartree multipole update                   :        0.016 s           0.015 s
  | Hartree multipole summation                :        0.116 s           0.115 s
  | Integration                                :        0.160 s           0.160 s
  | Solution of K.-S. eqns.                    :        0.004 s           0.002 s
  | Total energy evaluation                    :        0.000 s           0.001 s

  Partial memory accounting:
  | Current value for overall tracked memory usage on task 0  :           0.124 MB
  | Peak value for overall tracked memory usage on task 0     :           0.661 MB after allocating gradient_basis_wave
  | Largest tracked array allocation on task 0 so far         :           0.403 MB  when allocating gradient_basis_wave
  Note:  These values currently only include a subset of arrays which are explicitly tracked.
  The "true" memory usage will be greater.
------------------------------------------------------------

------------------------------------------------------------
          Begin self-consistency iteration #    4

  Date     :  20180214, Time     :  152450.936
------------------------------------------------------------
  Evaluating new KS density.
  Integration grid: deviation in total charge (<rho> - N_e) =   0.000000E+00
  Pulay mixing of updated and previous charge densities.

  Evaluating partitioned Hartree potential by multipole expansion.
  | Analytical far-field extrapolation by fixed multipoles:
  | Hartree multipole sum: apparent total charge =  -0.200305E-06
  Summing up the Hartree potential.
  Time summed over all CPUs for potential: real work        0.899 s, elapsed        0.937 s
  | RMS charge density error from multipole expansion :   0.341444E-02

  Integrating Hamiltonian matrix: batch-based integration.
  Time summed over all CPUs for integration: real work        1.166 s, elapsed        1.301 s

  Updating Kohn-Sham eigenvalues, eigenvectors, occupation numbers, and Fermi level.
  Solving generalized eigenproblem
  Updating Kohn-Sham eigenvalues and eigenfunctions.
  Solving real generalised eigenvalue problem by standard LAPACK (fast)

  Obtaining occupation numbers and chemical potential using ELSI.
  | Chemical potential (Fermi level):    -5.00898619eV
  Highest occupied state (VBM) at     -6.55560363 eV
  | Occupation number:      2.00000000

  Lowest unoccupied state (CBM) at    -0.58882183 eV
  | Occupation number:      0.00000000

  Overall HOMO-LUMO gap:      5.96678181 eV.

  Total energy components:
  | Sum of eigenvalues            :         -31.74196624 Ha        -863.74284802 eV
  | XC energy correction          :          -7.92461010 Ha        -215.63961231 eV
  | XC potential correction       :          10.18656875 Ha         277.19063906 eV
  | Free-atom electrostatic energy:         -25.15149568 Ha        -684.40701971 eV
  | Hartree energy correction     :          -1.93443419 Ha         -52.63863264 eV
  | vdW energy correction         :           0.00000000 Ha           0.00000000 eV
  | Entropy correction            :           0.00000000 Ha           0.00000000 eV
  | ---------------------------
  | Total energy                  :         -56.56593745 Ha       -1539.23747362 eV
  | Total energy, T -> 0          :         -56.56593745 Ha       -1539.23747362 eV  <-- do not rely on this value for anything but (periodic) metals
  | Electronic free energy        :         -56.56593745 Ha       -1539.23747362 eV

  Derived energy quantities:
  | Kinetic energy                :          56.37218453 Ha        1533.96518844 eV
  | Electrostatic energy          :        -105.01351189 Ha       -2857.56304975 eV
  | Energy correction for multipole
  | error in Hartree potential    :          -0.00187765 Ha          -0.05109343 eV
  | Sum of eigenvalues per atom                           :        -215.93571201 eV
  | Total energy (T->0) per atom                          :        -384.80936840 eV  <-- do not rely on this value for anything but (periodic) metals
  | Electronic free energy per atom                       :        -384.80936840 eV

  Self-consistency convergence accuracy:
  | Change of charge density      :  0.9400E-01
  | Change of sum of eigenvalues  :  0.1058E+02 eV
  | Change of total energy        :  0.1910E+00 eV

  End self-consistency iteration #     4       :  max(cpu_time)    wall_clock(cpu1)
  | Time for this iteration                    :        0.436 s           0.434 s
  | Charge density update                      :        0.136 s           0.133 s
  | Density mixing                             :        0.012 s           0.009 s
  | Hartree multipole update                   :        0.016 s           0.016 s
  | Hartree multipole summation                :        0.116 s           0.114 s
  | Integration                                :        0.160 s           0.159 s
  | Solution of K.-S. eqns.                    :        0.004 s           0.002 s
  | Total energy evaluation                    :        0.004 s           0.001 s

  Partial memory accounting:
  | Current value for overall tracked memory usage on task 0  :           0.124 MB
  | Peak value for overall tracked memory usage on task 0     :           0.661 MB after allocating gradient_basis_wave
  | Largest tracked array allocation on task 0 so far         :           0.403 MB  when allocating gradient_basis_wave
  Note:  These values currently only include a subset of arrays which are explicitly tracked.
  The "true" memory usage will be greater.
------------------------------------------------------------

------------------------------------------------------------
          Begin self-consistency iteration #    5

  Date     :  20180214, Time     :  152451.371
------------------------------------------------------------
  Evaluating new KS density.
  Integration grid: deviation in total charge (<rho> - N_e) =  -1.243450E-14
  Pulay mixing of updated and previous charge densities.

  Evaluating partitioned Hartree potential by multipole expansion.
  | Analytical far-field extrapolation by fixed multipoles:
  | Hartree multipole sum: apparent total charge =  -0.250626E-06
  Summing up the Hartree potential.
  Time summed over all CPUs for potential: real work        0.887 s, elapsed        0.939 s
  | RMS charge density error from multipole expansion :   0.342346E-02

  Integrating Hamiltonian matrix: batch-based integration.
  Time summed over all CPUs for integration: real work        1.183 s, elapsed        1.293 s

  Updating Kohn-Sham eigenvalues, eigenvectors, occupation numbers, and Fermi level.
  Solving generalized eigenproblem
  Updating Kohn-Sham eigenvalues and eigenfunctions.
  Solving real generalised eigenvalue problem by standard LAPACK (fast)

  Obtaining occupation numbers and chemical potential using ELSI.
  | Chemical potential (Fermi level):    -4.97207034eV
  Highest occupied state (VBM) at     -6.44530357 eV
  | Occupation number:      2.00000000

  Lowest unoccupied state (CBM) at    -0.56191768 eV
  | Occupation number:      0.00000000

  Overall HOMO-LUMO gap:      5.88338589 eV.

  Total energy components:
  | Sum of eigenvalues            :         -31.70965888 Ha        -862.86372017 eV
  | XC energy correction          :          -7.92909476 Ha        -215.76164632 eV
  | XC potential correction       :          10.19248280 Ha         277.35156843 eV
  | Free-atom electrostatic energy:         -25.15149568 Ha        -684.40701971 eV
  | Hartree energy correction     :          -1.96790472 Ha         -53.54941203 eV
  | vdW energy correction         :           0.00000000 Ha           0.00000000 eV
  | Entropy correction            :           0.00000000 Ha           0.00000000 eV
  | ---------------------------
  | Total energy                  :         -56.56567125 Ha       -1539.23022980 eV
  | Total energy, T -> 0          :         -56.56567125 Ha       -1539.23022980 eV  <-- do not rely on this value for anything but (periodic) metals
  | Electronic free energy        :         -56.56567125 Ha       -1539.23022980 eV

  Derived energy quantities:
  | Kinetic energy                :          56.36773086 Ha        1533.84399788 eV
  | Electrostatic energy          :        -105.00430735 Ha       -2857.31258136 eV
  | Energy correction for multipole
  | error in Hartree potential    :          -0.00189606 Ha          -0.05159434 eV
  | Sum of eigenvalues per atom                           :        -215.71593004 eV
  | Total energy (T->0) per atom                          :        -384.80755745 eV  <-- do not rely on this value for anything but (periodic) metals
  | Electronic free energy per atom                       :        -384.80755745 eV

  Self-consistency convergence accuracy:
  | Change of charge density      :  0.2151E-01
  | Change of sum of eigenvalues  :  0.8791E+00 eV
  | Change of total energy        :  0.7244E-02 eV

  End self-consistency iteration #     5       :  max(cpu_time)    wall_clock(cpu1)
  | Time for this iteration                    :        0.440 s           0.438 s
  | Charge density update                      :        0.136 s           0.136 s
  | Density mixing                             :        0.012 s           0.011 s
  | Hartree multipole update                   :        0.016 s           0.015 s
  | Hartree multipole summation                :        0.116 s           0.115 s
  | Integration                                :        0.160 s           0.158 s
  | Solution of K.-S. eqns.                    :        0.004 s           0.002 s
  | Total energy evaluation                    :        0.000 s           0.001 s

  Partial memory accounting:
  | Current value for overall tracked memory usage on task 0  :           0.124 MB
  | Peak value for overall tracked memory usage on task 0     :           0.661 MB after allocating gradient_basis_wave
  | Largest tracked array allocation on task 0 so far         :           0.403 MB  when allocating gradient_basis_wave
  Note:  These values currently only include a subset of arrays which are explicitly tracked.
  The "true" memory usage will be greater.
------------------------------------------------------------

------------------------------------------------------------
          Begin self-consistency iteration #    6

  Date     :  20180214, Time     :  152451.810
------------------------------------------------------------
  Evaluating new KS density.
  Integration grid: deviation in total charge (<rho> - N_e) =  -7.105427E-15
  Pulay mixing of updated and previous charge densities.

  Evaluating partitioned Hartree potential by multipole expansion.
  | Analytical far-field extrapolation by fixed multipoles:
  | Hartree multipole sum: apparent total charge =  -0.276776E-06
  Summing up the Hartree potential.
  Time summed over all CPUs for potential: real work        0.901 s, elapsed        0.952 s
  | RMS charge density error from multipole expansion :   0.350673E-02

  Integrating Hamiltonian matrix: batch-based integration.
  Time summed over all CPUs for integration: real work        1.172 s, elapsed        1.299 s

  Updating Kohn-Sham eigenvalues, eigenvectors, occupation numbers, and Fermi level.
  Solving generalized eigenproblem
  Updating Kohn-Sham eigenvalues and eigenfunctions.
  Solving real generalised eigenvalue problem by standard LAPACK (fast)

  Obtaining occupation numbers and chemical potential using ELSI.
  | Chemical potential (Fermi level):    -4.90971944eV
  Highest occupied state (VBM) at     -6.27951701 eV
  | Occupation number:      2.00000000

  Lowest unoccupied state (CBM) at    -0.51272276 eV
  | Occupation number:      0.00000000

  Overall HOMO-LUMO gap:      5.76679426 eV.

  Total energy components:
  | Sum of eigenvalues            :         -31.65711284 Ha        -861.43386957 eV
  | XC energy correction          :          -7.93721967 Ha        -215.98273638 eV
  | XC potential correction       :          10.20311007 Ha         277.64075121 eV
  | Free-atom electrostatic energy:         -25.15149568 Ha        -684.40701971 eV
  | Hartree energy correction     :          -2.02272649 Ha         -55.04118820 eV
  | vdW energy correction         :           0.00000000 Ha           0.00000000 eV
  | Entropy correction            :           0.00000000 Ha           0.00000000 eV
  | ---------------------------
  | Total energy                  :         -56.56544461 Ha       -1539.22406266 eV
  | Total energy, T -> 0          :         -56.56544461 Ha       -1539.22406266 eV  <-- do not rely on this value for anything but (periodic) metals
  | Electronic free energy        :         -56.56544461 Ha       -1539.22406266 eV

  Derived energy quantities:
  | Kinetic energy                :          56.36161494 Ha        1533.67757515 eV
  | Electrostatic energy          :        -104.98983988 Ha       -2856.91890144 eV
  | Energy correction for multipole
  | error in Hartree potential    :          -0.00192558 Ha          -0.05239782 eV
  | Sum of eigenvalues per atom                           :        -215.35846739 eV
  | Total energy (T->0) per atom                          :        -384.80601567 eV  <-- do not rely on this value for anything but (periodic) metals
  | Electronic free energy per atom                       :        -384.80601567 eV

  Self-consistency convergence accuracy:
  | Change of charge density      :  0.1545E-01
  | Change of sum of eigenvalues  :  0.1430E+01 eV
  | Change of total energy        :  0.6167E-02 eV

  End self-consistency iteration #     6       :  max(cpu_time)    wall_clock(cpu1)
  | Time for this iteration                    :        0.444 s           0.441 s
  | Charge density update                      :        0.136 s           0.135 s
  | Density mixing                             :        0.012 s           0.012 s
  | Hartree multipole update                   :        0.016 s           0.016 s
  | Hartree multipole summation                :        0.116 s           0.116 s
  | Integration                                :        0.160 s           0.159 s
  | Solution of K.-S. eqns.                    :        0.004 s           0.001 s
  | Total energy evaluation                    :        0.000 s           0.001 s

  Partial memory accounting:
  | Current value for overall tracked memory usage on task 0  :           0.124 MB
  | Peak value for overall tracked memory usage on task 0     :           0.661 MB after allocating gradient_basis_wave
  | Largest tracked array allocation on task 0 so far         :           0.403 MB  when allocating gradient_basis_wave
  Note:  These values currently only include a subset of arrays which are explicitly tracked.
  The "true" memory usage will be greater.
------------------------------------------------------------

------------------------------------------------------------
          Begin self-consistency iteration #    7

  Date     :  20180214, Time     :  152452.252
------------------------------------------------------------
  Evaluating new KS density.
  Integration grid: deviation in total charge (<rho> - N_e) =  -1.776357E-15
  Pulay mixing of updated and previous charge densities.

  Evaluating partitioned Hartree potential by multipole expansion.
  | Analytical far-field extrapolation by fixed multipoles:
  | Hartree multipole sum: apparent total charge =  -0.296970E-06
  Summing up the Hartree potential.
  Time summed over all CPUs for potential: real work        0.892 s, elapsed        0.917 s
  | RMS charge density error from multipole expansion :   0.354866E-02

  Integrating Hamiltonian matrix: batch-based integration.
  Time summed over all CPUs for integration: real work        1.156 s, elapsed        1.263 s

  Updating Kohn-Sham eigenvalues, eigenvectors, occupation numbers, and Fermi level.
  Solving generalized eigenproblem
  Updating Kohn-Sham eigenvalues and eigenfunctions.
  Solving real generalised eigenvalue problem by standard LAPACK (fast)

  Obtaining occupation numbers and chemical potential using ELSI.
  | Chemical potential (Fermi level):    -4.86618836eV
  Highest occupied state (VBM) at     -6.16795315 eV
  | Occupation number:      2.00000000

  Lowest unoccupied state (CBM) at    -0.47567073 eV
  | Occupation number:      0.00000000

  Overall HOMO-LUMO gap:      5.69228242 eV.

  Total energy components:
  | Sum of eigenvalues            :         -31.61880727 Ha        -860.39152202 eV
  | XC energy correction          :          -7.94322433 Ha        -216.14613129 eV
  | XC potential correction       :          10.21097107 Ha         277.85465996 eV
  | Free-atom electrostatic energy:         -25.15149568 Ha        -684.40701971 eV
  | Hartree energy correction     :          -2.06284873 Ha         -56.13296998 eV
  | vdW energy correction         :           0.00000000 Ha           0.00000000 eV
  | Entropy correction            :           0.00000000 Ha           0.00000000 eV
  | ---------------------------
  | Total energy                  :         -56.56540493 Ha       -1539.22298304 eV
  | Total energy, T -> 0          :         -56.56540493 Ha       -1539.22298304 eV  <-- do not rely on this value for anything but (periodic) metals
  | Electronic free energy        :         -56.56540493 Ha       -1539.22298304 eV

  Derived energy quantities:
  | Kinetic energy                :          56.36375231 Ha        1533.73573606 eV
  | Electrostatic energy          :        -104.98593292 Ha       -2856.81258781 eV
  | Energy correction for multipole
  | error in Hartree potential    :          -0.00194259 Ha          -0.05286050 eV
  | Sum of eigenvalues per atom                           :        -215.09788051 eV
  | Total energy (T->0) per atom                          :        -384.80574576 eV  <-- do not rely on this value for anything but (periodic) metals
  | Electronic free energy per atom                       :        -384.80574576 eV

  Self-consistency convergence accuracy:
  | Change of charge density      :  0.6180E-02
  | Change of sum of eigenvalues  :  0.1042E+01 eV
  | Change of total energy        :  0.1080E-02 eV

  End self-consistency iteration #     7       :  max(cpu_time)    wall_clock(cpu1)
  | Time for this iteration                    :        0.436 s           0.435 s
  | Charge density update                      :        0.140 s           0.136 s
  | Density mixing                             :        0.016 s           0.013 s
  | Hartree multipole update                   :        0.016 s           0.015 s
  | Hartree multipole summation                :        0.112 s           0.113 s
  | Integration                                :        0.156 s           0.154 s
  | Solution of K.-S. eqns.                    :        0.004 s           0.003 s
  | Total energy evaluation                    :        0.004 s           0.001 s

  Partial memory accounting:
  | Current value for overall tracked memory usage on task 0  :           0.124 MB
  | Peak value for overall tracked memory usage on task 0     :           0.661 MB after allocating gradient_basis_wave
  | Largest tracked array allocation on task 0 so far         :           0.403 MB  when allocating gradient_basis_wave
  Note:  These values currently only include a subset of arrays which are explicitly tracked.
  The "true" memory usage will be greater.
------------------------------------------------------------

------------------------------------------------------------
          Begin self-consistency iteration #    8

  Date     :  20180214, Time     :  152452.688
------------------------------------------------------------
  Evaluating new KS density.
  Integration grid: deviation in total charge (<rho> - N_e) =   3.552714E-15
  Pulay mixing of updated and previous charge densities.

  Evaluating partitioned Hartree potential by multipole expansion.
  | Analytical far-field extrapolation by fixed multipoles:
  | Hartree multipole sum: apparent total charge =  -0.292211E-06
  Summing up the Hartree potential.
  Time summed over all CPUs for potential: real work        0.888 s, elapsed        0.974 s
  | RMS charge density error from multipole expansion :   0.354776E-02

  Integrating Hamiltonian matrix: batch-based integration.
  Time summed over all CPUs for integration: real work        1.164 s, elapsed        1.232 s

  Updating Kohn-Sham eigenvalues, eigenvectors, occupation numbers, and Fermi level.
  Solving generalized eigenproblem
  Updating Kohn-Sham eigenvalues and eigenfunctions.
  Solving real generalised eigenvalue problem by standard LAPACK (fast)

  Obtaining occupation numbers and chemical potential using ELSI.
  | Chemical potential (Fermi level):    -4.86893567eV
  Highest occupied state (VBM) at     -6.17499176 eV
  | Occupation number:      2.00000000

  Lowest unoccupied state (CBM) at    -0.47801618 eV
  | Occupation number:      0.00000000

  Overall HOMO-LUMO gap:      5.69697559 eV.

  Total energy components:
  | Sum of eigenvalues            :         -31.62073791 Ha        -860.44405738 eV
  | XC energy correction          :          -7.94299128 Ha        -216.13978968 eV
  | XC potential correction       :          10.21065888 Ha         277.84616466 eV
  | Free-atom electrostatic energy:         -25.15149568 Ha        -684.40701971 eV
  | Hartree energy correction     :          -2.06083860 Ha         -56.07827156 eV
  | vdW energy correction         :           0.00000000 Ha           0.00000000 eV
  | Entropy correction            :           0.00000000 Ha           0.00000000 eV
  | ---------------------------
  | Total energy                  :         -56.56540459 Ha       -1539.22297367 eV
  | Total energy, T -> 0          :         -56.56540459 Ha       -1539.22297367 eV  <-- do not rely on this value for anything but (periodic) metals
  | Electronic free energy        :         -56.56540459 Ha       -1539.22297367 eV

  Derived energy quantities:
  | Kinetic energy                :          56.36522017 Ha        1533.77567838 eV
  | Electrostatic energy          :        -104.98763348 Ha       -2856.85886237 eV
  | Energy correction for multipole
  | error in Hartree potential    :          -0.00194332 Ha          -0.05288047 eV
  | Sum of eigenvalues per atom                           :        -215.11101434 eV
  | Total energy (T->0) per atom                          :        -384.80574342 eV  <-- do not rely on this value for anything but (periodic) metals
  | Electronic free energy per atom                       :        -384.80574342 eV

  Self-consistency convergence accuracy:
  | Change of charge density      :  0.4911E-03
  | Change of sum of eigenvalues  : -0.5254E-01 eV
  | Change of total energy        :  0.9371E-05 eV

  End self-consistency iteration #     8       :  max(cpu_time)    wall_clock(cpu1)
  | Time for this iteration                    :        0.448 s           0.448 s
  | Charge density update                      :        0.132 s           0.132 s
  | Density mixing                             :        0.016 s           0.019 s
  | Hartree multipole update                   :        0.024 s           0.023 s
  | Hartree multipole summation                :        0.124 s           0.121 s
  | Integration                                :        0.152 s           0.150 s
  | Solution of K.-S. eqns.                    :        0.004 s           0.001 s
  | Total energy evaluation                    :        0.000 s           0.000 s

  Partial memory accounting:
  | Current value for overall tracked memory usage on task 0  :           0.124 MB
  | Peak value for overall tracked memory usage on task 0     :           0.661 MB after allocating gradient_basis_wave
  | Largest tracked array allocation on task 0 so far         :           0.403 MB  when allocating gradient_basis_wave
  Note:  These values currently only include a subset of arrays which are explicitly tracked.
  The "true" memory usage will be greater.
------------------------------------------------------------

------------------------------------------------------------
          Begin self-consistency iteration #    9

  Date     :  20180214, Time     :  152453.137
------------------------------------------------------------
  Evaluating new KS density.
  Integration grid: deviation in total charge (<rho> - N_e) =  -3.552714E-15
  Pulay mixing of updated and previous charge densities.

  Evaluating partitioned Hartree potential by multipole expansion.
  | Analytical far-field extrapolation by fixed multipoles:
  | Hartree multipole sum: apparent total charge =  -0.290836E-06
  Summing up the Hartree potential.
  Time summed over all CPUs for potential: real work        0.901 s, elapsed        0.968 s
  | RMS charge density error from multipole expansion :   0.354862E-02

  Integrating Hamiltonian matrix: batch-based integration.
  Time summed over all CPUs for integration: real work        1.170 s, elapsed        1.245 s

  Updating Kohn-Sham eigenvalues, eigenvectors, occupation numbers, and Fermi level.
  Solving generalized eigenproblem
  Updating Kohn-Sham eigenvalues and eigenfunctions.
  Solving real generalised eigenvalue problem by standard LAPACK (fast)

  Obtaining occupation numbers and chemical potential using ELSI.
  | Chemical potential (Fermi level):    -4.86918099eV
  Highest occupied state (VBM) at     -6.17572291 eV
  | Occupation number:      2.00000000

  Lowest unoccupied state (CBM) at    -0.47811779 eV
  | Occupation number:      0.00000000

  Overall HOMO-LUMO gap:      5.69760512 eV.

  Total energy components:
  | Sum of eigenvalues            :         -31.62093622 Ha        -860.44945360 eV
  | XC energy correction          :          -7.94299701 Ha        -216.13994585 eV
  | XC potential correction       :          10.21066385 Ha         277.84629997 eV
  | Free-atom electrostatic energy:         -25.15149568 Ha        -684.40701971 eV
  | Hartree energy correction     :          -2.06063951 Ha         -56.07285399 eV
  | vdW energy correction         :           0.00000000 Ha           0.00000000 eV
  | Entropy correction            :           0.00000000 Ha           0.00000000 eV
  | ---------------------------
  | Total energy                  :         -56.56540457 Ha       -1539.22297318 eV
  | Total energy, T -> 0          :         -56.56540457 Ha       -1539.22297318 eV  <-- do not rely on this value for anything but (periodic) metals
  | Electronic free energy        :         -56.56540457 Ha       -1539.22297318 eV

  Derived energy quantities:
  | Kinetic energy                :          56.36542069 Ha        1533.78113493 eV
  | Electrostatic energy          :        -104.98782825 Ha       -2856.86416225 eV
  | Energy correction for multipole
  | error in Hartree potential    :          -0.00194347 Ha          -0.05288451 eV
  | Sum of eigenvalues per atom                           :        -215.11236340 eV
  | Total energy (T->0) per atom                          :        -384.80574329 eV  <-- do not rely on this value for anything but (periodic) metals
  | Electronic free energy per atom                       :        -384.80574329 eV

  Self-consistency convergence accuracy:
  | Change of charge density      :  0.8727E-04
  | Change of sum of eigenvalues  : -0.5396E-02 eV
  | Change of total energy        :  0.4938E-06 eV

  End self-consistency iteration #     9       :  max(cpu_time)    wall_clock(cpu1)
  | Time for this iteration                    :        0.440 s           0.438 s
  | Charge density update                      :        0.132 s           0.132 s
  | Density mixing                             :        0.016 s           0.018 s
  | Hartree multipole update                   :        0.016 s           0.014 s
  | Hartree multipole summation                :        0.120 s           0.119 s
  | Integration                                :        0.152 s           0.152 s
  | Solution of K.-S. eqns.                    :        0.004 s           0.002 s
  | Total energy evaluation                    :        0.000 s           0.001 s

  Partial memory accounting:
  | Current value for overall tracked memory usage on task 0  :           0.124 MB
  | Peak value for overall tracked memory usage on task 0     :           0.661 MB after allocating gradient_basis_wave
  | Largest tracked array allocation on task 0 so far         :           0.403 MB  when allocating gradient_basis_wave
  Note:  These values currently only include a subset of arrays which are explicitly tracked.
  The "true" memory usage will be greater.
------------------------------------------------------------

------------------------------------------------------------
          Begin self-consistency iteration #   10

  Date     :  20180214, Time     :  152453.576
------------------------------------------------------------
  Evaluating new KS density.
  Integration grid: deviation in total charge (<rho> - N_e) =   7.105427E-15
  Pulay mixing of updated and previous charge densities.

  Evaluating partitioned Hartree potential by multipole expansion.
  | Analytical far-field extrapolation by fixed multipoles:
  | Hartree multipole sum: apparent total charge =  -0.291068E-06
  Summing up the Hartree potential.
  Time summed over all CPUs for potential: real work        0.888 s, elapsed        0.980 s
  | RMS charge density error from multipole expansion :   0.354860E-02

  Integrating Hamiltonian matrix: batch-based integration.
  Time summed over all CPUs for integration: real work        1.177 s, elapsed        1.255 s

  Updating Kohn-Sham eigenvalues, eigenvectors, occupation numbers, and Fermi level.
  Solving generalized eigenproblem
  Updating Kohn-Sham eigenvalues and eigenfunctions.
  Solving real generalised eigenvalue problem by standard LAPACK (fast)

  Obtaining occupation numbers and chemical potential using ELSI.
  | Chemical potential (Fermi level):    -4.86911721eV
  Highest occupied state (VBM) at     -6.17539765 eV
  | Occupation number:      2.00000000

  Lowest unoccupied state (CBM) at    -0.47811151 eV
  | Occupation number:      0.00000000

  Overall HOMO-LUMO gap:      5.69728614 eV.

  Total energy components:
  | Sum of eigenvalues            :         -31.62083169 Ha        -860.44660932 eV
  | XC energy correction          :          -7.94300745 Ha        -216.14022980 eV
  | XC potential correction       :          10.21067775 Ha         277.84667827 eV
  | Free-atom electrostatic energy:         -25.15149568 Ha        -684.40701971 eV
  | Hartree energy correction     :          -2.06074750 Ha         -56.07579268 eV
  | vdW energy correction         :           0.00000000 Ha           0.00000000 eV
  | Entropy correction            :           0.00000000 Ha           0.00000000 eV
  | ---------------------------
  | Total energy                  :         -56.56540457 Ha       -1539.22297323 eV
  | Total energy, T -> 0          :         -56.56540457 Ha       -1539.22297323 eV  <-- do not rely on this value for anything but (periodic) metals
  | Electronic free energy        :         -56.56540457 Ha       -1539.22297323 eV

  Derived energy quantities:
  | Kinetic energy                :          56.36541029 Ha        1533.78085197 eV
[...]
  | Electronic free energy        :         -56.56540457 Ha       -1539.22297322 eV

  Derived energy quantities:
  | Kinetic energy                :          56.36540018 Ha        1533.78057683 eV
  | Electrostatic energy          :        -104.98779635 Ha       -2856.86329417 eV
  | Energy correction for multipole
  | error in Hartree potential    :          -0.00194364 Ha          -0.05288920 eV
  | Sum of eigenvalues per atom                           :        -215.11165536 eV
  | Total energy (T->0) per atom                          :        -384.80574331 eV  <-- do not rely on this value for anything but (periodic) metals
  | Electronic free energy per atom                       :        -384.80574331 eV

  atomic forces [eV/Ang]:
  -----------------------
  atom #    1
   Hellmann-Feynman              :  0.333976E-12  0.207490E-04  0.114977E+02
   Ionic forces                  :  0.000000E+00  0.000000E+00  0.000000E+00
   Multipole                     :  0.187706E-12  0.969153E-04 -0.259543E-02
   Pulay + GGA                   :  0.833513E-12 -0.251516E-03 -0.115021E+02
   Van der Waals                 :  0.000000E+00  0.000000E+00  0.000000E+00
   ----------------------------------------------------------------
   Total forces(   1)            :  0.135520E-11 -0.133851E-03 -0.703227E-02
  atom #    2
   Hellmann-Feynman              : -0.551395E-01  0.317353E-01  0.457887E-01
   Ionic forces                  :  0.000000E+00  0.000000E+00  0.000000E+00
   Multipole                     : -0.452602E-02  0.261089E-02  0.311859E-03
   Pulay + GGA                   :  0.550588E-01 -0.317914E-01 -0.452192E-01
   Van der Waals                 :  0.000000E+00  0.000000E+00  0.000000E+00
   ----------------------------------------------------------------
   Total forces(   2)            : -0.460679E-02  0.255486E-02  0.881339E-03
  atom #    3
   Hellmann-Feynman              :  0.551395E-01  0.317353E-01  0.457887E-01
   Ionic forces                  :  0.000000E+00  0.000000E+00  0.000000E+00
   Multipole                     :  0.452602E-02  0.261089E-02  0.311859E-03
   Pulay + GGA                   : -0.550588E-01 -0.317914E-01 -0.452192E-01
   Van der Waals                 :  0.000000E+00  0.000000E+00  0.000000E+00
   ----------------------------------------------------------------
   Total forces(   3)            :  0.460679E-02  0.255486E-02  0.881339E-03
  atom #    4
   Hellmann-Feynman              : -0.221335E-11 -0.637874E-01  0.459152E-01
   Ionic forces                  :  0.000000E+00  0.000000E+00  0.000000E+00
   Multipole                     : -0.341411E-13 -0.522610E-02  0.317214E-03
   Pulay + GGA                   :  0.489000E-13  0.635761E-01 -0.452147E-01
   Van der Waals                 :  0.000000E+00  0.000000E+00  0.000000E+00
   ----------------------------------------------------------------
   Total forces(   4)            : -0.219859E-11 -0.543745E-02  0.101772E-02


  Self-consistency convergence accuracy:
  | Change of charge density      :  0.1356E-05
  | Change of sum of eigenvalues  :  0.1120E-03 eV
  | Change of total energy        : -0.2962E-08 eV
  | Change of forces              :  0.5748E+01 eV/A

  Writing Kohn-Sham eigenvalues.

  State    Occupation    Eigenvalue [Ha]    Eigenvalue [eV]
      1       2.00000         -13.982584         -380.48546
      2       2.00000          -0.776340          -21.12528
      3       2.00000          -0.412278          -11.21865
      4       2.00000          -0.412273          -11.21852
      5       2.00000          -0.226942           -6.17540
      6       0.00000          -0.017570           -0.47810
      7       0.00000           0.043477            1.18306
      8       0.00000           0.043477            1.18307
      9       0.00000           0.140564            3.82494
     10       0.00000           0.140567            3.82503
     11       0.00000           0.164821            4.48502
     12       0.00000           0.187158            5.09282
     13       0.00000           0.266342            7.24754

  Highest occupied state (VBM) at     -6.17539505 eV
  | Occupation number:      2.00000000

  Lowest unoccupied state (CBM) at    -0.47810294 eV
  | Occupation number:      0.00000000

  Overall HOMO-LUMO gap:      5.69729211 eV.

  Self-consistency cycle converged.

  End self-consistency iteration #    12       :  max(cpu_time)    wall_clock(cpu1)
  | Time for this iteration                    :        1.248 s           1.247 s
  | Charge density & force component update    :        0.660 s           0.658 s
  | Density mixing                             :        0.016 s           0.015 s
  | Hartree multipole update                   :        0.016 s           0.014 s
  | Hartree multipole summation                :        0.396 s           0.395 s
  | Integration                                :        0.160 s           0.160 s
  | Solution of K.-S. eqns.                    :        0.004 s           0.001 s
  | Total energy evaluation                    :        0.004 s           0.002 s

  Partial memory accounting:
  | Current value for overall tracked memory usage on task 0  :           0.124 MB
  | Peak value for overall tracked memory usage on task 0     :           1.602 MB after allocating hessian_basis_wave
  | Largest tracked array allocation on task 0 so far         :           0.806 MB  when allocating hessian_basis_wave
  Note:  These values currently only include a subset of arrays which are explicitly tracked.
  The "true" memory usage will be greater.
------------------------------------------------------------
  Obtaining max. number of non-zero basis functions in each batch .
  Evaluating KS electron density on previously omitted grid points.
  Evaluating non-empirical van der Waals correction (Tkatchenko/Scheffler 2009).
  Performing Hirshfeld analysis of fragment charges and moments.
  ----------------------------------------------------------------------
  | Atom     1: N
  |   Hirshfeld charge        :     -0.29228297
  |   Free atom volume        :     29.90025371
  |   Hirshfeld volume        :     25.66803976
  |   Hirshfeld dipole vector :     -0.00000000      -0.00000068      -0.08705983
  |   Hirshfeld dipole moment :      0.08705983
  |   Hirshfeld second moments:      0.11320723       0.00000000      -0.00000000
  |                                  0.00000000       0.11320885       0.00000016
  |                                 -0.00000000       0.00000016      -0.04726137
  ----------------------------------------------------------------------
  | Atom     2: H
  |   Hirshfeld charge        :      0.09743069
  |   Free atom volume        :     10.31539447
  |   Hirshfeld volume        :      6.24582631
  |   Hirshfeld dipole vector :      0.08962326      -0.05174186      -0.03832404
  |   Hirshfeld dipole moment :      0.11035525
  |   Hirshfeld second moments:      0.11690340       0.01004519       0.00554119
  |                                  0.01004519       0.12850154      -0.00319857
  |                                  0.00554119      -0.00319857       0.08197968
  ----------------------------------------------------------------------
  | Atom     3: H
  |   Hirshfeld charge        :      0.09743069
  |   Free atom volume        :     10.31539447
  |   Hirshfeld volume        :      6.24582631
  |   Hirshfeld dipole vector :     -0.08962326      -0.05174186      -0.03832404
  |   Hirshfeld dipole moment :      0.11035525
  |   Hirshfeld second moments:      0.11690340      -0.01004519      -0.00554119
  |                                 -0.01004519       0.12850154      -0.00319857
  |                                 -0.00554119      -0.00319857       0.08197968
  ----------------------------------------------------------------------
  | Atom     4: H
  |   Hirshfeld charge        :      0.09742549
  |   Free atom volume        :     10.31539447
  |   Hirshfeld volume        :      6.24589287
  |   Hirshfeld dipole vector :      0.00000000       0.10349115      -0.03832605
  |   Hirshfeld dipole moment :      0.11035988
  |   Hirshfeld second moments:      0.13430105      -0.00000000       0.00000000
  |                                 -0.00000000       0.11109732       0.00639963
  |                                  0.00000000       0.00639963       0.08197849
  ----------------------------------------------------------------------


  Total energy components:
  | Sum of eigenvalues            :         -31.62083213 Ha        -860.44662143 eV
  | XC energy correction          :          -7.94300841 Ha        -216.14025588 eV
  | XC potential correction       :          10.21067894 Ha         277.84671074 eV
  | Free-atom electrostatic energy:         -25.15149568 Ha        -684.40701971 eV
  | Hartree energy correction     :          -2.06074729 Ha         -56.07578694 eV
  | vdW energy correction         :          -0.00000560 Ha          -0.00015236 eV
  | Entropy correction            :           0.00000000 Ha           0.00000000 eV
  | ---------------------------
  | Total energy                  :         -56.56541017 Ha       -1539.22312558 eV
  | Total energy, T -> 0          :         -56.56541017 Ha       -1539.22312558 eV  <-- do not rely on this value for anything but (periodic) metals
  | Electronic free energy        :         -56.56541017 Ha       -1539.22312558 eV

  Derived energy quantities:
  | Kinetic energy                :          56.36540018 Ha        1533.78057683 eV
  | Electrostatic energy          :        -104.98779635 Ha       -2856.86329417 eV
  | Energy correction for multipole
  | error in Hartree potential    :          -0.00194364 Ha          -0.05288920 eV
  | Sum of eigenvalues per atom                           :        -215.11165536 eV
  | Total energy (T->0) per atom                          :        -384.80578140 eV  <-- do not rely on this value for anything but (periodic) metals
  | Electronic free energy per atom                       :        -384.80578140 eV

  atomic forces [eV/Ang]:
  -----------------------
  atom #    1
   Hellmann-Feynman              :  0.333976E-12  0.207490E-04  0.114977E+02
   Ionic forces                  :  0.000000E+00  0.000000E+00  0.000000E+00
   Multipole                     :  0.187706E-12  0.969153E-04 -0.259543E-02
   Pulay + GGA                   :  0.833513E-12 -0.251516E-03 -0.115021E+02
   Van der Waals                 :  0.107895E-15 -0.409229E-09  0.101353E-04
   ----------------------------------------------------------------
   Total forces(   1)            :  0.135530E-11 -0.133852E-03 -0.702213E-02
  atom #    2
   Hellmann-Feynman              : -0.551395E-01  0.317353E-01  0.457887E-01
   Ionic forces                  :  0.000000E+00  0.000000E+00  0.000000E+00
   Multipole                     : -0.452602E-02  0.261089E-02  0.311859E-03
   Pulay + GGA                   :  0.550588E-01 -0.317914E-01 -0.452192E-01
   Van der Waals                 :  0.261161E-03 -0.150773E-03 -0.337830E-05
   ----------------------------------------------------------------
   Total forces(   2)            : -0.434563E-02  0.240409E-02  0.877960E-03
  atom #    3
   Hellmann-Feynman              :  0.551395E-01  0.317353E-01  0.457887E-01
   Ionic forces                  :  0.000000E+00  0.000000E+00  0.000000E+00
   Multipole                     :  0.452602E-02  0.261089E-02  0.311859E-03
   Pulay + GGA                   : -0.550588E-01 -0.317914E-01 -0.452192E-01
   Van der Waals                 : -0.261161E-03 -0.150773E-03 -0.337830E-05
   ----------------------------------------------------------------
   Total forces(   3)            :  0.434563E-02  0.240409E-02  0.877960E-03
  atom #    4
   Hellmann-Feynman              : -0.221335E-11 -0.637874E-01  0.459152E-01
   Ionic forces                  :  0.000000E+00  0.000000E+00  0.000000E+00
   Multipole                     : -0.341411E-13 -0.522610E-02  0.317214E-03
   Pulay + GGA                   :  0.489000E-13  0.635761E-01 -0.452147E-01
   Van der Waals                 :  0.193016E-14  0.301547E-03 -0.337872E-05
   ----------------------------------------------------------------
   Total forces(   4)            : -0.219666E-11 -0.513590E-02  0.101434E-02

  Timings for VdW correction (Tkatchenko-Scheffler 2009 or later):
  | CPU time:        0.028 s, Wall clock time:        0.028 s.
  Removing unitary transformations (pure translations, rotations) from forces on atoms.
  Atomic forces before filtering:
  | Net force on center of mass :   0.938033E-12 -0.461576E-03 -0.425187E-02 eV/A
  | Net torque on center of mass:   0.135937E-03  0.238030E-12  0.167922E-13 eV
  Atomic forces after filtering:
  | Net force on center of mass :  -0.340422E-18  0.000000E+00  0.000000E+00 eV/A
  | Net torque on center of mass:  -0.553175E-18 -0.120296E-19  0.692802E-18 eV

  Energy and forces in a compact form:
  | Total energy uncorrected      :         -0.153922312558008E+04 eV
  | Total energy corrected        :         -0.153922312558008E+04 eV  <-- do not rely on this value for anything but (periodic) metals
  | Electronic free energy        :         -0.153922312558008E+04 eV
  Total atomic forces (unitary forces cleaned) [eV/Ang]:
  |   1          0.107268374135685E-11          0.901395885654221E-05         -0.595916310077387E-02
  |   2         -0.434562504021696E-02          0.251032598663357E-02          0.198516077616188E-02
  |   3          0.434562504155348E-02          0.251032599018710E-02          0.198516077564964E-02
  |   4         -0.240920291271116E-11         -0.502966593567721E-02          0.198884154896235E-02

  ------------------------------------ 
  Start decomposition of the XC Energy 
  ------------------------------------ 
  X and C from original XC functional choice 
  Hartree-Fock Energy :          0.000000000 Ha              0.000000000 eV
  X Energy            :         -7.629430723 Ha           -207.607372910 eV
  C Energy            :         -0.313577686 Ha             -8.532882974 eV
  Total XC Energy     :         -7.943008408 Ha           -216.140255884 eV
  ------------------------------------ 
  LDA X and C from self-consistent density 
  X Energy LDA        :         -6.907482446 Ha           -187.962160753 eV
  C Energy LDA        :         -0.622779074 Ha            -16.946680832 eV
  ------------------------------------ 
  End decomposition of the XC Energy 
  ------------------------------------ 

------------------------------------------------------------

------------------------------------------------------------------------------
  Final output of selected total energy values:

  The following output summarizes some interesting total energy values
  at the end of a run (AFTER all relaxation, molecular dynamics, etc.).

  | Total energy of the DFT / Hartree-Fock s.c.f. calculation      :          -1539.223125580 eV
  | Final zero-broadening corrected energy (caution - metals only) :          -1539.223125580 eV
  | For reference only, the value of 1 Hartree used in FHI-aims is :             27.211384500 eV

  Before relying on these values, please be sure to understand exactly which
  total energy value is referred to by a given number. Different objects may
  all carry the same name 'total energy'. Definitions:

  Total energy of the DFT / Hartree-Fock s.c.f. calculation:
  | Note that this energy does not include ANY quantities calculated after the
  | s.c.f. cycle, in particular not ANY RPA, MP2, etc. many-body perturbation terms.

  Final zero-broadening corrected energy:
  | For metallic systems only, a broadening of the occupation numbers at the Fermi
  | level can be extrapolated back to zero broadening by an electron-gas inspired
  | formula. For all systems that are not real metals, this value can be
  | meaningless and should be avoided.

------------------------------------------------------------------------------
  Methods described in the following list of references were used in this FHI-aims run.
  If you publish the results, please make sure to cite these reference if they apply.
  FHI-aims is an academic code, and for our developers (often, Ph.D. students
  and postdocs), scientific credit in the community is essential.
  Thank you for helping us!

  For any use of FHI-aims, please cite:

    Volker Blum, Ralf Gehrke, Felix Hanke, Paula Havu, Ville Havu,
    Xinguo Ren, Karsten Reuter, and Matthias Scheffler
    'Ab initio molecular simulations with numeric atom-centered orbitals'
    Computer Physics Communications 180, 2175-2196 (2009)
    http://dx.doi.org/10.1016/j.cpc.2009.06.022


  For the real-space grid partitioning and parallelization used in this calculation, please cite:

    Ville Havu, Volker Blum, Paula Havu, and Matthias Scheffler,
    'Efficient O(N) integration for all-electron electronic structure calculation'
    'using numerically tabulated basis functions'
    Journal of Computational Physics 228, 8367-8379 (2009).
    http://dx.doi.org/10.1016/j.jcp.2009.08.008

  Of course, there are many other important community references, e.g., those cited in the
  above references. Our list is limited to references that describe implementations in the
  FHI-aims code. The reason is purely practical (length of this list) - please credit others as well.

------------------------------------------------------------
          Leaving FHI-aims.
          Date     :  20180214, Time     :  152455.746

          Computational steps:
          | Number of self-consistency cycles          :           12
          | Number of SCF (re)initializations          :            1

          Detailed time accounting                     :  max(cpu_time)    wall_clock(cpu1)
          | Total time                                 :        6.684 s           6.722 s
          | Preparation time                           :        0.232 s           0.247 s
          | Boundary condition initalization           :        0.000 s           0.003 s
          | Grid partitioning                          :        0.060 s           0.057 s
          | Preloading free-atom quantities on grid    :        0.020 s           0.023 s
          | Free-atom superposition energy             :        0.016 s           0.015 s
          | Total time for integrations                :        2.104 s           2.085 s
          | Total time for solution of K.-S. equations :        0.056 s           0.028 s
          | Total time for density & force components  :        2.152 s           2.129 s
          | Total time for mixing                      :        0.148 s           0.140 s
          | Total time for Hartree multipole update    :        0.200 s           0.188 s
          | Total time for Hartree multipole sum       :        1.696 s           1.684 s
          | Total time for total energy evaluation     :        0.012 s           0.011 s
          | Total time for scaled ZORA corrections     :        0.000 s           0.000 s
          | Total time for vdW correction              :        0.028 s           0.028 s

          Partial memory accounting:
          | Residual value for overall tracked memory usage across tasks :           0.000 MB (should be 0.000 MB)
          | Peak values for overall tracked memory usage (after allocating hessian_basis_wave):
          |   Minimum:        1.602 MB (on task 1)
          |   Maximum:        1.602 MB (on task 1)
          |   Average:        1.602 MB
          | Largest tracked array allocation (hessian_basis_wave):
          |   Minimum:        0.806 MB (on task 1)
          |   Maximum:        0.806 MB (on task 1)
          |   Average:        0.806 MB
          Note:  These values currently only include a subset of arrays which are explicitly tracked.
          The "true" memory usage will be greater.

          Have a nice day.
------------------------------------------------------------
