1 
Energy: 0.0000000000000000e+00 
N	  0.591854000000 	  1.477580000000 	 10.000000000000 	
1 
Energy: 0.0000000000000000e+00 
N	  0.956907714286 	  1.058555714286 	 10.000000000000 	
1 
Energy: 0.0000000000000000e+00 
N	  1.321961428571 	  0.639531428571 	 10.000000000000 	
1 
Energy: 0.0000000000000000e+00 
N	  1.687015142857 	  0.220507142857 	 10.000000000000 	
1 
Energy: 0.0000000000000000e+00 
N	  2.052068857143 	 -0.198517142857 	 10.000000000000 	
1 
Energy: 0.0000000000000000e+00 
N	  2.417122571429 	 -0.617541428571 	 10.000000000000 	
1 
Energy: 0.0000000000000000e+00 
N	  2.782176285714 	 -1.036565714286 	 10.000000000000 	
1 
Energy: 0.0000000000000000e+00 
N	  3.147230000000 	 -1.455590000000 	 10.000000000000 	
