  MPI-parallelism will be employed.
------------------------------------------------------------
          Invoking FHI-aims ...

          When using FHI-aims, please cite the following reference:

          Volker Blum, Ralf Gehrke, Felix Hanke, Paula Havu,
          Ville Havu, Xinguo Ren, Karsten Reuter, and Matthias Scheffler,
          'Ab Initio Molecular Simulations with Numeric Atom-Centered Orbitals',
          Computer Physics Communications 180, 2175-2196 (2009)

          For any questions about FHI-aims, please visit the aimsclub website
          with its forums and wiki. Contributions to both the forums and the
          wiki are warmly encouraged - they are for you, and everyone is welcome there.

------------------------------------------------------------



  Date     :  20190817, Time     :  154005.733
  Time zero on CPU 1             :   0.245470000000000E-01  s.
  Internal wall clock time zero  :           335288405.733  s.

  FHI-aims created a unique identifier for this run for later identification
  aims_uuid : D6209860-19CC-4D4A-AFCB-AB33775F9C2E

  Build configuration of the current instance of FHI-aims
  -------------------------------------------------------
  FHI-aims version      : 190813
  Commit number         : 3da7baeb3
  CMake host system     : Linux-4.4.180-94.97-default
  CMake version         : 3.5.2
  Fortran compiler      : /mpcdf/soft/SLE_12_SP3/packages/x86_64/intel_parallel_studio/2018.4/compilers_and_libraries_2018.5.274/linux/mpi/bin64/mpiifort (Intel) version 18.0.5.20180823
  Fortran compiler flags: -O3 -ip -fp-model precise
  C compiler            : /mpcdf/soft/SLE_12_SP3/packages/skylake/intel/18.0.5/bin/icc (Intel) version 18.0.5.20180823
  C compiler flags      : -O3 -ip -fp-model precise
  Architecture          :
  Using MPI
  Using Scalapack
  Using C files
  Using SPGlib
  Using i-PI
  Linking against: /mpcdf/soft/SLE_12_SP3/packages/x86_64/anaconda/3.5.1.0/lib/libmkl_intel_lp64.so
                   /mpcdf/soft/SLE_12_SP3/packages/x86_64/anaconda/3.5.1.0/lib/libmkl_sequential.so
                   /mpcdf/soft/SLE_12_SP3/packages/x86_64/anaconda/3.5.1.0/lib/libmkl_core.so
                   /mpcdf/soft/SLE_12_SP3/packages/x86_64/anaconda/3.5.1.0/lib/libmkl_blacs_intelmpi_lp64.so
                   /mpcdf/soft/SLE_12_SP3/packages/x86_64/anaconda/3.5.1.0/lib/libmkl_scalapack_lp64.so

  Using        8 parallel tasks.
  Task        0 on host co1631 reporting.
  Task        1 on host co1631 reporting.
  Task        2 on host co1631 reporting.
  Task        3 on host co1631 reporting.
  Task        4 on host co1631 reporting.
  Task        5 on host co1631 reporting.
  Task        6 on host co1631 reporting.
  Task        7 on host co1631 reporting.

  Performing system and environment tests:
  | Environment variable OMP_NUM_THREADS correctly set to 1.
  | Maximum stacksize for task 0: unlimited
  | Maximum stacksize for task 1: unlimited
  | Maximum stacksize for task 2: unlimited
  | Maximum stacksize for task 3: unlimited
  | Maximum stacksize for task 4: unlimited
  | Maximum stacksize for task 5: unlimited
  | Maximum stacksize for task 6: unlimited
  | Maximum stacksize for task 7: unlimited
  | Current stacksize for task 0: unlimited
  | Current stacksize for task 1: unlimited
  | Current stacksize for task 2: unlimited
  | Current stacksize for task 3: unlimited
  | Current stacksize for task 4: unlimited
  | Current stacksize for task 5: unlimited
  | Current stacksize for task 6: unlimited
  | Current stacksize for task 7: unlimited
  | Checking for scalapack...
  | Testing pdtran()...
  | All pdtran() tests passed.

  Obtaining array dimensions for all initial allocations:
  
  -----------------------------------------------------------------------
  Parsing control.in (first pass over file, find array dimensions only).
  The contents of control.in will be repeated verbatim below
  unless switched off by setting 'verbatim_writeout .false.' .
  in the first line of control.in .
  -----------------------------------------------------------------------
  
  #=====================================================
  #FHI-aims file: ./control.in
  #Created using the Atomic Simulation Environment (ASE)
  #
  #List of parameters used to initialize the calculator:
  #=====================================================
  sc_accuracy_rho                    1E-4
  relativistic                       none
  occupation_type                    gaussian 0.01
  n_max_pulay                        10
  mixer                              pulay
  sc_accuracy_etot                   1E-6
  sc_accuracy_eev                    1E-2
  charge                             0
  xc                                 b3lyp
  default_initial_moment             0
  spin                               collinear
  charge_mix_param                   0.5
  k_grid 1 1 1
  ##################
  KS_method serial
  density_update_method density_matrix
  ##################
  restart                 h_kv
  ################################################################################
  #
  #  FHI-aims code project
  #  VB, Fritz-Haber Institut, 2009
  #
  #  Suggested "light" defaults for O atom (to be pasted into control.in file)
  #  Be sure to double-check any results obtained with these settings for post-processing,
  #  e.g., with the "tight" defaults and larger basis sets.
  #
  ################################################################################
    species        O
  #     global species definitions
      nucleus             8
      mass                15.9994
  #
      l_hartree           4
  #
      cut_pot             3.5  1.5  1.0
      basis_dep_cutoff    1e-4
  #
      radial_base         36 5.0
      radial_multiplier   1
       angular_grids specified
        division   0.2659   50
        division   0.4451  110
        division   0.6052  194
        division   0.7543  302
  #      division   0.8014  434
  #      division   0.8507  590
  #      division   0.8762  770
  #      division   0.9023  974
  #      division   1.2339 1202
  #      outer_grid 974
        outer_grid 302
  ################################################################################
  #
  #  Definition of "minimal" basis
  #
  ################################################################################
  #     valence basis states
      valence      2  s   2.
      valence      2  p   4.
  #     ion occupancy
      ion_occ      2  s   1.
      ion_occ      2  p   3.
  ################################################################################
  #
  #  Suggested additional basis functions. For production calculations,
  #  uncomment them one after another (the most important basis functions are
  #  listed first).
  #
  #  Constructed for dimers: 1.0 A, 1.208 A, 1.5 A, 2.0 A, 3.0 A
  #
  ################################################################################
  #  "First tier" - improvements: -699.05 meV to -159.38 meV
       hydro 2 p 1.8
       hydro 3 d 7.6
       hydro 3 s 6.4
  #  "Second tier" - improvements: -49.91 meV to -5.39 meV
  #     hydro 4 f 11.6
  #     hydro 3 p 6.2
  #     hydro 3 d 5.6
  #     hydro 5 g 17.6
  #     hydro 1 s 0.75
  #  "Third tier" - improvements: -2.83 meV to -0.50 meV
  #     ionic 2 p auto
  #     hydro 4 f 10.8
  #     hydro 4 d 4.7
  #     hydro 2 s 6.8
  #  "Fourth tier" - improvements: -0.40 meV to -0.12 meV
  #     hydro 3 p 5
  #     hydro 3 s 3.3
  #     hydro 5 g 15.6
  #     hydro 4 f 17.6
  #     hydro 4 d 14
  # Further basis functions - -0.08 meV and below
  #     hydro 3 s 2.1
  #     hydro 4 d 11.6
  #     hydro 3 p 16
  #     hydro 2 s 17.2
  ################################################################################
  #
  #  FHI-aims code project
  #  VB, Fritz-Haber Institut, 2009
  #
  #  Suggested "light" defaults for H atom (to be pasted into control.in file)
  #  Be sure to double-check any results obtained with these settings for post-processing,
  #  e.g., with the "tight" defaults and larger basis sets.
  #
  ################################################################################
    species        H
  #     global species definitions
      nucleus             1
      mass                1.00794
  #
      l_hartree           4
  #
      cut_pot             3.5  1.5  1.0
      basis_dep_cutoff    1e-4
  #
      radial_base         24 5.0
      radial_multiplier   1
      angular_grids       specified
        division   0.2421   50
        division   0.3822  110
        division   0.4799  194
        division   0.5341  302
  #      division   0.5626  434
  #      division   0.5922  590
  #      division   0.6542  770
  #      division   0.6868 1202
  #      outer_grid  770
        outer_grid  302
  ################################################################################
  #
  #  Definition of "minimal" basis
  #
  ################################################################################
  #     valence basis states
      valence      1  s   1.
  #     ion occupancy
      ion_occ      1  s   0.5
  ################################################################################
  #
  #  Suggested additional basis functions. For production calculations,
  #  uncomment them one after another (the most important basis functions are
  #  listed first).
  #
  #  Basis constructed for dimers: 0.5 A, 0.7 A, 1.0 A, 1.5 A, 2.5 A
  #
  ################################################################################
  #  "First tier" - improvements: -1014.90 meV to -62.69 meV
       hydro 2 s 2.1
       hydro 2 p 3.5
  #  "Second tier" - improvements: -12.89 meV to -1.83 meV
  #     hydro 1 s 0.85
  #     hydro 2 p 3.7
  #     hydro 2 s 1.2
  #     hydro 3 d 7
  #  "Third tier" - improvements: -0.25 meV to -0.12 meV
  #     hydro 4 f 11.2
  #     hydro 3 p 4.8
  #     hydro 4 d 9
  #     hydro 3 s 3.2
  
  -----------------------------------------------------------------------
  Completed first pass over input file control.in .
  -----------------------------------------------------------------------
  
  
  -----------------------------------------------------------------------
  Parsing geometry.in (first pass over file, find array dimensions only).
  The contents of geometry.in will be repeated verbatim below
  unless switched off by setting 'verbatim_writeout .false.' .
  in the first line of geometry.in .
  -----------------------------------------------------------------------
  
  #=======================================================
  #FHI-aims file: geometry.in
  #Created using the Atomic Simulation Environment (ASE)
  #=======================================================
  lattice_vector 11.2469500000000000 0.0000000000000000 0.0000000000000000
  lattice_vector 0.0000000000000000 10.5616000000000003 0.0000000000000000
  lattice_vector 0.0000000000000000 0.0000000000000000 10.7388999999999992
  atom 5.2789400000000004 5.0000000000000000 5.7388999999999992 O
  atom 6.2469500000000000 5.0280600000000000 5.7019799999999989 H
  atom 5.0000000000000000 5.5616000000000003 5.0000000000000000 H
  
  -----------------------------------------------------------------------
  Completed first pass over input file geometry.in .
  -----------------------------------------------------------------------
  

  Basic array size parameters:
  | Number of species                 :        2
  | Number of atoms                   :        3
  | Number of lattice vectors         :        3
  | Max. basis fn. angular momentum   :        2
  | Max. atomic/ionic basis occupied n:        2
  | Max. number of basis fn. types    :        2
  | Max. radial fns per species/type  :        3
  | Max. logarithmic grid size        :     1301
  | Max. radial integration grid size :       36
  | Max. angular integration grid size:      302
  | Max. angular grid division number :        8
  | Radial grid for Hartree potential :     1301
  | Number of spin channels           :        2

------------------------------------------------------------
          Reading file control.in.
------------------------------------------------------------
  Convergence accuracy of self-consistent charge density:  0.1000E-03
  Non-relativistic treatment of kinetic energy.
  Occupation type: Gaussian broadening, width =   0.100000E-01 eV.
  Pulay mixing - number of memorized iterations:   10
  Using pulay charge density mixing.
  Convergence accuracy of total energy:  0.1000E-05
  Convergence accuracy of sum of eigenvalues:  0.1000E-01
  Charge =   0.000000E+00: Neutral system requested explicitly.
  XC: Using hybrid B3LYP functional.
  | This version of B3LYP uses the RPA parametrization of LDA given by
  | Vosko, Wilk, Nusair. This choice differs from Becke's original paper,
  | and goes back to a now de facto standard (originally, erroneous)
  | implementation in the Gaussian suite of codes.
  Initial spin moment per atom:   0.0000
  Spin treatment: Spin density functional theory - collinear spins.
  Charge density mixing - mixing parameter:     0.5000
  Found k-point grid:         1         1         1
  Kohn-Sham eigenvalues and eigenfunctions calculated by LAPACK via ELSI.
  Restart file specified as : h_kv000
  | Reading information from existing file.
 
  Reading configuration options for species O                   .
  | Found nuclear charge :   8.0000
  | Found atomic mass :    15.9994000000000      amu
  | Found l_max for Hartree potential  :   4
  | Found cutoff potl. onset [A], width [A], scale factor :    3.50000    1.50000    1.00000
  | Threshold for basis-dependent cutoff potential is   0.100000E-03
  | Found data for basic radial integration grid :    36 points, outermost radius =    5.000 A
  | Found multiplier for basic radial grid :   1
  | Found angular grid specification: user-specified.
  | Specified grid contains     5 separate shells.
  | Check grid settings after all constraints further below.
  | Found free-atom valence shell :  2 s   2.000
  | Found free-atom valence shell :  2 p   4.000
  | No ionic wave fns used. Skipping ion_occ.
  | No ionic wave fns used. Skipping ion_occ.
  | Found hydrogenic basis function :  2 p   1.800
  | Found hydrogenic basis function :  3 d   7.600
  | Found hydrogenic basis function :  3 s   6.400
  Species O                   : Missing cutoff potential type.
  Defaulting to exp(1/x)/(1-x)^2 type cutoff potential.
  Species O : No 'logarithmic' tag. Using default grid for free atom:
  | Default logarithmic grid data [bohr] : 0.1000E-03 0.1000E+03 0.1012E+01
  Species O : On-site basis accuracy parameter (for Gram-Schmidt orthonormalisation) not specified.
  Using default value basis_acc =  0.1000000E-03.
  Species O                   : Using default innermost maximum threshold i_radial=  2 for radial functions.
  Species O                   : Default cutoff onset for free atom density etc. : 0.35000000E+01 AA.
  Species O                   : Basic radial grid will be enhanced according to radial_multiplier =   1, to contain    36 grid points.
 
  Reading configuration options for species H                   .
  | Found nuclear charge :   1.0000
  | Found atomic mass :    1.00794000000000      amu
  | Found l_max for Hartree potential  :   4
  | Found cutoff potl. onset [A], width [A], scale factor :    3.50000    1.50000    1.00000
  | Threshold for basis-dependent cutoff potential is   0.100000E-03
  | Found data for basic radial integration grid :    24 points, outermost radius =    5.000 A
  | Found multiplier for basic radial grid :   1
  | Found angular grid specification: user-specified.
  | Specified grid contains     5 separate shells.
  | Check grid settings after all constraints further below.
  | Found free-atom valence shell :  1 s   1.000
  | No ionic wave fns used. Skipping ion_occ.
  | Found hydrogenic basis function :  2 s   2.100
  | Found hydrogenic basis function :  2 p   3.500
  Species H                   : Missing cutoff potential type.
  Defaulting to exp(1/x)/(1-x)^2 type cutoff potential.
  Species H : No 'logarithmic' tag. Using default grid for free atom:
  | Default logarithmic grid data [bohr] : 0.1000E-03 0.1000E+03 0.1012E+01
  Species H : On-site basis accuracy parameter (for Gram-Schmidt orthonormalisation) not specified.
  Using default value basis_acc =  0.1000000E-03.
  Species H                   : Using default innermost maximum threshold i_radial=  2 for radial functions.
  Species H                   : Default cutoff onset for free atom density etc. : 0.35000000E+01 AA.
  Species H                   : Basic radial grid will be enhanced according to radial_multiplier =   1, to contain    24 grid points.
 
  Finished reading input file 'control.in'. Consistency checks are next.
 
  MPI_IN_PLACE appears to work with this MPI implementation.
  | Keeping use_mpi_in_place .true. (see manual).
  Explicit treatment of the Coulomb operator is needed, but the RI method is not specified.
  Coulomb operator: Defaulting to 'LVL fast' resolution of identity - RI_type = LVL_fast 
  Species O: Using default value for prodbas_acc =   1.000000E-04.
  Species O: Using default value max_l_prodbas =    20.
  Explicit treatment of the Coulomb operator is needed, but the RI method is not specified.
  Coulomb operator: Defaulting to 'LVL fast' resolution of identity - RI_type = LVL_fast 
  Species H: Using default value for prodbas_acc =   1.000000E-04.
  Species H: Using default value max_l_prodbas =    20.
  Target number of points in a grid batch is not set. Defaulting to  100
  Method for grid partitioning is not set. Defaulting to parallel hash+maxmin partitioning.
  Batch size limit is not set. Defaulting to    200
  By default, will store active basis functions for each batch.
  If in need of memory, prune_basis_once .false. can be used to disable this option.
  communication_type for Hartree potential was not specified.
  Defaulting to calc_hartree .
  Pulay mixer: Number of initial linear mixing iterations not set.
  Defaulting to    0 iterations.
  Work space size for distributed Hartree potential not set.
  Defaulting to   0.200000E+03 MB.
  Mixing parameter for spin density mixing has not been set.
  Using charge_mix_param as default:     0.5000.
  Algorithm-dependent basis array size parameters:
  | n_max_pulay                         :       10
  Maximum number of self-consistency iterations not provided.
  Presetting  1000 iterations.
  Presetting      1001 iterations before the initial mixing cycle
  is restarted anyway using the sc_init_iter criterion / keyword.
  Presetting a factor      1.000 between actual scf density residual
  and density convergence criterion sc_accuracy_rho below which sc_init_iter
  takes no effect.
  Calculation of forces was not defined in control.in. No forces will be calculated.
  Geometry relaxation not requested: no relaxation will be performed.
  No accuracy limit for integral partition fn. given. Defaulting to  0.1000E-14.
  No threshold value for u(r) in integrations given. Defaulting to  0.1000E-05.
  No accuracy for occupation numbers given. Defaulting to  0.1000E-12.
  No threshold value for occupation numbers given. Defaulting to  0.0000E+00.
  No accuracy for fermi level given. Defaulting to  0.1000E-19.
  Maximum # of iterations to find E_F not set. Defaulting to  200.
  Will not use alltoall communication since running on < 1024 CPUs.
  Threshold for basis singularities not set.
  Default threshold for basis singularities:  0.1000E-04
  partition_type (choice of integration weights) for integrals was not specified.
  | Using a version of the partition function of Stratmann and coworkers ('stratmann_sparse').
  | At each grid point, the set of atoms used to build the partition table is smoothly restricted to
  | only those atoms whose free-atom density would be non-zero at that grid point.
  Partitioning for Hartree potential was not defined. Using partition_type for integrals.
  | Adjusted default value of keyword multip_moments_threshold to:       0.10000000E-11
  | This value may affect high angular momentum components of the Hartree potential in periodic systems.
  Threshold for auxiliary basis singularities not set.
  Default threshold for auxiliary basis singularities:  0.1000E-04
  No q(lm)/r^(l+1) cutoff set for long-range Hartree potential.
  | Using default value of  0.100000E-09 .
  | Verify using the multipole_threshold keyword.
  Defaulting to new monopole extrapolation.
  Density update method: density matrix based density update selected.
  Using density matrix based charge density update.
  Using packed matrix style: index .
 * NOTE: You are attempting to run a periodic structure with an exchange treatment
 * which requires a two-electron Coulomb operator (Hartree-Fock or a hybrid functional).
 * The present implementation is reliable to our knowledge, but some things
 * (like band structure output, or perhaps the auxilary basis set for small
 * orbital basis sets - see the "for_aux" keyword) require extra care.
 * Please let us know if you encounter any trouble.
  Coulomb operator: Defaulting to screening threshold for four-center integrals:   0.100000E-06
  Coulomb operator: Defaulting to screening threshold for Coulomb matrix:   0.100000E-09
  Coulomb operator: Defaulting to 'LVL_fast' resolution of identity - RI_type = LVL_fast 
  No other resolution of identity version is supported for periodic boundary conditions at present.
  Coulomb operator: Defaulting to logarithmic spherical Bessel transform integrals (use_logsbt .true.).
  Defaulting to use full k-point grid (no symmetry reduction).
  Charge integration errors on the 3D integration grid will be compensated
  by explicit normalization and distribution of residual charges.
  Use the "compensate_multipole_errors" flag to change this behaviour.
  LVL not implemented with density matrix yet
  -> switching to transformed overlap
  LVL probably works better with logsbt
  Default to 1D ("use_logsbt") integrations for auxiliary 2-center integrals.
  Default onset of logarithmic r-grid for SBT is-38.000000000000
  Default onset of logarithmic k-grid for SBT is-25.000000000000
  Default range of logarithmic r- and k-grid for SBT is 45.000000000000
  Default number of logarithmic r- and k-grid for SBT is  4096
------------------------------------------------------------


------------------------------------------------------------
          Reading geometry description geometry.in.
------------------------------------------------------------
  Input structure read successfully.
  The structure contains        3 atoms,  and a total of         10.000 electrons.

  Input geometry:
  | Unit cell:
  |       11.24695000        0.00000000        0.00000000
  |        0.00000000       10.56160000        0.00000000
  |        0.00000000        0.00000000       10.73890000
  | Atomic structure:
  |       Atom                x [A]            y [A]            z [A]
  |    1: Species O             5.27894000        5.00000000        5.73890000
  |    2: Species H             6.24695000        5.02806000        5.70198000
  |    3: Species H             5.00000000        5.56160000        5.00000000

  Lattice parameters for 3D lattice (in Angstroms) :    11.246950   10.561600   10.738900
  Angle(s) between unit vectors (in degrees)       :    90.000000   90.000000   90.000000

  | The smallest distance between any two atoms is         0.96911057 AA.
  | The first atom of this pair is atom number                      1 .
  | The second atom of this pair is atom number                     3 .
  | Wigner-Seitz cell of the first atom image           0    -1     1 .
  | (The Wigner-Seitz cell of the second atom is 0 0 0  by definition.)

  Symmetry information by spglib:
  | Precision set to  0.1E-04
  | Number of Operations  : 1
  | Space group           : 1
  | International         : P1 X
  | Schoenflies           : C1^1

  Quantities derived from the lattice vectors:
  | Reciprocal lattice vector 1:  0.558657  0.000000  0.000000
  | Reciprocal lattice vector 2:  0.000000  0.594908  0.000000
  | Reciprocal lattice vector 3:  0.000000  0.000000  0.585086
  | Unit cell volume                               :   0.127563E+04  A^3

  Range separation radius for Ewald summation (hartree_convergence_parameter):      5.00000000 bohr.

  Fractional coordinates:
                         L1                L2                L3
       atom_frac         0.46936636        0.47341312        0.53440296  O
       atom_frac         0.55543503        0.47606991        0.53096500  H
       atom_frac         0.44456497        0.52658688        0.46559704  H

  Initial moments and charges:
  |  Atom   Moment         Charge        Species
  |     1   0.000000E+00   0.000000E+00   O
  |     2   0.000000E+00   0.000000E+00   H
  |     3   0.000000E+00   0.000000E+00   H

  Number of empty states per atom not set in control.in - providing a guess from actual geometry.
  | Total number of empty states used during s.c.f. cycle:        6
  If you use a very high smearing, use empty_states (per atom!) in control.in to increase this value.

  Structure-dependent array size parameters: 
  | Number of distinct atom types in initial rho :        2
  | Maximum number of distinct radial functions  :        9
  | Maximum number of basis functions            :       24
  | Number of Kohn-Sham states (occupied + empty):       11
------------------------------------------------------------
  Setting Coulomb cut-width to  1.091868692359 * rcut.
  Setting Coulomb cutting radius rcut to  5.280800000000 A.

------------------------------------------------------------
          Preparing all fixed parts of the calculation.
------------------------------------------------------------
  Determining machine precision:
    2.225073858507201E-308
  Setting up grids for atomic and cluster calculations.

  Creating wave function, potential, and density for free atoms.

  Species: O

  List of occupied orbitals and eigenvalues:
    n    l              occ      energy [Ha]    energy [eV]
    1    0           2.0000       -18.925625      -514.9924
    2    0           2.0000        -0.873671       -23.7738
    2    1           4.0000        -0.331483        -9.0201


  Species: H

  List of occupied orbitals and eigenvalues:
    n    l              occ      energy [Ha]    energy [eV]
    1    0           1.0000        -0.238986        -6.5031

  Spin-polarized or charged system:
  Charge density initialized according to selected moments and charges.

  Creating spin-polarized density from free atoms.

  Species: O
  Charge:   0.000000
  Moment:   0.000000

  List of occupied orbitals and eigenvalues:
    n    l      energy [Ha]    energy [eV]    occupation
  Spin-up
    1    0       -18.906115      -514.4616     1.00000000
    2    0        -0.863247       -23.4902     1.00000000
    2    1        -0.320256        -8.7146     2.00000000
  Spin-down
    1    0       -18.906115      -514.4616     1.00000000
    2    0        -0.863247       -23.4902     1.00000000
    2    1        -0.320256        -8.7146     2.00000000


  Species: H
  Charge:   0.000000
  Moment:   0.000000

  List of occupied orbitals and eigenvalues:
    n    l      energy [Ha]    energy [eV]    occupation
  Spin-up
    1    0        -0.225600        -6.1389     0.50000000
  Spin-down
    1    0        -0.225600        -6.1389     0.50000000

  Creating fixed part of basis set: Ionic, confined, hydrogenic.
 
  O                    hydrogenic:
 
  List of hydrogenic basis orbitals: 
    n    l      effective z      eigenvalue [eV]  inner max. [A]     outer max. [A]     outer radius [A]   
    2    1         1.800000       -10.9749           1.164242           1.164242           4.578029
    3    2         7.600000       -87.3180           0.624125           0.624125           3.251020
    3    0         6.400000       -61.9207           0.061167           1.081902           4.001998
 
 
  H                    hydrogenic:
 
  List of hydrogenic basis orbitals: 
    n    l      effective z      eigenvalue [eV]  inner max. [A]     outer max. [A]     outer radius [A]   
    2    0         2.100000       -14.9728           0.193243           1.317208           4.583499
    2    1         3.500000       -41.6669           0.602369           0.602369           3.723403
 

  Adding cutoff potential to free-atom effective potential.
  Creating atomic-like basis functions for current effective potential.

  Species O                   :

  List of atomic basis orbitals and eigenvalues:
    n    l      energy [Ha]    energy [eV]    outer radius [A]
    1    0       -18.925625      -514.9924       1.415765
    2    0        -0.873671       -23.7738       4.413171
    2    1        -0.331483        -9.0201       4.522403


  Species H                   :

  List of atomic basis orbitals and eigenvalues:
    n    l      energy [Ha]    energy [eV]    outer radius [A]
    1    0        -0.238986        -6.5031       4.527807

  Assembling full basis from fixed parts.
  | Species O :   atomic orbital   1 s accepted.
  | Species O :    hydro orbital   3 s accepted.
  | Species O :   atomic orbital   2 s accepted.
  | Species O :   atomic orbital   2 p accepted.
  | Species O :    hydro orbital   2 p accepted.
  | Species O :    hydro orbital   3 d accepted.
  | Species H :   atomic orbital   1 s accepted.
  | Species H :    hydro orbital   2 s accepted.
  | Species H :    hydro orbital   2 p accepted.
 
  Basis size parameters after reduction:
  | Total number of radial functions:        9
  | Total number of basis functions :       24
 
  Per-task memory consumption for arrays in subroutine allocate_ext:
  |           2.249332MB.
  Testing on-site integration grid accuracy.
  |  Species  Function  <phi|h_atom|phi> (log., in eV)  <phi|h_atom|phi> (rad., in eV)
           1        1               -514.9924452735               -514.9923413190
           1        2                 15.0534524239                 15.0534441557
           1        3                -21.3939094823                -21.3940036057
           1        4                 -9.0202575877                 -9.0204265336
           1        5                  8.1870500376                  8.1678813384
           1        6                 46.0105627030                 46.0105235867
           2        7                 -6.5043476601                 -6.5031260092
           2        8                 13.5140490794                 13.5199100086
           2        9                 25.3329411271                 25.3330836091

  Preparing densities etc. for the partition functions (integrals / Hartree potential).

  Preparations completed.
  max(cpu_time)          :      0.157 s.
  Wall clock time (cpu1) :      0.158 s.
------------------------------------------------------------

------------------------------------------------------------
          Begin self-consistency loop: Initialization.

          Date     :  20190817, Time     :  154005.937
------------------------------------------------------------

  Initializing index lists of integration centers etc. from given atomic structure:
  Mapping all atomic coordinates to central unit cell.

  Initializing the k-points
  | Number of k-points                             :         1
  | Consuming          0 KiB for k_phase_exx.
  The eigenvectors in the calculations are REAL.
  | K-points in task   0:         0
  | K-points in task   1:         1
  | K-points in task   2:         0
  | K-points in task   3:         0
  | K-points in task   4:         0
  | K-points in task   5:         0
  | K-points in task   6:         0
  | K-points in task   7:         0
  | Number of basis functions in the Hamiltonian integrals :       192
  | Number of basis functions in a single unit cell        :        24
  | Number of centers in hartree potential         :       114
  | Number of centers in hartree multipole         :        32
  | Number of centers in electron density summation:         9
  | Number of centers in basis integrals           :        24
  | Number of centers in integrals                 :        24
  | Number of centers in hamiltonian               :         9
  | Consuming          0 KiB for k_phase.
  | Number of super-cells (origin) [n_cells]                     :         343
  | Number of super-cells (after PM_index) [n_cells]             :          19
  | Number of super-cells in hamiltonian [n_cells_in_hamiltonian]:           8
  | Size of matrix packed + index [n_hamiltonian_matrix_size] :         301
  | Estimated reciprocal-space cutoff momentum G_max:         1.84432723 bohr^-1 .
  | Reciprocal lattice points for long-range Hartree potential:     920
  Partitioning the integration grid into batches with parallel hashing+maxmin method.
  | Number of batches:      214
  | Maximal batch size:     101
  | Minimal batch size:      49
  | Average batch size:      74.411
  | Standard deviation of batch sizes:      16.839

  Integration load balanced across     8 MPI tasks.
  Work distribution over tasks is as follows:
  Task     0 has       2003 integration points.
  Task     1 has       1982 integration points.
  Task     2 has       1991 integration points.
  Task     3 has       1991 integration points.
  Task     4 has       1980 integration points.
  Task     5 has       2002 integration points.
  Task     6 has       2009 integration points.
  Task     7 has       1966 integration points.
  Initializing partition tables, free-atom densities, potentials, etc. across the integration grid (initialize_grid_storage).
  | initialize_grid_storage: Actual outermost partition radius vs. multipole_radius_free
  | (-- VB: in principle, multipole_radius_free should be larger, hence this output)
  | Species        1: Confinement radius =              4.999999999999999 AA, multipole_radius_free =              5.048384829883283 AA.
  | Species        1: outer_partition_radius set to              5.048384829883283 AA .
  | Species        2: Confinement radius =              4.999999999999999 AA, multipole_radius_free =              5.054417573612229 AA.
  | Species        2: outer_partition_radius set to              5.054417573612229 AA .
  | The sparse table of interatomic distances needs          0.96 kbyte instead of         4.61 kbyte of memory.
  | Net number of integration points:    15924
  | of which are non-zero points    :    14518
  | Numerical average free-atom electrostatic potential    :     -0.12605696 eV
  Renormalizing the initial density to the exact electron count on the 3D integration grid.
  | Initial density: Formal number of electrons (from input files) :      10.0000000000
  | Integrated number of electrons on 3D grid     :       9.9999440007
  | Charge integration error                      :      -0.0000559993
  | Normalization factor for density and gradient :       1.0000056000
  Renormalizing the free-atom superposition density to the exact electron count on the 3D integration grid.
  | Formal number of electrons (from input files) :      10.0000000000
  | Integrated number of electrons on 3D grid     :       9.9999486097
  | Charge integration error                      :      -0.0000513903
  | Normalization factor for density and gradient :       1.0000051391
  Obtaining max. number of non-zero basis functions in each batch (get_n_compute_maxes).
  | Maximal number of non-zero basis functions:       24 in task     0
  | Maximal number of non-zero basis functions:       24 in task     1
  | Maximal number of non-zero basis functions:       24 in task     2
  | Maximal number of non-zero basis functions:       24 in task     3
  | Maximal number of non-zero basis functions:       24 in task     4
  | Maximal number of non-zero basis functions:       24 in task     5
  | Maximal number of non-zero basis functions:       24 in task     6
  | Maximal number of non-zero basis functions:       24 in task     7
  Allocating        0.000 MB for KS_eigenvector
  Integrating Hamiltonian matrix: batch-based integration.
  Time summed over all CPUs for integration: real work        0.046 s, elapsed        0.048 s
  Integrating overlap matrix.
  Time summed over all CPUs for integration: real work        0.014 s, elapsed        0.015 s

  Reading periodic restart information from file h_kv000
  Writing Kohn-Sham eigenvalues.

  Spin-up eigenvalues:

  State    Occupation    Eigenvalue [Ha]    Eigenvalue [eV]
      1       1.00000         -19.135246         -520.69654
      2       1.00000          -1.018544          -27.71600
      3       1.00000          -0.537742          -14.63271
      4       1.00000          -0.399632          -10.87453
      5       0.14286           0.000000            0.00000
      6       0.14286           0.000000            0.00000
      7       0.14286           0.000000            0.00000
      8       0.14286           0.000000            0.00000
      9       0.14286           0.000000            0.00000
     10       0.14286           0.000000            0.00000
     11       0.14286           0.000000            0.00000

  Spin-down eigenvalues:

  State    Occupation    Eigenvalue [Ha]    Eigenvalue [eV]
      1       1.00000         -19.135246         -520.69654
      2       1.00000          -1.018544          -27.71600
      3       1.00000          -0.537742          -14.63271
      4       1.00000          -0.399632          -10.87453
      5       0.14286           0.000000            0.00000
      6       0.14286           0.000000            0.00000
      7       0.14286           0.000000            0.00000
      8       0.14286           0.000000            0.00000
      9       0.14286           0.000000            0.00000
     10       0.14286           0.000000            0.00000
     11       0.14286           0.000000            0.00000

  Current spin moment of the entire structure :
  | N = N_up - N_down :    0.00
  | S                 :    0.00
  | J                 :    1.00

  Highest occupied state (VBM) at    -10.87452768 eV (relative to internal zero)
  | Occupation number:      1.00000000
  | K-point:       1 at    0.000000    0.000000    0.000000 (in units of recip. lattice)
  | Spin channel:        2

  Lowest unoccupied state (CBM) at     0.00000000 eV (relative to internal zero)
  | Occupation number:      0.14285714
  | K-point:       1 at    0.000000    0.000000    0.000000 (in units of recip. lattice)
  | Spin channel:        1

  ESTIMATED overall HOMO-LUMO gap:     10.87452768 eV between HOMO at k-point 1 and LUMO at k-point 1
  However, this system has fractional occupation numbers. Since we use a finite k-point grid,
  this material is metallic within the approximate finite broadening function (occupation_type)
  applied to determine the occupation numbers.
  Calculating total energy contributions from superposition of free atom densities.

  Total energy components:
  | Sum of eigenvalues            :         -42.18232747 Ha       -1147.83953192 eV
  | XC energy correction          :          -9.08694883 Ha        -247.26845845 eV
  | XC potential correction       :          11.63715067 Ha         316.66298146 eV
  | Free-atom electrostatic energy:         -35.70870679 Ha        -971.68335046 eV
  | Hartree energy correction     :           0.00000000 Ha           0.00000000 eV
  | Entropy correction            :          -0.00041045 Ha          -0.01116886 eV
  | ---------------------------
  | Total energy                  :         -75.34083241 Ha       -2050.12835937 eV
  | Total energy, T -> 0          :         -75.34124286 Ha       -2050.13952823 eV  <-- do not rely on this value for anything but (periodic) metals
  | Electronic free energy        :         -75.34165331 Ha       -2050.15069709 eV

  Derived energy quantities:
  | Kinetic energy                :          76.81960804 Ha        2090.36789147 eV
  | Electrostatic energy          :        -143.07349163 Ha       -3893.22779239 eV
  | Energy correction for multipole
  | error in Hartree potential    :           0.00000000 Ha           0.00000000 eV
  | Sum of eigenvalues per atom                           :        -382.61317731 eV
  | Total energy (T->0) per atom                          :        -683.37984274 eV  <-- do not rely on this value for anything but (periodic) metals
  | Electronic free energy per atom                       :        -683.38356570 eV
  
  --------------------------------------------
  Constructing auxiliary basis (full product) ...
  
  Product basis:
  | charge radius: extent of product basis function
  | field radius: extent of its Coulomb potential
  | Species   l  charge radius    field radius  multipol momen
  |    O      0     2.043000 A      2.043000 A       -1.121072E-17 a.u.
  |    O      3     3.498446 A      3.498446 A       -1.266869E-16 a.u.
  |    O      3     3.498446 A      3.498446 A        1.685373E-16 a.u.
  |    O      0     3.905335 A      3.905335 A       -1.126625E-16 a.u.
  |    O      0     3.905335 A      3.905335 A        3.215067E-17 a.u.
  |    O      0     4.101052 A      4.101052 A        5.502759E-17 a.u.
  |    O      1     4.101052 A      4.101052 A       -8.560402E-17 a.u.
  |    O      0     4.359549 A      4.359549 A        2.291188E-16 a.u.
  |    O      1     4.413171 A      4.413171 A        1.900040E-17 a.u.
  |    O      1     4.522403 A      4.522403 A       -4.785384E-16 a.u.
  |    O      1     4.522403 A      4.522403 A       -7.524555E-16 a.u.
  |    O      2     4.522403 A      4.522403 A       -5.862268E-16 a.u.
  |    O      0     4.578029 A      4.578029 A        2.190532E-16 a.u.
  |    O      1     4.578029 A      4.578029 A        3.355843E-17 a.u.
  |    O      2     4.578029 A      4.578029 A        2.614651E-16 a.u.
  |    O      2     4.522403 A      4.578029 A        1.260507E-15 a.u.
  |    O      2     4.578029 A      4.578029 A        3.185908E-16 a.u.
  |    O      2     4.578029 A      4.578029 A        1.394681E-15 a.u.
  |    O      0     4.578029 A      4.634338 A        4.795876E-16 a.u.
  |    O      1     4.578029 A      4.634338 A        1.172735E-15 a.u.
  |    O      4     3.251020 A  2.395699E+02 A            1.513372 a.u.
  |    O      3     3.541477 A  1.435259E+03 A            4.306319 a.u.
  |    O      2     4.578029 A  2.336891E+04 A            6.853337 a.u.
  |    O      1     4.578029 A  2.641642E+06 A            1.983060 a.u.
  |    O      0     4.578029 A  4.134522E+12 A            0.621748 a.u.
  |    H      1     3.910002 A      3.910002 A        2.297125E-16 a.u.
  |    H      1     3.958095 A      3.958095 A       -5.968857E-17 a.u.
  |    H      0     4.527807 A      4.527807 A       -9.204494E-17 a.u.
  |    H      0     4.527807 A      4.583499 A       -4.994110E-17 a.u.
  |    H      0     4.527807 A      4.583499 A       -1.727059E-16 a.u.
  |    H      2     3.678162 A  1.011968E+04 A            0.556529 a.u.
  |    H      1     3.958095 A  1.722816E+06 A            0.843463 a.u.
  |    H      0     4.527807 A  3.866817E+12 A            0.581490 a.u.

  | Shrink_full_auxil_basis : there are       33  radial auxiliary wave functions
                            accepted and      10 rejected.
  | Shrink_full_auxil_basis : there are totally                 375 partial auxiliary wave functions.
  prodbas_tasks_distribution_pbc not up to date - distributing tasks.
 
  | Number of product basis functions per thread :    47
  Parallel distribution of product basis not up to date - distributing tasks.
 
  | Number of product basis functions per thread :    16
  | Minimal requirement for computer memory :           0.000 Gbs
  -----------------------------------------
  --- Initializing Fock matrix calculations
  -----------------------------------------
  screening_threshold (crit_val) =  0.000000100000
  coul_mat_threshold =  0.000000000100
 Trying to make the workload more even by internally splitting atoms into fractions
 Atom:            1  Basis/atom:    14.0000000000000
 Atom:            2  Basis/atom:    5.00000000000000
 Atom:            3  Basis/atom:    5.00000000000000
 No atoms are split internally
  Number of super-cells in X Y Z:       3       3       3
  Number of atoms pairs total:            9
  Atom pair distribution:
  Cell:       -1       0       0 atom pairs:        1
  Cell:       -1       1      -1 atom pairs:        1
  Cell:        0      -1       1 atom pairs:        1
  Cell:        0       0       0 atom pairs:        3
  Cell:        0       1      -1 atom pairs:        1
  Cell:        1      -1       1 atom pairs:        1
  Cell:        1       0       0 atom pairs:        1
  Number of atoms pairs in BvK cells:            9
  Initializing work distribution for fock matrix calculation
  -----------------------------------------------------
  Dividing atoms among tasks for exact exchange energy:
  Atom:     1 Weight:   89.000
  Atom:     2 Weight:   18.000
  Atom:     3 Weight:   18.000

  Average weight per task:   15.625

  Number of "big" (above average) atoms  :     3
  Number of "small" (below average) atoms:     0
  All atoms have above average work per task
  Atoms will be divided among tasks to get best load distribution

  Atom division among tasks:
  Atom     1: (initial) task:     0, # of tasks:     5
  Atom     2: (initial) task:     5, # of tasks:     2
  Atom     3: (initial) task:     7, # of tasks:     1

  -----------------------------------------------------
  Task     0 : Coulomb matrix distribution changed.
  Task     1 : Coulomb matrix distribution changed.
  Task     2 : Coulomb matrix distribution changed.
  Task     3 : Coulomb matrix distribution changed.
  Task     4 : Coulomb matrix distribution changed.
  Task     5 : Coulomb matrix distribution changed.
  Task     6 : Coulomb matrix distribution changed.
  Task     7 : Coulomb matrix distribution changed.
  Overall Coulomb matrix distribution changed.
  Coulomb matrix subdivision:
  Task     0 atom     1 has Coulomb matrix rows          1 to         17
  Task      0: my_n_atoms:      1 my_atom_list:      1
  Task      1: my_n_atoms:      1 my_atom_list:      1
  Task      2: my_n_atoms:      1 my_atom_list:      1
  Task      3: my_n_atoms:      1 my_atom_list:      1
  Task      4: my_n_atoms:      1 my_atom_list:      1
  Task      5: my_n_atoms:      1 my_atom_list:      2
  Task      6: my_n_atoms:      1 my_atom_list:      2
  Task      7: my_n_atoms:      1 my_atom_list:      3
  Task      0: my_n_atom_pairs:      1
  Task      1: my_n_atom_pairs:      1
  Task      2: my_n_atom_pairs:      1
  Task      3: my_n_atom_pairs:      0
  Task      4: my_n_atom_pairs:      0
  Task      5: my_n_atom_pairs:      1
  Task      6: my_n_atom_pairs:      2
  Task      7: my_n_atom_pairs:      3
  Memory needs for ovlp3fn and Coulomb matrix:
  For Coulomb matrix, this is the upper limit if no compression occurs
  ovlp3fn:        0.140 MB, Coulomb:        0.017 MB
Size of ovlp3fn for atom     196       1      89
  --- Initializing LVL triples
  | Storage requirements for basis-basbas products (processor-local):
  |   Species O: n_prodsfn:   211; storage:        6.59 MiB.
  |   Species H: n_prodsfn:    28; storage:        0.88 MiB.

  --- Initializing Coulomb matrix calculations
  Preparing TB like auxiliary 2-center Coulomb matrix
  SBT integration errors (all should be 'small'):
  large logFT aliasing -> increase N/lnrange
  large SBT aliasing -> decrease lnk0 & increase lnk0+lnrange
  large SBT ringing -> decrease lnr0 & increase lnr0+lnrange
  |            El't  L: logFT-al.   small-k   large-k   small-r   large-r
  | Need to store   869 splines of   209 points taking       1440 KiB.
  | Spline reduction from  4096 to   209 points by (cutting and)     1 x coarsening gives error:  0.00E+00
  Finished with initialize_tb_auxmat/lvl_triples, time:        0.107
  --- Calculating OVLP3FN
  Allocating        4.259 MB for coeff_3fn
  --- Done calculating OVLP3FN, time:        0.124
  Atomic logSBT for LVL-triples                :  max(cpu_time)    wall_clock(cpu1)
  | Multiplication with kernel                 :        0.001 s           0.000 s
  | Main matrix multiplication                 :        0.010 s           0.006 s
  | Analytic angular integration               :        0.001 s           0.000 s
  | Kernel construction                        :        0.002 s           0.000 s
  | Overall 2-center overlap time              :        0.019 s           0.007 s
  | 3-center preparation multiplications       :        0.007 s           0.007 s
  | 3-center preparation SBTs                  :        0.090 s           0.090 s
  | 3-center combinations                      :        0.020 s           0.008 s
  | Overal 3-center time                       :        0.115 s           0.105 s
  | LVL initialization                         :        0.050 s           0.050 s
  | Whole LVL-triples                          :        0.050 s           0.050 s

Compare n_pairs with n_super       0     343
  --- Done getting norm of OVLP3FN, time:        0.000
  --- Calculating Coulomb matrices
  Atomic logSBT for 2-center Coulomb matrix    :  max(cpu_time)    wall_clock(cpu1)
  | TB initialization                          :        0.057 s           0.057 s
  | TB usage                                   :        0.000 s           0.000 s

  Preparing TB like auxiliary 2-center cutCoul matrix
  SBT integration errors (all should be 'small'):
  large logFT aliasing -> increase N/lnrange
  large SBT aliasing -> decrease lnk0 & increase lnk0+lnrange
  large SBT ringing -> decrease lnr0 & increase lnr0+lnrange
  |            El't  L: logFT-al.   small-k   large-k   small-r   large-r
  Initializing cut Coulomb operator.
  | Cut [erfc(-/+1)/2] from    4.8365 A to    5.7659 A within   15 sbt_grid points.

  | Need to store   869 splines of   271 points taking       1856 KiB.
  | Spline reduction from  4096 to   271 points by (cutting and)     1 x coarsening gives error:  0.00E+00
  | Maximum value outside interaction range:  6.66E-16
  Time to calculate Coulomb Matrices   :        0.063
  Number of Coulomb matrix elements:
  | Task     0 total:           2125, > threshold:            836, stored:           1717
  | Task     1 total:           2250, > threshold:            894, stored:           2196
  | Task     2 total:           2250, > threshold:            911, stored:           2196
  | Task     3 total:           2250, > threshold:            886, stored:           2196
  | Task     4 total:           2250, > threshold:            888, stored:           2250
  | Task     5 total:           1125, > threshold:            999, stored:           1098
  | Task     6 total:           1125, > threshold:            993, stored:           1125
  | Task     7 total:           2250, > threshold:           1992, stored:           2250
  --- Done init_fock_matrix_calculations
  Atomic logSBT for 2-center cutCoul matrix    :  max(cpu_time)    wall_clock(cpu1)
  | TB initialization                          :        0.059 s           0.060 s
  | TB usage                                   :        0.002 s           0.002 s

 Reading the Hartree-Fock exchange matrix from disk
  Initialize hartree_potential_storage
  Max. number of atoms included in rho_multipole:            3

  End scf initialization - timings             :  max(cpu_time)    wall_clock(cpu1)
  | Time for scf. initialization               :        0.399 s           0.399 s
  | Boundary condition initialization          :        0.043 s           0.043 s
  | Integration                                :        0.008 s           0.008 s
  | Solution of K.-S. eqns.                    :        0.000 s           0.001 s
  | Grid partitioning                          :        0.009 s           0.009 s
  | Preloading free-atom quantities on grid    :        0.002 s           0.002 s
  | Free-atom superposition energy             :        0.003 s           0.002 s
  | Total energy evaluation                    :        0.000 s           0.001 s
  | Product basis setup: Total time            :        0.329 s           0.329 s

  Partial memory accounting:
  | Current value for overall tracked memory usage:
  |   Minimum:        0.021 MB (on task 5)
  |   Maximum:        0.157 MB (on task 0)
  |   Average:        0.057 MB
  | Peak value for overall tracked memory usage:
  |   Minimum:        4.267 MB (on task 3 after allocating d_coeff_3fn)
  |   Maximum:        4.402 MB (on task 0 after allocating d_coeff_3fn)
  |   Average:        4.301 MB
  | Largest tracked array allocation so far:
  |   Minimum:        4.259 MB (coeff_3fn on task 0)
  |   Maximum:        4.259 MB (coeff_3fn on task 0)
  |   Average:        4.259 MB
  Note:  These values currently only include a subset of arrays which are explicitly tracked.
  The "true" memory usage will be greater.
------------------------------------------------------------

------------------------------------------------------------
          Initial SCF-cycle to compute last known
          density from restart information.

  Date     :  20190817, Time     :  154006.336
------------------------------------------------------------
  Evaluating new KS density using the density matrix
  Evaluating density matrix
  Evaluating density matrix
  Time summed over all CPUs for getting density from density matrix: real work        0.050 s, elapsed        0.053 s
  Integration grid: deviation in total charge (<rho> - N_e) =  -3.552714E-15
  | <rho_up-rho_dn> = N_up-N_dn =     -0.0000; <|rho_up-rho_dn|> =      0.0000
  Renormalizing the density to the exact electron count on the 3D integration grid.
  | Formal number of electrons (from input files) :      10.0000000000
  | Integrated number of electrons on 3D grid     :      10.0000000000
  | Charge integration error                      :      -0.0000000000
  | Normalization factor for density and gradient :       1.0000000000

  Evaluating partitioned Hartree potential by multipole expansion.
  | Original multipole sum: apparent total charge =  -0.101097E-13
  | Sum of charges compensated after spline to logarithmic grids =   0.166390E-03
  | Analytical far-field extrapolation by fixed multipoles:
  | Hartree multipole sum: apparent total charge =  -0.110936E-13
  Summing up the Hartree potential.
  Time summed over all CPUs for potential: real work        0.143 s, elapsed        0.144 s
  | RMS charge density error from multipole expansion :   0.656715E-02
  | Average real-space part of the electrostatic potential :      0.01840338 eV

  Integrating Hamiltonian matrix: batch-based integration.
  Time summed over all CPUs for integration: real work        0.050 s, elapsed        0.052 s

  Updating Kohn-Sham eigenvalues and eigenvectors using ELSI and the (modified) LAPACK eigensolver.

  Obtaining occupation numbers and chemical potential using ELSI.
  | Chemical potential (Fermi level):     0.15189207 eV
  Writing Kohn-Sham eigenvalues.

  Spin-up eigenvalues:

  State    Occupation    Eigenvalue [Ha]    Eigenvalue [eV]
      1       1.00000         -19.135246         -520.69654
      2       1.00000          -1.018544          -27.71600
      3       1.00000          -0.537742          -14.63271
      4       1.00000          -0.399632          -10.87453
      5       1.00000          -0.322213           -8.76787
      6       0.00000           0.019349            0.52650
      7       0.00000           0.122793            3.34138
      8       0.00000           0.325216            8.84958
      9       0.00000           0.363339            9.88694
     10       0.00000           0.397160           10.80729
     11       0.00000           0.623028           16.95345

  Spin-down eigenvalues:

  State    Occupation    Eigenvalue [Ha]    Eigenvalue [eV]
      1       1.00000         -19.135246         -520.69654
      2       1.00000          -1.018544          -27.71600
      3       1.00000          -0.537742          -14.63271
      4       1.00000          -0.399632          -10.87453
      5       1.00000          -0.322213           -8.76787
      6       0.00000           0.019349            0.52650
      7       0.00000           0.122793            3.34138
      8       0.00000           0.325216            8.84958
      9       0.00000           0.363339            9.88694
     10       0.00000           0.397160           10.80729
     11       0.00000           0.623028           16.95345

  Current spin moment of the entire structure :
  | N = N_up - N_down :    0.00
  | S                 :    0.00
  | J                 :    1.00

  Highest occupied state (VBM) at     -8.76786526 eV (relative to internal zero)
  | Occupation number:      1.00000000
  | K-point:       1 at    0.000000    0.000000    0.000000 (in units of recip. lattice)
  | Spin channel:        2

  Lowest unoccupied state (CBM) at     0.52650385 eV (relative to internal zero)
  | Occupation number:      0.00000000
  | K-point:       1 at    0.000000    0.000000    0.000000 (in units of recip. lattice)
  | Spin channel:        1

  ESTIMATED overall HOMO-LUMO gap:      9.29436910 eV between HOMO at k-point 1 and LUMO at k-point 1
  The gap value is above 0.2 eV. Unless you are using a very sparse k-point grid,
  this system is most likely an insulator or a semiconductor.

  Total energy components:
  | Sum of eigenvalues            :         -42.82675386 Ha       -1165.37526626 eV
  | XC energy correction          :          -5.76276692 Ha        -156.81286639 eV
  | XC potential correction       :           9.67164113 Ha         263.17874561 eV
  | Free-atom electrostatic energy:         -35.70870679 Ha        -971.68335046 eV
  | Hartree energy correction     :          -1.84249791 Ha         -50.13691907 eV
  | Entropy correction            :           0.00000000 Ha           0.00000000 eV
  | ---------------------------
  | Total energy                  :         -76.46908435 Ha       -2080.82965657 eV
  | Total energy, T -> 0          :         -76.46908435 Ha       -2080.82965657 eV  <-- do not rely on this value for anything but (periodic) metals
  | Electronic free energy        :         -76.46908435 Ha       -2080.82965657 eV

  Derived energy quantities:
  | Kinetic energy                :          90.48633341 Ha        2462.25841034 eV
  | Electrostatic energy          :        -143.37339543 Ha       -3901.38859005 eV
  | Energy correction for multipole
  | error in Hartree potential    :          -0.00336785 Ha          -0.09164392 eV
  | Sum of eigenvalues per atom                           :        -388.45842209 eV
  | Total energy (T->0) per atom                          :        -693.60988552 eV  <-- do not rely on this value for anything but (periodic) metals
  | Electronic free energy per atom                       :        -693.60988552 eV

  Self-consistency convergence accuracy:
  | Change of charge/spin density :  0.1790E+00  0.1381E-14
  | Change of sum of eigenvalues  : -0.1754E+02 eV
  | Change of total energy        : -0.3070E+02 eV

  End self-consistency iteration #     0       :  max(cpu_time)    wall_clock(cpu1)
  | Time for this iteration                    :        0.039 s           0.038 s
  | Charge density update                      :        0.007 s           0.007 s
  | Density mixing                             :        0.000 s           0.000 s
  | Hartree multipole update                   :        0.001 s           0.001 s
  | Hartree multipole summation                :        0.022 s           0.022 s
  | Integration                                :        0.007 s           0.007 s
  | Fock matrix evaluation                     :        0.000 s           0.000 s
  | Solution of K.-S. eqns.                    :        0.001 s           0.001 s
  | Total energy evaluation                    :        0.000 s           0.000 s

  Partial memory accounting:
  | Current value for overall tracked memory usage:
  |   Minimum:        0.021 MB (on task 5)
  |   Maximum:        0.157 MB (on task 0)
  |   Average:        0.057 MB
  | Peak value for overall tracked memory usage:
  |   Minimum:        4.267 MB (on task 3 after allocating d_coeff_3fn)
  |   Maximum:        4.402 MB (on task 0 after allocating d_coeff_3fn)
  |   Average:        4.301 MB
  | Largest tracked array allocation so far:
  |   Minimum:        4.259 MB (coeff_3fn on task 0)
  |   Maximum:        4.259 MB (coeff_3fn on task 0)
  |   Average:        4.259 MB
  Note:  These values currently only include a subset of arrays which are explicitly tracked.
  The "true" memory usage will be greater.
------------------------------------------------------------

------------------------------------------------------------
          Begin self-consistency iteration #    1

  Date     :  20190817, Time     :  154006.376
------------------------------------------------------------
  Evaluating new KS density using the density matrix
  Evaluating density matrix
  Evaluating density matrix
  Time summed over all CPUs for getting density from density matrix: real work        0.049 s, elapsed        0.052 s
  Integration grid: deviation in total charge (<rho> - N_e) =   0.000000E+00
  | <rho_up-rho_dn> = N_up-N_dn =     -0.0000; <|rho_up-rho_dn|> =      0.0000
  Pulay mixing of updated and previous charge densities.
  Renormalizing the density to the exact electron count on the 3D integration grid.
  | Formal number of electrons (from input files) :      10.0000000000
  | Integrated number of electrons on 3D grid     :      10.0000000000
  | Charge integration error                      :       0.0000000000
  | Normalization factor for density and gradient :       1.0000000000

  Evaluating partitioned Hartree potential by multipole expansion.
  | Original multipole sum: apparent total charge =  -0.287794E-14
  | Sum of charges compensated after spline to logarithmic grids =   0.166390E-03
  | Analytical far-field extrapolation by fixed multipoles:
  | Hartree multipole sum: apparent total charge =  -0.300092E-14
  Summing up the Hartree potential.
  Time summed over all CPUs for potential: real work        0.143 s, elapsed        0.145 s
  | RMS charge density error from multipole expansion :   0.656715E-02
  | Average real-space part of the electrostatic potential :      0.01840338 eV

  Integrating Hamiltonian matrix: batch-based integration.
  Time summed over all CPUs for integration: real work        0.048 s, elapsed        0.049 s

  Updating Kohn-Sham eigenvalues and eigenvectors using ELSI and the (modified) LAPACK eigensolver.

  Obtaining occupation numbers and chemical potential using ELSI.
  | Chemical potential (Fermi level):     0.15189218 eV
  Writing Kohn-Sham eigenvalues.

  Spin-up eigenvalues:

  State    Occupation    Eigenvalue [Ha]    Eigenvalue [eV]
      1       1.00000         -19.135246         -520.69654
      2       1.00000          -1.018544          -27.71600
      3       1.00000          -0.537742          -14.63271
      4       1.00000          -0.399632          -10.87453
      5       1.00000          -0.322213           -8.76786
      6       0.00000           0.019349            0.52650
      7       0.00000           0.122793            3.34138
      8       0.00000           0.325216            8.84958
      9       0.00000           0.363339            9.88695
     10       0.00000           0.397160           10.80729
     11       0.00000           0.623028           16.95345

  Spin-down eigenvalues:

  State    Occupation    Eigenvalue [Ha]    Eigenvalue [eV]
      1       1.00000         -19.135246         -520.69654
      2       1.00000          -1.018544          -27.71600
      3       1.00000          -0.537742          -14.63271
      4       1.00000          -0.399632          -10.87453
      5       1.00000          -0.322213           -8.76786
      6       0.00000           0.019349            0.52650
      7       0.00000           0.122793            3.34138
      8       0.00000           0.325216            8.84958
      9       0.00000           0.363339            9.88695
     10       0.00000           0.397160           10.80729
     11       0.00000           0.623028           16.95345

  Current spin moment of the entire structure :
  | N = N_up - N_down :    0.00
  | S                 :    0.00
  | J                 :    1.00

  Highest occupied state (VBM) at     -8.76786495 eV (relative to internal zero)
  | Occupation number:      1.00000000
  | K-point:       1 at    0.000000    0.000000    0.000000 (in units of recip. lattice)
  | Spin channel:        1

  Lowest unoccupied state (CBM) at     0.52650391 eV (relative to internal zero)
  | Occupation number:      0.00000000
  | K-point:       1 at    0.000000    0.000000    0.000000 (in units of recip. lattice)
  | Spin channel:        2

  ESTIMATED overall HOMO-LUMO gap:      9.29436886 eV between HOMO at k-point 1 and LUMO at k-point 1
  The gap value is above 0.2 eV. Unless you are using a very sparse k-point grid,
  this system is most likely an insulator or a semiconductor.

  Total energy components:
  | Sum of eigenvalues            :         -42.82675372 Ha       -1165.37526242 eV
  | XC energy correction          :          -5.76276694 Ha        -156.81286687 eV
  | XC potential correction       :           9.67164115 Ha         263.17874612 eV
  | Free-atom electrostatic energy:         -35.70870679 Ha        -971.68335046 eV
  | Hartree energy correction     :          -1.84249806 Ha         -50.13692303 eV
  | Entropy correction            :           0.00000000 Ha           0.00000000 eV
  | ---------------------------
  | Total energy                  :         -76.46908435 Ha       -2080.82965666 eV
  | Total energy, T -> 0          :         -76.46908435 Ha       -2080.82965666 eV  <-- do not rely on this value for anything but (periodic) metals
  | Electronic free energy        :         -76.46908435 Ha       -2080.82965666 eV

  Derived energy quantities:
  | Kinetic energy                :          90.48633349 Ha        2462.25841257 eV
  | Electrostatic energy          :        -143.37339553 Ha       -3901.38859276 eV
  | Energy correction for multipole
  | error in Hartree potential    :          -0.00336785 Ha          -0.09164391 eV
  | Sum of eigenvalues per atom                           :        -388.45842081 eV
  | Total energy (T->0) per atom                          :        -693.60988555 eV  <-- do not rely on this value for anything but (periodic) metals
  | Electronic free energy per atom                       :        -693.60988555 eV

  Self-consistency convergence accuracy:
  | Change of charge/spin density :  0.2251E-07  0.5155E-14
  | Change of sum of eigenvalues  :  0.3845E-05 eV
  | Change of total energy        : -0.8612E-07 eV

  Writing Kohn-Sham eigenvalues.

  Spin-up eigenvalues:

  State    Occupation    Eigenvalue [Ha]    Eigenvalue [eV]
      1       1.00000         -19.135246         -520.69654
      2       1.00000          -1.018544          -27.71600
      3       1.00000          -0.537742          -14.63271
      4       1.00000          -0.399632          -10.87453
      5       1.00000          -0.322213           -8.76786
      6       0.00000           0.019349            0.52650
      7       0.00000           0.122793            3.34138
      8       0.00000           0.325216            8.84958
      9       0.00000           0.363339            9.88695
     10       0.00000           0.397160           10.80729
     11       0.00000           0.623028           16.95345

  Spin-down eigenvalues:

  State    Occupation    Eigenvalue [Ha]    Eigenvalue [eV]
      1       1.00000         -19.135246         -520.69654
      2       1.00000          -1.018544          -27.71600
      3       1.00000          -0.537742          -14.63271
      4       1.00000          -0.399632          -10.87453
      5       1.00000          -0.322213           -8.76786
      6       0.00000           0.019349            0.52650
      7       0.00000           0.122793            3.34138
      8       0.00000           0.325216            8.84958
      9       0.00000           0.363339            9.88695
     10       0.00000           0.397160           10.80729
     11       0.00000           0.623028           16.95345

  Current spin moment of the entire structure :
  | N = N_up - N_down :    0.00
  | S                 :    0.00
  | J                 :    1.00

  Highest occupied state (VBM) at     -8.76786495 eV (relative to internal zero)
  | Occupation number:      1.00000000
  | K-point:       1 at    0.000000    0.000000    0.000000 (in units of recip. lattice)
  | Spin channel:        1

  Lowest unoccupied state (CBM) at     0.52650391 eV (relative to internal zero)
  | Occupation number:      0.00000000
  | K-point:       1 at    0.000000    0.000000    0.000000 (in units of recip. lattice)
  | Spin channel:        2

  ESTIMATED overall HOMO-LUMO gap:      9.29436886 eV between HOMO at k-point 1 and LUMO at k-point 1
  The gap value is above 0.2 eV. Unless you are using a very sparse k-point grid,
  this system is most likely an insulator or a semiconductor.

  Self-consistency cycle converged.

 Writing Hartree-Fock exchange matrix to disk for restart
  End self-consistency iteration #     1       :  max(cpu_time)    wall_clock(cpu1)
  | Time for this iteration                    :        0.039 s           0.044 s
  | Charge density update                      :        0.007 s           0.006 s
  | Density mixing                             :        0.000 s           0.001 s
  | Hartree multipole update                   :        0.001 s           0.001 s
  | Hartree multipole summation                :        0.022 s           0.022 s
  | Integration                                :        0.006 s           0.006 s
  | Fock matrix evaluation                     :        0.000 s           0.000 s
  | Solution of K.-S. eqns.                    :        0.001 s           0.001 s
  | Total energy evaluation                    :        0.000 s           0.000 s

  Partial memory accounting:
  | Current value for overall tracked memory usage:
  |   Minimum:        0.021 MB (on task 5)
  |   Maximum:        0.157 MB (on task 0)
  |   Average:        0.057 MB
  | Peak value for overall tracked memory usage:
  |   Minimum:        4.267 MB (on task 3 after allocating d_coeff_3fn)
  |   Maximum:        4.402 MB (on task 0 after allocating d_coeff_3fn)
  |   Average:        4.301 MB
  | Largest tracked array allocation so far:
  |   Minimum:        4.259 MB (coeff_3fn on task 0)
  |   Maximum:        4.259 MB (coeff_3fn on task 0)
  |   Average:        4.259 MB
  Note:  These values currently only include a subset of arrays which are explicitly tracked.
  The "true" memory usage will be greater.
------------------------------------------------------------
  Writing periodic restart information to file h_kv000

  Energy and forces in a compact form:
  | Total energy uncorrected      :         -0.208082965665908E+04 eV
  | Total energy corrected        :         -0.208082965665908E+04 eV  <-- do not rely on this value for anything but (periodic) metals
  | Electronic free energy        :         -0.208082965665908E+04 eV

  ------------------------------------ 
  Start decomposition of the XC Energy 
  ------------------------------------ 
  X and C from original XC functional choice 
  Hartree-Fock Energy :          0.000000000 Ha              0.000000000 eV
  X Energy            :         -7.106316485 Ha           -193.372710241 eV
  C Energy            :         -0.438375989 Ha            -11.928817586 eV
  Total XC Energy     :         -7.544692473 Ha           -205.301527827 eV
  ------------------------------------ 
  LDA X and C from self-consistent density 
  X Energy LDA        :         -8.101302797 Ha           -220.447665364 eV
  C Energy LDA        :         -0.659551536 Ha            -17.947310444 eV
  ------------------------------------ 
  End decomposition of the XC Energy 
  ------------------------------------ 

------------------------------------------------------------
  |------------------------------------------------------
  | Final ELSI Output
  |------------------------------------------------------
  |
  | Physical Properties
  |   Number of electrons       :        0.10000000E+02
  |   Number of states          :                    11
  |
  | Matrix Properties
  |   Matrix format             :           BLACS_DENSE
  |   Number of basis functions :                    24
  |
  | Computational Details
  |   Parallel mode             :           SINGLE_PROC
  |   Solver requested          :                LAPACK
  |   Number of ELSI calls      :                     0
  |
  |------------------------------------------------------
  | ELSI Project (c)  elsi-interchange.org
  |------------------------------------------------------

------------------------------------------------------------------------------
  Final output of selected total energy values:

  The following output summarizes some interesting total energy values
  at the end of a run (AFTER all relaxation, molecular dynamics, etc.).

  | Total energy of the DFT / Hartree-Fock s.c.f. calculation      :          -2080.829656659 eV
  | Final zero-broadening corrected energy (caution - metals only) :          -2080.829656659 eV
  | For reference only, the value of 1 Hartree used in FHI-aims is :             27.211384500 eV
  | For reference only, the overall average (free atom contribution
  | + realspace contribution) of the electrostatic potential after
  | s.c.f. convergence is                                          :             -0.107653580 eV

  Before relying on these values, please be sure to understand exactly which
  total energy value is referred to by a given number. Different objects may
  all carry the same name 'total energy'. Definitions:

  Total energy of the DFT / Hartree-Fock s.c.f. calculation:
  | Note that this energy does not include ANY quantities calculated after the
  | s.c.f. cycle, in particular not ANY RPA, MP2, etc. many-body perturbation terms.

  Final zero-broadening corrected energy:
  | For metallic systems only, a broadening of the occupation numbers at the Fermi
  | level can be extrapolated back to zero broadening by an electron-gas inspired
  | formula. For all systems that are not real metals, this value can be
  | meaningless and should be avoided.

------------------------------------------------------------------------------
  Methods described in the following list of references were used in this FHI-aims run.
  If you publish the results, please make sure to cite these reference if they apply.
  FHI-aims is an academic code, and for our developers (often, Ph.D. students
  and postdocs), scientific credit in the community is essential.
  Thank you for helping us!

  For any use of FHI-aims, please cite:

    Volker Blum, Ralf Gehrke, Felix Hanke, Paula Havu, Ville Havu,
    Xinguo Ren, Karsten Reuter, and Matthias Scheffler
    'Ab initio molecular simulations with numeric atom-centered orbitals'
    Computer Physics Communications 180, 2175-2196 (2009)
    http://dx.doi.org/10.1016/j.cpc.2009.06.022


  For Hartree-Fock, hybrid functionals, or many-body perturbation theory used in your run, please cite:

    Xinguo Ren, Patrick Rinke, Volker Blum, Juergen Wieferink, Alex Tkatchenko,
    Andrea Sanfilippo, Karsten Reuter, and Matthias Scheffler,
    'Resolution-of-identity approach to Hartree-Fock, hybrid density functionals,
    RPA, MP2, and GW with numeric atom-centered orbital basis functions'
    New Journal of Physics 14, 053020 (2012).
    http://dx.doi.org/10.1088/1367-2630/14/5/053020


  The provided symmetry information was generated with SPGlib:

    Atsushi Togo, Yusuke Seto, Dimitar Pashov
    SPGlib 1.7.3 obtained from http://spglib.sourceforge.net
    Copyright (C) 2008 Atsushi Togo


  The ELSI infrastructure was used in your run to solve the Kohn-Sham electronic structure.
  Please check out http://elsi-interchange.org to learn more.
  If scalability is important for your project, please acknowledge ELSI by citing:

    V. W-z. Yu, F. Corsetti, A. Garcia, W. P. Huhn, M. Jacquelin, W. Jia,
    B. Lange, L. Lin, J. Lu, W. Mi, A. Seifitokaldani, A. Vazquez-Mayagoitia,
    C. Yang, H. Yang, and V. Blum
    'ELSI: A unified software interface for Kohn-Sham electronic structure solvers'
    Computer Physics Communications 222, 267-285 (2018).
    http://dx.doi.org/10.1016/j.cpc.2017.09.007


  For the real-space grid partitioning and parallelization used in this calculation, please cite:

    Ville Havu, Volker Blum, Paula Havu, and Matthias Scheffler,
    'Efficient O(N) integration for all-electron electronic structure calculation'
    'using numerically tabulated basis functions'
    Journal of Computational Physics 228, 8367-8379 (2009).
    http://dx.doi.org/10.1016/j.jcp.2009.08.008


  The high-level electronic structure method used in your calculation
  employed our efficient localized resolution of identity for the Coulomb operator.
  Some calculations, especially large-scale hybrid density functional theory,
  are only possible thanks to this development. For this feature, please cite:

    Arvid Ihrig, Juergen Wieferink, Igor Ying Zhang, Matti Ropo, Xinguo Ren,
    Patrick Rinke, Matthias Scheffler, and Volker Blum,
    'Accurate localized resolution of identity approach for linear-scaling
    hybrid density functionals and for many-body perturbation theory'
    New Journal of Physics 117, 093020 (2015).
    http://dx.doi.org/10.1088/1367-2630/17/9/093020

  Of course, there are many other important community references, e.g., those cited in the
  above references. Our list is limited to references that describe implementations in the
  FHI-aims code. The reason is purely practical (length of this list) - please credit others as well.

 * A warning was issued further up regarding the CPU load.
   Some CPUs do not participate in the eigenvalue solution.
   In corner cases, this may be the correct behavior. Otherwise,
   consider using a scalapack/elpa version of the code for a parallel treatment.

------------------------------------------------------------
          Leaving FHI-aims.
          Date     :  20190817, Time     :  154006.435

          Computational steps:
          | Number of self-consistency cycles          :            1
          | Number of SCF (re)initializations          :            1

          Detailed time accounting                     :  max(cpu_time)    wall_clock(cpu1)
          | Total time                                 :        0.696 s           0.702 s
          | Preparation time                           :        0.157 s           0.158 s
          | Boundary condition initalization           :        0.043 s           0.043 s
          | Grid partitioning                          :        0.009 s           0.009 s
          | Preloading free-atom quantities on grid    :        0.002 s           0.002 s
          | Free-atom superposition energy             :        0.003 s           0.002 s
          | Total time for integrations                :        0.021 s           0.021 s
          | Product basis setup: Total time            :        0.329 s           0.329 s
          | Total time evaluating exchange matrix      :        0.000 s           0.000 s
          | Total time for solution of K.-S. equations :        0.002 s           0.003 s
          | Total time for density update              :        0.014 s           0.013 s
          | Total time for mixing                      :        0.000 s           0.001 s
          | Total time for Hartree multipole update    :        0.002 s           0.002 s
          | Total time for Hartree multipole sum       :        0.044 s           0.044 s
          | Total time for total energy evaluation     :        0.000 s           0.001 s

          Partial memory accounting:
          | Residual value for overall tracked memory usage across tasks:     0.000000 MB (should be 0.000000 MB)
          | Peak values for overall tracked memory usage:
          |   Minimum:        4.267 MB (on task 3 after allocating d_coeff_3fn)
          |   Maximum:        4.402 MB (on task 0 after allocating d_coeff_3fn)
          |   Average:        4.301 MB
          | Largest tracked array allocation:
          |   Minimum:        4.259 MB (coeff_3fn on task 0)
          |   Maximum:        4.259 MB (coeff_3fn on task 0)
          |   Average:        4.259 MB
          Note:  These values currently only include a subset of arrays which are explicitly tracked.
          The "true" memory usage will be greater.

          Have a nice day.
------------------------------------------------------------
