  MPI-parallelism will be employed.
------------------------------------------------------------
          Invoking FHI-aims ...

          When using FHI-aims, please cite the following reference:

          Volker Blum, Ralf Gehrke, Felix Hanke, Paula Havu,
          Ville Havu, Xinguo Ren, Karsten Reuter, and Matthias Scheffler,
          'Ab Initio Molecular Simulations with Numeric Atom-Centered Orbitals',
          Computer Physics Communications 180, 2175-2196 (2009)

          For any questions about FHI-aims, please visit the aimsclub website
          with its forums and wiki. Contributions to both the forums and the
          wiki are warmly encouraged - they are for you, and everyone is welcome there.

------------------------------------------------------------



  Date     :  20190817, Time     :  153324.962
  Time zero on CPU 1             :   0.300280000000000E-01  s.
  Internal wall clock time zero  :           335288004.962  s.

  FHI-aims created a unique identifier for this run for later identification
  aims_uuid : E6C20361-1A23-420D-A017-660F4B4D688E

  Build configuration of the current instance of FHI-aims
  -------------------------------------------------------
  FHI-aims version      : 190813
  Commit number         : 3da7baeb3
  CMake host system     : Linux-4.4.180-94.97-default
  CMake version         : 3.5.2
  Fortran compiler      : /mpcdf/soft/SLE_12_SP3/packages/x86_64/intel_parallel_studio/2018.4/compilers_and_libraries_2018.5.274/linux/mpi/bin64/mpiifort (Intel) version 18.0.5.20180823
  Fortran compiler flags: -O3 -ip -fp-model precise
  C compiler            : /mpcdf/soft/SLE_12_SP3/packages/skylake/intel/18.0.5/bin/icc (Intel) version 18.0.5.20180823
  C compiler flags      : -O3 -ip -fp-model precise
  Architecture          :
  Using MPI
  Using Scalapack
  Using C files
  Using SPGlib
  Using i-PI
  Linking against: /mpcdf/soft/SLE_12_SP3/packages/x86_64/anaconda/3.5.1.0/lib/libmkl_intel_lp64.so
                   /mpcdf/soft/SLE_12_SP3/packages/x86_64/anaconda/3.5.1.0/lib/libmkl_sequential.so
                   /mpcdf/soft/SLE_12_SP3/packages/x86_64/anaconda/3.5.1.0/lib/libmkl_core.so
                   /mpcdf/soft/SLE_12_SP3/packages/x86_64/anaconda/3.5.1.0/lib/libmkl_blacs_intelmpi_lp64.so
                   /mpcdf/soft/SLE_12_SP3/packages/x86_64/anaconda/3.5.1.0/lib/libmkl_scalapack_lp64.so

  Using        8 parallel tasks.
  Task        0 on host co1631 reporting.
  Task        1 on host co1631 reporting.
  Task        2 on host co1631 reporting.
  Task        3 on host co1631 reporting.
  Task        4 on host co1631 reporting.
  Task        5 on host co1631 reporting.
  Task        6 on host co1631 reporting.
  Task        7 on host co1631 reporting.

  Performing system and environment tests:
  | Environment variable OMP_NUM_THREADS correctly set to 1.
  | Maximum stacksize for task 0: unlimited
  | Maximum stacksize for task 1: unlimited
  | Maximum stacksize for task 2: unlimited
  | Maximum stacksize for task 3: unlimited
  | Maximum stacksize for task 4: unlimited
  | Maximum stacksize for task 5: unlimited
  | Maximum stacksize for task 6: unlimited
  | Maximum stacksize for task 7: unlimited
  | Current stacksize for task 0: unlimited
  | Current stacksize for task 1: unlimited
  | Current stacksize for task 2: unlimited
  | Current stacksize for task 3: unlimited
  | Current stacksize for task 4: unlimited
  | Current stacksize for task 5: unlimited
  | Current stacksize for task 6: unlimited
  | Current stacksize for task 7: unlimited
  | Checking for scalapack...
  | Testing pdtran()...
  | All pdtran() tests passed.

  Obtaining array dimensions for all initial allocations:
  
  -----------------------------------------------------------------------
  Parsing control.in (first pass over file, find array dimensions only).
  The contents of control.in will be repeated verbatim below
  unless switched off by setting 'verbatim_writeout .false.' .
  in the first line of control.in .
  -----------------------------------------------------------------------
  
  # Taken from the CPC of Knuth et al. for stress tensors. Only change is k_grid
  #########################################################################################
  #
  #  Species-independent part of control.in-file
  #
  #########################################################################################
  #
  #  Physical model
  #
    xc                 tpss
    spin               none
    relativistic       atomic_zora scalar
    charge             0.
  #
  #  SCF convergence
  #
    occupation_type    gaussian 0.05
    sc_accuracy_rho    1E-5
    sc_accuracy_eev    1E-3
    sc_accuracy_etot   1E-6
    sc_accuracy_forces 1E-4
    sc_accuracy_stress not_checked
    sc_iter_limit      100
  #
    sc_init_iter       10
  #
    k_grid            3 3 3
  
    partition_type stratmann_smoother
    delta_numerical_stress 1E-4
  
    compute_numerical_stress .true.
  
  ################################################################################
  #
  #  FHI-aims code project
  #  VB, Fritz-Haber Institut, 2009
  #
  #  Suggested "light" defaults for Ga atom (to be pasted into control.in file)
  #  Be sure to double-check any results obtained with these settings for post-processing,
  #  e.g., with the "tight" defaults and larger basis sets.
  #
  ################################################################################
    species        Ga
  #     global species definitions
      nucleus             31
      mass                69.723
  #
      l_hartree           4
  #
      cut_pot             3.5          1.5  1.0
      basis_dep_cutoff    1e-4
  #
      radial_base         54 5.0
      radial_multiplier   1
      angular_grids       specified
        division   0.5103   50
        division   0.8880  110
        division   1.2009  194
        division   1.5000  302
  #      division   1.7093  434
  #      division   1.8791  590
  #      division   1.9525  770
  #      division   2.3801 1202
  #      outer_grid  1202
        outer_grid  302
  ################################################################################
  #
  #  Definition of "minimal" basis
  #
  ################################################################################
  #     valence basis states
      valence      4  s   2.
      valence      4  p   1.
      valence      3  d  10.
  #     ion occupancy
      ion_occ      4  s   1.
      ion_occ      3  p   6.
      ion_occ      3  d  10.
  ################################################################################
  #
  #  Suggested additional basis functions. For production calculations,
  #  uncomment them one after another (the most important basis functions are
  #  listed first).
  #
  #  Constructed for dimers: 1.85 A, 2.10 A, 2.45 A, 3.00 A, 4.00 A
  #
  ################################################################################
  #  "First tier" - improvements: -222.33 meV to -26.19 meV
       hydro 2 p 1.2
       hydro 3 d 3.8
  #     hydro 4 f 6.8
       ionic 4 s auto
  #  "Second tier" - improvements: -11.68 meV to -1.61 meV
  #     hydro 5 g 10
  #     hydro 4 p 3.6
  #     hydro 4 f 13.2
  #     hydro 6 h 14.4
  #     hydro 4 d 5.2
  #     hydro 1 s 0.45
  #  "Third tier" - improvements: -0.64 meV to -0.15 meV
  #     hydro 3 p 3.4
  #     hydro 3 s 2.2
  #     hydro 5 g 14
  #     hydro 4 f 6.2
  #     hydro 5 d 7.2
  #  "Fourth tier"  -improvements: -0.12 meV and below
  #     hydro 3 s 3.8
  #     hydro 5 f 27.2
  #     hydro 6 h 16
  #     hydro 5 g 9.2
  #     hydro 4 d 8.6
  #     hydro 2 p 3.6
  
  ################################################################################
  #
  #  FHI-aims code project
  #  VB, Fritz-Haber Institut, 2009
  #
  #  Suggested "light" defaults for As atom (to be pasted into control.in file)
  #  Be sure to double-check any results obtained with these settings for post-processing,
  #  e.g., with the "tight" defaults and larger basis sets.
  #
  ################################################################################
    species        As
  #
      nucleus             33
      mass                74.92160
  #
      l_hartree           4
  #
      cut_pot             3.5          1.5  1.0
      basis_dep_cutoff    1e-4
  #
      radial_base         55 5.0
      radial_multiplier   1
      angular_grids       specified
        division   0.4982   50
        division   0.9113  110
        division   1.1593  194
        division   1.4959  302
  #      division   1.6697  434
  #      division   1.8319  590
  #      division   1.9752  770
  #      division   2.0131  974
  #      division   2.4015 1202
  #      outer_grid  1202
        outer_grid  302
  ################################################################################
  #
  #  Definition of "minimal" basis
  #
  ################################################################################
  #     valence basis states
      valence      4  s   2.
      valence      4  p   3.
      valence      3  d  10.
  #     ion occupancy
      ion_occ      4  s   1.
      ion_occ      4  p   2.
      ion_occ      3  d  10.
  ################################################################################
  #
  #  Suggested additional basis functions. For production calculations,
  #  uncomment them one after another (the most important basis functions are
  #  listed first).
  #
  #  Constructed for dimers: 1.75 A, 2.10 A, 2.50 A, 3.00 A, 4.00 A
  #
  ################################################################################
  #  "First tier" - improvements: -385.12 meV to -54.94 meV
       hydro 3 d 4
       hydro 2 p 1.5
  #     hydro 4 f 6.8
       ionic 4 s auto
  #  "Second tier" - improvements: -22.14 meV to -3.21 meV
  #     hydro 5 g 10
  #     hydro 6 h 13.6
  #     hydro 4 p 4.3
  #     hydro 4 f 15.6
  #     hydro 4 d 5.4
  #     hydro 1 s 0.6
  #  "Third tier" - improvements: -0.57 meV to -0.13 meV
  #     hydro 5 g 16.4
  #     hydro 4 f 7.4
  #     hydro 5 d 7.4
  #     ionic 4 p auto
  #     hydro 3 s 2.6
  #  "Fourth tier" - improvements: -0.30 meV and below
  #     hydro 3 p 3
  #     hydro 6 h 18.4
  #     hydro 5 d 11.2
  #     hydro 5 f 15.2
  #     hydro 5 g 13.6
  #     hydro 5 s 6.2
  
  -----------------------------------------------------------------------
  Completed first pass over input file control.in .
  -----------------------------------------------------------------------
  
  
  -----------------------------------------------------------------------
  Parsing geometry.in (first pass over file, find array dimensions only).
  The contents of geometry.in will be repeated verbatim below
  unless switched off by setting 'verbatim_writeout .false.' .
  in the first line of geometry.in .
  -----------------------------------------------------------------------
  
  #
  # This is the geometry file that corresponds to the current relaxation step.
  # If you do not want this file to be written, set the "write_restart_geometry" flag to .false.
  #  aims_uuid : 1CD3FBC0-EB25-47C3-A1DB-FCBED1005AC7
  #
  lattice_vector     -0.00976328      2.77246925      2.77250470
  lattice_vector      2.77226347     -0.00968175      2.77222890
  lattice_vector      2.77240833      2.77233829     -0.00972084
  atom_frac      -0.00647217     -0.00673740     -0.00659623 Ga
  atom_frac       0.25782556      0.25809076      0.25794962 As
  
  -----------------------------------------------------------------------
  Completed first pass over input file geometry.in .
  -----------------------------------------------------------------------
  

  Basic array size parameters:
  | Number of species                 :        2
  | Number of atoms                   :        2
  | Number of lattice vectors         :        3
  | Max. basis fn. angular momentum   :        2
  | Max. atomic/ionic basis occupied n:        4
  | Max. number of basis fn. types    :        3
  | Max. radial fns per species/type  :        8
  | Max. logarithmic grid size        :     1417
  | Max. radial integration grid size :       55
  | Max. angular integration grid size:      302
  | Max. angular grid division number :        8
  | Radial grid for Hartree potential :     1417
  | Number of spin channels           :        1

------------------------------------------------------------
          Reading file control.in.
------------------------------------------------------------
  XC: Using TPSS gradient-corrected functionals.
  Spin treatment: No spin polarisation.
  Scalar relativistic treatment of kinetic energy: on-site free-atom approximation to ZORA.
  Charge =   0.000000E+00: Neutral system requested explicitly.
  Occupation type: Gaussian broadening, width =   0.500000E-01 eV.
  Convergence accuracy of self-consistent charge density:  0.1000E-04
  Convergence accuracy of sum of eigenvalues:  0.1000E-02
  Convergence accuracy of total energy:  0.1000E-05
  Convergence accuracy of forces:  0.1000E-03
  | Analytical stress self-consistency will not be checked explicitly.
  Maximum number of s.-c. iterations  :   100
  Number of s.-c. iterations prior to a full restart of mixing :    10
  Found k-point grid:         3         3         3
  Partition function in integrals is Stratmann, with an additionally restricted atom list.
  | At each point, only atoms whose outer radius of each atom as given by basis functions,
  | free-atom potential etc. may contribute.
  Scaling factor delta for numerical stress set to   0.100000E-03.
  Numerical stress will be computed using finite differences.
 
  Reading configuration options for species Ga                  .
  | Found nuclear charge :  31.0000
  | Found atomic mass :    69.7230000000000      amu
  | Found l_max for Hartree potential  :   4
  | Found cutoff potl. onset [A], width [A], scale factor :    3.50000    1.50000    1.00000
  | Threshold for basis-dependent cutoff potential is   0.100000E-03
  | Found data for basic radial integration grid :    54 points, outermost radius =    5.000 A
  | Found multiplier for basic radial grid :   1
  | Found angular grid specification: user-specified.
  | Specified grid contains     5 separate shells.
  | Check grid settings after all constraints further below.
  | Found free-atom valence shell :  4 s   2.000
  | Found free-atom valence shell :  4 p   1.000
  | Found free-atom valence shell :  3 d  10.000
  | Found free-ion valence shell :  4 s   1.000
  | Found free-ion valence shell :  3 p   6.000
  | Found free-ion valence shell :  3 d  10.000
  | Found hydrogenic basis function :  2 p   1.200
  | Found hydrogenic basis function :  3 d   3.800
  | Found ionic basis function :  4 s , default cutoff radius.
  Species Ga                  : Missing cutoff potential type.
  Defaulting to exp(1/x)/(1-x)^2 type cutoff potential.
  Species Ga: No 'logarithmic' tag. Using default grid for free atom:
  | Default logarithmic grid data [bohr] : 0.1000E-03 0.1000E+03 0.1012E+01
  | Will include ionic basis functions of  2.0-fold positive Ga                   ion.
  Species Ga: On-site basis accuracy parameter (for Gram-Schmidt orthonormalisation) not specified.
  Using default value basis_acc =  0.1000000E-03.
  Species Ga                  : Using default innermost maximum threshold i_radial=  2 for radial functions.
  Species Ga                  : Default cutoff onset for free atom density etc. : 0.35000000E+01 AA.
  Species Ga                  : Basic radial grid will be enhanced according to radial_multiplier =   1, to contain    54 grid points.
 
  Reading configuration options for species As                  .
  | Found nuclear charge :  33.0000
  | Found atomic mass :    74.9216000000000      amu
  | Found l_max for Hartree potential  :   4
  | Found cutoff potl. onset [A], width [A], scale factor :    3.50000    1.50000    1.00000
  | Threshold for basis-dependent cutoff potential is   0.100000E-03
  | Found data for basic radial integration grid :    55 points, outermost radius =    5.000 A
  | Found multiplier for basic radial grid :   1
  | Found angular grid specification: user-specified.
  | Specified grid contains     5 separate shells.
  | Check grid settings after all constraints further below.
  | Found free-atom valence shell :  4 s   2.000
  | Found free-atom valence shell :  4 p   3.000
  | Found free-atom valence shell :  3 d  10.000
  | Found free-ion valence shell :  4 s   1.000
  | Found free-ion valence shell :  4 p   2.000
  | Found free-ion valence shell :  3 d  10.000
  | Found hydrogenic basis function :  3 d   4.000
  | Found hydrogenic basis function :  2 p   1.500
  | Found ionic basis function :  4 s , default cutoff radius.
  Species As                  : Missing cutoff potential type.
  Defaulting to exp(1/x)/(1-x)^2 type cutoff potential.
  Species As: No 'logarithmic' tag. Using default grid for free atom:
  | Default logarithmic grid data [bohr] : 0.1000E-03 0.1000E+03 0.1012E+01
  | Will include ionic basis functions of  2.0-fold positive As                   ion.
  Species As: On-site basis accuracy parameter (for Gram-Schmidt orthonormalisation) not specified.
  Using default value basis_acc =  0.1000000E-03.
  Species As                  : Using default innermost maximum threshold i_radial=  2 for radial functions.
  Species As                  : Default cutoff onset for free atom density etc. : 0.35000000E+01 AA.
  Species As                  : Basic radial grid will be enhanced according to radial_multiplier =   1, to contain    55 grid points.
 
  Finished reading input file 'control.in'. Consistency checks are next.
 
  MPI_IN_PLACE appears to work with this MPI implementation.
  | Keeping use_mpi_in_place .true. (see manual).
  Target number of points in a grid batch is not set. Defaulting to  100
  Method for grid partitioning is not set. Defaulting to parallel hash+maxmin partitioning.
  Batch size limit is not set. Defaulting to    200
  By default, will store active basis functions for each batch.
  If in need of memory, prune_basis_once .false. can be used to disable this option.
  communication_type for Hartree potential was not specified.
  Defaulting to calc_hartree .
  Defaulting to Pulay charge density mixer.
  Pulay mixer: Number of relevant iterations not set.
  Defaulting to    8 iterations.
  Pulay mixer: Number of initial linear mixing iterations not set.
  Defaulting to    0 iterations.
  Work space size for distributed Hartree potential not set.
  Defaulting to   0.200000E+03 MB.
  Mixing parameter for charge density mixing has not been set.
  Using default: charge_mix_param =     0.0500.
  The mixing parameter will be adjusted in iteration number     2 of the first full s.c.f. cycle only.
  Algorithm-dependent basis array size parameters:
  | n_max_pulay                         :        8
  Presetting a factor      1.000 between actual scf density residual
  and density convergence criterion sc_accuracy_rho below which sc_init_iter
  takes no effect.
  Geometry relaxation not requested: no relaxation will be performed.
  Handling of forces: Unphysical translation and rotation will be removed from forces.
  No accuracy limit for integral partition fn. given. Defaulting to  0.1000E-14.
  No threshold value for u(r) in integrations given. Defaulting to  0.1000E-05.
  No accuracy for occupation numbers given. Defaulting to  0.1000E-12.
  No threshold value for occupation numbers given. Defaulting to  0.0000E+00.
  No accuracy for fermi level given. Defaulting to  0.1000E-19.
  Maximum # of iterations to find E_F not set. Defaulting to  200.
  Preferred method for the eigenvalue solver ('KS_method') not specified in 'control.in'.
  Defaulting to serial version, LAPACK (via ELSI), since more k-points than CPUs available.
  Will not use alltoall communication since running on < 1024 CPUs.
  Threshold for basis singularities not set.
  Default threshold for basis singularities:  0.1000E-04
  Partitioning for Hartree potential was not defined. Using partition_type for integrals.
  | Adjusted default value of keyword multip_moments_threshold to:       0.10000000E-11
  | This value may affect high angular momentum components of the Hartree potential in periodic systems.
  Angular momentum expansion for Kerker preconditioner not set explicitly.
  | Using default value of   0
  No explicit requirement for turning off preconditioner.
  | By default, it will be turned off when the charge convergence reaches
  | sc_accuracy_rho  =   0.100000E-04
  | sc_accuracy_eev  =   0.100000E-02
  | sc_accuracy_etot =   0.100000E-05
  No special mixing parameter while Kerker preconditioner is on.
  Using default: charge_mix_param =     0.0500.
  No q(lm)/r^(l+1) cutoff set for long-range Hartree potential.
  | Using default value of  0.100000E-09 .
  | Verify using the multipole_threshold keyword.
  Defaulting to new monopole extrapolation.
  Density update method: automatic selection selected.
  Using density matrix based charge density update.
  Using density matrix based charge density update.
  Using packed matrix style: index .
  Defaulting to use time-reversal symmetry for k-point grid.
  Charge integration errors on the 3D integration grid will be compensated
  by explicit normalization and distribution of residual charges.
  Use the "compensate_multipole_errors" flag to change this behaviour.
------------------------------------------------------------


------------------------------------------------------------
          Reading geometry description geometry.in.
------------------------------------------------------------
  Input structure read successfully.
  The structure contains        2 atoms,  and a total of         64.000 electrons.

  Input geometry:
  | Unit cell:
  |       -0.00976328        2.77246925        2.77250470
  |        2.77226347       -0.00968175        2.77222890
  |        2.77240833        2.77233829       -0.00972084
  | Atomic structure:
  |       Atom                x [A]            y [A]            z [A]
  |    1: Species Ga           -0.03690210       -0.03616564       -0.03655762
  |    2: Species As            1.42812004        1.42743828        1.42780175

  Lattice parameters for 3D lattice (in Angstroms) :     3.920901    3.920560    3.920740
  Angle(s) between unit vectors (in degrees)       :    60.230822   60.233040   60.231943

  | The smallest distance between any two atoms is         2.36431243 AA.
  | The first atom of this pair is atom number                      1 .
  | The second atom of this pair is atom number                     2 .
  | Wigner-Seitz cell of the first atom image           0     1     0 .
  | (The Wigner-Seitz cell of the second atom is 0 0 0  by definition.)

  Symmetry information by spglib:
  | Precision set to  0.1E-04
  | Number of Operations  : 1
  | Space group           : 1
  | International         : P1 /
  | Schoenflies           : C1^1

  Quantities derived from the lattice vectors:
  | Reciprocal lattice vector 1: -1.127167  1.131162  1.131132
  | Reciprocal lattice vector 2:  1.131246 -1.127308  1.131277
  | Reciprocal lattice vector 3:  1.131171  1.131232 -1.127235
  | Unit cell volume                               :   0.428412E+02  A^3

  Range separation radius for Ewald summation (hartree_convergence_parameter):      3.98619577 bohr.

  Fractional coordinates:
                         L1                L2                L3
       atom_frac        -0.00647217       -0.00673740       -0.00659623  Ga
       atom_frac         0.25782556        0.25809076        0.25794962  As

  Number of empty states per atom not set in control.in - providing a guess from actual geometry.
  | Total number of empty states used during s.c.f. cycle:       11
  If you use a very high smearing, use empty_states (per atom!) in control.in to increase this value.

  Structure-dependent array size parameters: 
  | Maximum number of distinct radial functions  :       22
  | Maximum number of basis functions            :       54
  | Number of Kohn-Sham states (occupied + empty):       43
------------------------------------------------------------

------------------------------------------------------------
          Preparing all fixed parts of the calculation.
------------------------------------------------------------
  Determining machine precision:
    2.225073858507201E-308
  Setting up grids for atomic and cluster calculations.

  Creating wave function, potential, and density for free atoms.

  Species: Ga

  List of occupied orbitals and eigenvalues:
    n    l              occ      energy [Ha]    energy [eV]
    1    0           2.0000      -379.762848    -10333.8729
    2    0           2.0000       -46.377828     -1262.0049
    3    0           2.0000        -5.403615      -147.0398
    4    0           2.0000        -0.325201        -8.8492
    2    1           6.0000       -40.412175     -1099.6712
    3    1           6.0000        -3.610292       -98.2410
    4    1           1.0000        -0.085390        -2.3236
    3    2          10.0000        -0.698639       -19.0109


  Species: As

  List of occupied orbitals and eigenvalues:
    n    l              occ      energy [Ha]    energy [eV]
    1    0           2.0000      -435.857655    -11860.2902
    2    0           2.0000       -54.660335     -1487.3834
    3    0           2.0000        -6.957798      -189.3313
    4    0           2.0000        -0.534294       -14.5389
    2    1           6.0000       -47.972207     -1305.3902
    3    1           6.0000        -4.895517      -133.2138
    4    1           3.0000        -0.190466        -5.1828
    3    2          10.0000        -1.496218       -40.7142

  Creating fixed part of basis set: Ionic, confined, hydrogenic.
 
  Ga                   ion:

  List of free ionic orbitals and eigenvalues:
    n    l      energy [Ha]    energy [eV]
    1    0      -380.546864    -10355.2070
    2    0       -47.141602     -1282.7882
    3    0        -6.171021      -167.9220
    4    0        -0.972660       -26.4674
    2    1       -41.177133     -1120.4868
    3    1        -4.377668      -119.1224
    3    2        -1.460668       -39.7468


  List of ionic basis orbitals and eigenvalues:
    n    l      energy [Ha]    energy [eV]    outer radius [A]
    4    0        -0.972634       -26.4667       4.317045

 
  Ga                   hydrogenic:
 
  List of hydrogenic basis orbitals: 
    n    l      effective z      eigenvalue [eV]  inner max. [A]     outer max. [A]     outer radius [A]   
    2    1         1.200000        -4.5108           1.643450           1.643450           4.589156
    3    2         3.800000       -21.8139           1.255894           1.255894           4.589156
 
 
  As                   ion:

  List of free ionic orbitals and eigenvalues:
    n    l      energy [Ha]    energy [eV]
    1    0      -436.736647    -11884.2088
    2    0       -55.519096     -1510.7515
    3    0        -7.813292      -212.6105
    4    0        -1.273927       -34.6653
    2    1       -48.831835     -1328.7818
    3    1        -5.750372      -156.4756
    4    1        -0.870812       -23.6960
    3    2        -2.346828       -63.8604


  List of ionic basis orbitals and eigenvalues:
    n    l      energy [Ha]    energy [eV]    outer radius [A]
    4    0        -1.273910       -34.6649       3.909368

 
  As                   hydrogenic:
 
  List of hydrogenic basis orbitals: 
    n    l      effective z      eigenvalue [eV]  inner max. [A]     outer max. [A]     outer radius [A]   
    3    2         4.000000       -24.1792           1.194291           1.194291           4.582756
    2    1         1.500000        -7.5079           1.382996           1.382996           4.582756
 

  Adding cutoff potential to free-atom effective potential.
  Creating atomic-like basis functions for current effective potential.

  Species Ga                  :

  List of atomic basis orbitals and eigenvalues:
    n    l      energy [Ha]    energy [eV]    outer radius [A]
    1    0      -379.762848    -10333.8729       0.339519
    2    0       -46.377828     -1262.0049       0.983486
    3    0        -5.403615      -147.0398       2.780058
    4    0        -0.325201        -8.8492       4.533395
    2    1       -40.412175     -1099.6712       1.020225
    3    1        -3.610292       -98.2410       3.258922
    4    1        -0.085390        -2.3236       4.589156
    3    2        -0.698639       -19.0109       4.370145


  Species As                  :

  List of atomic basis orbitals and eigenvalues:
    n    l      energy [Ha]    energy [eV]    outer radius [A]
    1    0      -435.857655    -11860.2902       0.318942
    2    0       -54.660335     -1487.3834       0.912655
    3    0        -6.957798      -189.3313       2.486936
    4    0        -0.534294       -14.5389       4.527073
    2    1       -47.972207     -1305.3902       0.946748
    3    1        -4.895517      -133.2138       2.844895
    4    1        -0.190466        -5.1828       4.582756
    3    2        -1.496218       -40.7142       4.155782

  Assembling full basis from fixed parts.
  | Species Ga :   atomic orbital   1 s accepted.
  | Species Ga :   atomic orbital   2 s accepted.
  | Species Ga :   atomic orbital   3 s accepted.
  | Species Ga :    ionic orbital   4 s accepted.
  | Species Ga :   atomic orbital   4 s accepted.
  | Species Ga :   atomic orbital   2 p accepted.
  | Species Ga :   atomic orbital   3 p accepted.
  | Species Ga :   atomic orbital   4 p accepted.
  | Species Ga :    hydro orbital   2 p accepted.
  | Species Ga :   atomic orbital   3 d accepted.
  | Species Ga :    hydro orbital   3 d accepted.
  | Species As :   atomic orbital   1 s accepted.
  | Species As :   atomic orbital   2 s accepted.
  | Species As :   atomic orbital   3 s accepted.
  | Species As :    ionic orbital   4 s accepted.
  | Species As :   atomic orbital   4 s accepted.
  | Species As :   atomic orbital   2 p accepted.
  | Species As :   atomic orbital   3 p accepted.
  | Species As :   atomic orbital   4 p accepted.
  | Species As :    hydro orbital   2 p accepted.
  | Species As :   atomic orbital   3 d accepted.
  | Species As :    hydro orbital   3 d accepted.
 
  Basis size parameters after reduction:
  | Total number of radial functions:       22
  | Total number of basis functions :       54
 
  Per-task memory consumption for arrays in subroutine allocate_ext:
  |           7.983024MB.
  Testing on-site integration grid accuracy.
  |  Species  Function  <phi|h_atom|phi> (log., in eV)  <phi|h_atom|phi> (rad., in eV)
           1        1             -10333.8728676356             -10333.8624342243
           1        2              -1262.0049156100              -1262.0047899508
           1        3               -147.0398365059               -147.0398335448
           1        4                 -8.4477340493                 -8.4475911656
           1        5                  5.0007618939                  4.9130445814 ***
           1        6              -1099.6712427177              -1099.6712411806
           1        7                -98.2410483038                -98.2410478455
           1        8                 -2.3457104814                 -2.3739752760
           1        9                  7.0244860370                  6.8032906334 ***
           1       10                -19.0109297180                -19.0109305077
           1       11                  8.8971144782                  8.8913362074
           2       12             -11860.2902331088             -11860.2770785865
           2       13              -1487.3833855771              -1487.3832236077
           2       14               -189.3313144642               -189.3313101703
           2       15                -14.2920414084                -14.2921220803
           2       16                  5.5315596967                  5.5509767744
           2       17              -1305.3901645762              -1305.3901639299
           2       18               -133.2137916165               -133.2137908054
           2       19                 -5.1879535578                 -5.1939530117
           2       20                  6.2223889572                  6.1100909279 ***
           2       21                -40.7141541651                -40.7141539185
           2       22                  7.1977031164                  7.1946603593
 * Note: Onsite integrals marked "***" above are less accurate than
 * onsite_accuracy_threshold =    0.03000 eV. Usually, this is harmless.
 * When in doubt, tighten the "radial" and/or "radial_multiplier" flags to check.

  Preparing densities etc. for the partition functions (integrals / Hartree potential).

  Preparations completed.
  max(cpu_time)          :      0.374 s.
  Wall clock time (cpu1) :      0.374 s.
------------------------------------------------------------

------------------------------------------------------------
          Begin self-consistency loop: Initialization.

          Date     :  20190817, Time     :  153325.388
------------------------------------------------------------

  Initializing index lists of integration centers etc. from given atomic structure:
  Mapping all atomic coordinates to central unit cell.

  Initializing the k-points
          Using symmetry for reducing the k-points
  | k-points reduced from:       27 to       14
  | Number of k-points                             :        14
  The eigenvectors in the calculations are COMPLEX.
  | K-points in task   0:         1
  | K-points in task   1:         2
  | K-points in task   2:         2
  | K-points in task   3:         2
  | K-points in task   4:         2
  | K-points in task   5:         2
  | K-points in task   6:         2
  | K-points in task   7:         1
  | Number of basis functions in the Hamiltonian integrals :      1688
  | Number of basis functions in a single unit cell        :        54
  | Number of centers in hartree potential         :       720
  | Number of centers in hartree multipole         :       318
  | Number of centers in electron density summation:       190
  | Number of centers in basis integrals           :       210
  | Number of centers in integrals                 :       101
  | Number of centers in hamiltonian               :       190
  | Consuming         24 KiB for k_phase.
  | Number of super-cells (origin) [n_cells]                     :        2197
  | Number of super-cells (after PM_index) [n_cells]             :         112
  | Number of super-cells in hamiltonian [n_cells_in_hamiltonian]:         112
  | Size of matrix packed + index [n_hamiltonian_matrix_size] :       73320
  | Estimated reciprocal-space cutoff momentum G_max:         2.33911058 bohr^-1 .
  | Reciprocal lattice points for long-range Hartree potential:      58
  Partitioning the integration grid into batches with parallel hashing+maxmin method.
  | Number of batches:      176
  | Maximal batch size:     117
  | Minimal batch size:      55
  | Average batch size:      82.716
  | Standard deviation of batch sizes:      14.809

  Integration load balanced across     8 MPI tasks.
  Work distribution over tasks is as follows:
  Task     0 has       1870 integration points.
  Task     1 has       1814 integration points.
  Task     2 has       1827 integration points.
  Task     3 has       1839 integration points.
  Task     4 has       1811 integration points.
  Task     5 has       1792 integration points.
  Task     6 has       1803 integration points.
  Task     7 has       1802 integration points.
  Initializing partition tables, free-atom densities, potentials, etc. across the integration grid (initialize_grid_storage).
  | initialize_grid_storage: Actual outermost partition radius vs. multipole_radius_free
  | (-- VB: in principle, multipole_radius_free should be larger, hence this output)
  | Species        1: Confinement radius =              4.999999999999999 AA, multipole_radius_free =              5.060654947817020 AA.
  | Species        1: outer_partition_radius set to              5.060654947817020 AA .
  | Species        2: Confinement radius =              4.999999999999999 AA, multipole_radius_free =              5.053598046169615 AA.
  | Species        2: outer_partition_radius set to              5.053598046169615 AA .
  | Original list of interatomic distances with         210 x        210 entries is created.
  | Net number of integration points:    14558
  | of which are non-zero points    :    13014
  | Numerical average free-atom electrostatic potential    :    -15.26960763 eV
  Renormalizing the initial density to the exact electron count on the 3D integration grid.
  | Initial density: Formal number of electrons (from input files) :      64.0000000000
  | Integrated number of electrons on 3D grid     :      64.0029621936
  | Charge integration error                      :       0.0029621936
  | Normalization factor for density and gradient :       0.9999537179
  Renormalizing the free-atom superposition density to the exact electron count on the 3D integration grid.
  | Formal number of electrons (from input files) :      64.0000000000
  | Integrated number of electrons on 3D grid     :      64.0029621936
  | Charge integration error                      :       0.0029621936
  | Normalization factor for density and gradient :       0.9999537179
  Obtaining max. number of non-zero basis functions in each batch (get_n_compute_maxes).
  | Maximal number of non-zero basis functions:      554 in task     0
  | Maximal number of non-zero basis functions:      564 in task     1
  | Maximal number of non-zero basis functions:      567 in task     2
  | Maximal number of non-zero basis functions:      546 in task     3
  | Maximal number of non-zero basis functions:      534 in task     4
  | Maximal number of non-zero basis functions:      538 in task     5
  | Maximal number of non-zero basis functions:      558 in task     6
  | Maximal number of non-zero basis functions:      580 in task     7
  Allocating        0.035 MB for KS_eigenvector_complex
  Integrating Hamiltonian matrix: batch-based integration.
  Time summed over all CPUs for integration: real work        0.808 s, elapsed        0.828 s
  Integrating overlap matrix.
  Time summed over all CPUs for integration: real work        0.473 s, elapsed        0.486 s
  Decreasing sparse matrix size:
   Tolerance:  9.999999824516700E-014
   Hamiltonian matrix
  | Array has    66030 nonzero elements out of    73320 elements
  | Sparsity factor is 0.099
   Overlap matrix
  | Array has    61283 nonzero elements out of    73320 elements
  | Sparsity factor is 0.164
  New size of hamiltonian matrix:       66032

  Updating Kohn-Sham eigenvalues and eigenvectors using ELSI and the (modified) LAPACK eigensolver.
  Singularity check in k-point 8, task 0 (analysis for other k-points/tasks may follow below):
  Overlap matrix is not singular
  | Lowest and highest eigenvalues :  0.1420E-02,  0.4920E+01
  Finished singularity check of overlap matrix
  | Time :     0.000 s
  Starting LAPACK eigensolver
  Finished Cholesky decomposition
  | Time :     0.001 s
  Finished transformation to standard eigenproblem
  | Time :     0.000 s
  Finished solving standard eigenproblem
  | Time :     0.001 s
  Finished back-transformation of eigenvectors
  | Time :     0.000 s

  Obtaining occupation numbers and chemical potential using ELSI.
  | Chemical potential (Fermi level):    -5.13158084 eV
  Writing Kohn-Sham eigenvalues.
  K-point:       1 at    0.000000    0.000000    0.000000 (in units of recip. lattice)

  State    Occupation    Eigenvalue [Ha]    Eigenvalue [eV]
      1       2.00000        -435.877161       -11860.82101
      2       2.00000        -379.777731       -10334.27787
      3       2.00000         -54.680356        -1487.92819
      4       2.00000         -47.992165        -1305.93326
      5       2.00000         -47.992164        -1305.93324
      6       2.00000         -47.992087        -1305.93114
      7       2.00000         -46.393261        -1262.42485
      8       2.00000         -40.427541        -1100.08936
      9       2.00000         -40.427540        -1100.08933
     10       2.00000         -40.427453        -1100.08696
     11       2.00000          -6.981079         -189.96483
     12       2.00000          -5.422943         -147.56580
     13       2.00000          -4.919535         -133.86736
     14       2.00000          -4.919524         -133.86707
     15       2.00000          -4.918517         -133.83967
     16       2.00000          -3.630733          -98.79726
     17       2.00000          -3.630718          -98.79687
     18       2.00000          -3.629419          -98.76152
     19       2.00000          -1.522590          -41.43179
     20       2.00000          -1.522586          -41.43167
     21       2.00000          -1.521312          -41.39701
     22       2.00000          -1.521162          -41.39293
     23       2.00000          -1.521155          -41.39272
     24       2.00000          -0.728652          -19.82762
     25       2.00000          -0.728633          -19.82711
     26       2.00000          -0.727333          -19.79172
     27       2.00000          -0.722868          -19.67023
     28       2.00000          -0.722859          -19.66998
     29       2.00000          -0.695932          -18.93726
     30       2.00000          -0.224519           -6.10947
     31       2.00000          -0.224298           -6.10345
     32       2.00000          -0.198947           -5.41362
     33       0.00000          -0.179820           -4.89315
     34       0.00000          -0.069486           -1.89080
     35       0.00000          -0.059363           -1.61536
     36       0.00000          -0.059135           -1.60913
     37       0.00000           0.123898            3.37143
     38       0.00000           0.189597            5.15919
     39       0.00000           0.189628            5.16005
     40       0.00000           0.357110            9.71745
     41       0.00000           0.404375           11.00360
     42       0.00000           0.404780           11.01463
     43       0.00000           0.838886           22.82725

  What follows are estimated values for band gap, HOMO, LUMO, etc.
  | They are estimated on a discrete k-point grid and not necessarily exact.
  | For converged numbers, create a DOS and/or band structure plot on a denser k-grid.

  Highest occupied state (VBM) at     -5.41362106 eV (relative to internal zero)
  | Occupation number:      2.00000000
  | K-point:       1 at    0.000000    0.000000    0.000000 (in units of recip. lattice)

  Lowest unoccupied state (CBM) at    -4.89315113 eV (relative to internal zero)
  | Occupation number:      0.00000000
  | K-point:       1 at    0.000000    0.000000    0.000000 (in units of recip. lattice)

  ESTIMATED overall HOMO-LUMO gap:      0.52046993 eV between HOMO at k-point 1 and LUMO at k-point 1
  | This appears to be a direct band gap.
  The gap value is above 0.2 eV. Unless you are using a very sparse k-point grid,
  this system is most likely an insulator or a semiconductor.
  Calculating total energy contributions from superposition of free atom densities.

  Total energy components:
  | Sum of eigenvalues            :       -2465.84038647 Ha      -67098.93087178 eV
  | XC energy correction          :        -153.93190996 Ha       -4188.70038867 eV
  | XC potential correction       :         203.88570185 Ha        5548.01222701 eV
  | Free-atom electrostatic energy:       -1807.17416133 Ha      -49175.71096244 eV
  | Hartree energy correction     :           0.00000000 Ha           0.00000000 eV
  | Entropy correction            :          -0.00000000 Ha          -0.00000000 eV
  | ---------------------------
  | Total energy                  :       -4223.06075591 Ha     -114915.32999588 eV
  | Total energy, T -> 0          :       -4223.06075591 Ha     -114915.32999588 eV  <-- do not rely on this value for anything but (periodic) metals
  | Electronic free energy        :       -4223.06075591 Ha     -114915.32999588 eV

  Derived energy quantities:
  | Kinetic energy                :        4298.91648284 Ha      116979.46934793 eV
  | Electrostatic energy          :       -8368.04532879 Ha     -227706.09895514 eV
  | Energy correction for multipole
  | error in Hartree potential    :           0.00000000 Ha           0.00000000 eV
  | Sum of eigenvalues per atom                           :      -33549.46543589 eV
  | Total energy (T->0) per atom                          :      -57457.66499794 eV  <-- do not rely on this value for anything but (periodic) metals
  | Electronic free energy per atom                       :      -57457.66499794 eV
  Initialize hartree_potential_storage
  Max. number of atoms included in rho_multipole:            2

  End scf initialization - timings             :  max(cpu_time)    wall_clock(cpu1)
  | Time for scf. initialization               :        0.305 s           0.305 s
  | Boundary condition initialization          :        0.052 s           0.052 s
  | Integration                                :        0.170 s           0.170 s
  | Solution of K.-S. eqns.                    :        0.006 s           0.005 s
  | Grid partitioning                          :        0.023 s           0.023 s
  | Preloading free-atom quantities on grid    :        0.003 s           0.003 s
  | Free-atom superposition energy             :        0.007 s           0.008 s
  | Total energy evaluation                    :        0.000 s           0.000 s

  Partial memory accounting:
  | Current value for overall tracked memory usage:
  |   Minimum:        1.296 MB (on task 0)
  |   Maximum:        1.331 MB (on task 1)
  |   Average:        1.322 MB
  | Peak value for overall tracked memory usage:
  |   Minimum:        7.948 MB (on task 4 after allocating wave)
  |   Maximum:        8.674 MB (on task 7 after allocating wave)
  |   Average:        8.286 MB
  | Largest tracked array allocation so far:
  |   Minimum:        2.176 MB (hamiltonian_shell on task 4)
  |   Maximum:        2.567 MB (hamiltonian_shell on task 7)
  |   Average:        2.353 MB
  Note:  These values currently only include a subset of arrays which are explicitly tracked.
  The "true" memory usage will be greater.
------------------------------------------------------------

  Initialising kinetic-energy density for meta-GGA
  Evaluating density matrix
  | Time to calculate kinetic-energy density   :        0.120 s           0.121 s

------------------------------------------------------------
          Begin self-consistency iteration #    1

  Date     :  20190817, Time     :  153325.814
------------------------------------------------------------
  Evaluating new KS density using the density matrix
  Evaluating density matrix
  Time summed over all CPUs for getting density from density matrix: real work        1.576 s, elapsed        1.626 s
  Integration grid: deviation in total charge (<rho> - N_e) =   5.684342E-13
  Pulay mixing of updated and previous charge densities.
  Renormalizing the density to the exact electron count on the 3D integration grid.
  | Formal number of electrons (from input files) :      64.0000000000
  | Integrated number of electrons on 3D grid     :      63.9997815477
  | Charge integration error                      :      -0.0002184523
  | Normalization factor for density and gradient :       1.0000034133

  Evaluating partitioned Hartree potential by multipole expansion.
  | Original multipole sum: apparent total charge =   0.627335E-13
  | Sum of charges compensated after spline to logarithmic grids =   0.193184E-07
  | Analytical far-field extrapolation by fixed multipoles:
  | Hartree multipole sum: apparent total charge =   0.627427E-13
  Summing up the Hartree potential.
  Time summed over all CPUs for potential: real work        0.688 s, elapsed        0.696 s
  | RMS charge density error from multipole expansion :   0.475421E-03
  | Average real-space part of the electrostatic potential :      0.01504415 eV

  Integrating Hamiltonian matrix: batch-based integration.
  Time summed over all CPUs for integration: real work        1.334 s, elapsed        1.359 s

  Updating Kohn-Sham eigenvalues and eigenvectors using ELSI and the (modified) LAPACK eigensolver.
  Starting LAPACK eigensolver
  Finished Cholesky decomposition
  | Time :     0.000 s
  Finished transformation to standard eigenproblem
  | Time :     0.000 s
  Finished solving standard eigenproblem
  | Time :     0.001 s
  Finished back-transformation of eigenvectors
  | Time :     0.000 s

  Obtaining occupation numbers and chemical potential using ELSI.
  | Chemical potential (Fermi level):    -4.81186690 eV
  Writing Kohn-Sham eigenvalues.
  K-point:       1 at    0.000000    0.000000    0.000000 (in units of recip. lattice)

  State    Occupation    Eigenvalue [Ha]    Eigenvalue [eV]
      1       2.00000        -436.214290       -11869.99478
      2       2.00000        -380.095293       -10342.91915
      3       2.00000         -54.784860        -1490.77190
      4       2.00000         -48.068630        -1308.01398
      5       2.00000         -48.068630        -1308.01396
      6       2.00000         -48.068544        -1308.01164
      7       2.00000         -46.495663        -1265.21135
      8       2.00000         -40.503293        -1102.15067
      9       2.00000         -40.503292        -1102.15065
     10       2.00000         -40.503227        -1102.14888
     11       2.00000          -7.028116         -191.24476
     12       2.00000          -5.470523         -148.86051
     13       2.00000          -4.955415         -134.84371
     14       2.00000          -4.955405         -134.84343
     15       2.00000          -4.954416         -134.81652
     16       2.00000          -3.667685          -99.80277
     17       2.00000          -3.667672          -99.80243
     18       2.00000          -3.666548          -99.77184
     19       2.00000          -1.545391          -42.05222
     20       2.00000          -1.545387          -42.05211
     21       2.00000          -1.544132          -42.01798
     22       2.00000          -1.544017          -42.01483
     23       2.00000          -1.544009          -42.01464
     24       2.00000          -0.750010          -20.40881
     25       2.00000          -0.749992          -20.40833
     26       2.00000          -0.748127          -20.35758
     27       2.00000          -0.744746          -20.26556
     28       2.00000          -0.744737          -20.26533
     29       2.00000          -0.693573          -18.87309
     30       2.00000          -0.224502           -6.10902
     31       2.00000          -0.224279           -6.10294
     32       2.00000          -0.198261           -5.39494
     33       0.00000          -0.168087           -4.57389
     34       0.00000          -0.070283           -1.91250
     35       0.00000          -0.061693           -1.67874
     36       0.00000          -0.061475           -1.67283
     37       0.00000           0.117055            3.18522
     38       0.00000           0.179736            4.89086
     39       0.00000           0.179769            4.89177
     40       0.00000           0.353824            9.62803
     41       0.00000           0.399361           10.86716
     42       0.00000           0.399755           10.87788
     43       0.00000           0.834956           22.72030

  What follows are estimated values for band gap, HOMO, LUMO, etc.
  | They are estimated on a discrete k-point grid and not necessarily exact.
  | For converged numbers, create a DOS and/or band structure plot on a denser k-grid.

  Highest occupied state (VBM) at     -5.39494424 eV (relative to internal zero)
  | Occupation number:      2.00000000
  | K-point:       1 at    0.000000    0.000000    0.000000 (in units of recip. lattice)

  Lowest unoccupied state (CBM) at    -4.57388857 eV (relative to internal zero)
  | Occupation number:      0.00000000
  | K-point:       1 at    0.000000    0.000000    0.000000 (in units of recip. lattice)

  ESTIMATED overall HOMO-LUMO gap:      0.82105567 eV between HOMO at k-point 1 and LUMO at k-point 1
  | This appears to be a direct band gap.
  The gap value is above 0.2 eV. Unless you are using a very sparse k-point grid,
  this system is most likely an insulator or a semiconductor.

  Total energy components:
  | Sum of eigenvalues            :       -2469.54156468 Ha      -67199.64505531 eV
  | XC energy correction          :        -156.85065056 Ha       -4268.12336145 eV
  | XC potential correction       :         207.79341965 Ha        5654.34663875 eV
  | Free-atom electrostatic energy:       -1807.17416133 Ha      -49175.71096244 eV
  | Hartree energy correction     :          -0.02376728 Ha          -0.64674068 eV
  | Entropy correction            :          -0.00000000 Ha          -0.00000000 eV
  | ---------------------------
  | Total energy                  :       -4225.79672420 Ha     -114989.77948114 eV
  | Total energy, T -> 0          :       -4225.79672420 Ha     -114989.77948114 eV  <-- do not rely on this value for anything but (periodic) metals
  | Electronic free energy        :       -4225.79672420 Ha     -114989.77948114 eV

  Derived energy quantities:
  | Kinetic energy                :        4299.10579835 Ha      116984.62088495 eV
  | Electrostatic energy          :       -8368.05187199 Ha     -227706.27700464 eV
  | Energy correction for multipole
  | error in Hartree potential    :           0.00092671 Ha           0.02521696 eV
  | Sum of eigenvalues per atom                           :      -33599.82252766 eV
  | Total energy (T->0) per atom                          :      -57494.88974057 eV  <-- do not rely on this value for anything but (periodic) metals
  | Electronic free energy per atom                       :      -57494.88974057 eV

  Self-consistency convergence accuracy:
  | Change of charge density      :  0.1090E+00
  | Change of sum of eigenvalues  : -0.1007E+03 eV
  | Change of total energy        : -0.7445E+02 eV

  End self-consistency iteration #     1       :  max(cpu_time)    wall_clock(cpu1)
  | Time for this iteration                    :        0.543 s           0.540 s
  | Charge density update                      :        0.212 s           0.209 s
  | Density mixing & preconditioning           :        0.063 s           0.063 s
  | Hartree multipole update                   :        0.001 s           0.001 s
  | Hartree multipole summation                :        0.089 s           0.089 s
  | Integration                                :        0.174 s           0.174 s
  | Solution of K.-S. eqns.                    :        0.004 s           0.004 s
  | Total energy evaluation                    :        0.000 s           0.000 s

  Partial memory accounting:
  | Current value for overall tracked memory usage:
  |   Minimum:        1.296 MB (on task 0)
  |   Maximum:        1.331 MB (on task 1)
  |   Average:        1.322 MB
  | Peak value for overall tracked memory usage:
  |   Minimum:        7.948 MB (on task 4 after allocating wave)
  |   Maximum:        8.674 MB (on task 7 after allocating wave)
  |   Average:        8.286 MB
  | Largest tracked array allocation so far:
  |   Minimum:        2.176 MB (hamiltonian_shell on task 4)
  |   Maximum:        2.567 MB (hamiltonian_shell on task 7)
  |   Average:        2.353 MB
  Note:  These values currently only include a subset of arrays which are explicitly tracked.
  The "true" memory usage will be greater.
------------------------------------------------------------

------------------------------------------------------------
          Begin self-consistency iteration #    2

  Date     :  20190817, Time     :  153326.355
------------------------------------------------------------
  Evaluating new KS density using the density matrix
  Evaluating density matrix
  Time summed over all CPUs for getting density from density matrix: real work        1.585 s, elapsed        1.629 s
  Integration grid: deviation in total charge (<rho> - N_e) =   6.110668E-13
  Pulay mixing of updated and previous charge densities.
  Renormalizing the density to the exact electron count on the 3D integration grid.
  | Formal number of electrons (from input files) :      64.0000000000
  | Integrated number of electrons on 3D grid     :      63.9998698730
  | Charge integration error                      :      -0.0001301270
  | Normalization factor for density and gradient :       1.0000020332

  Evaluating partitioned Hartree potential by multipole expansion.
  | Original multipole sum: apparent total charge =   0.320047E-13
  | Sum of charges compensated after spline to logarithmic grids =  -0.532759E-08
  | Analytical far-field extrapolation by fixed multipoles:
  | Hartree multipole sum: apparent total charge =   0.320509E-13
  Summing up the Hartree potential.
  Time summed over all CPUs for potential: real work        0.715 s, elapsed        0.723 s
  | RMS charge density error from multipole expansion :   0.725640E-03
  | Average real-space part of the electrostatic potential :      0.02099011 eV

  Integrating Hamiltonian matrix: batch-based integration.
  Time summed over all CPUs for integration: real work        1.750 s, elapsed        1.808 s

  Updating Kohn-Sham eigenvalues and eigenvectors using ELSI and the (modified) LAPACK eigensolver.
  Starting LAPACK eigensolver
  Finished Cholesky decomposition
  | Time :     0.000 s
  Finished transformation to standard eigenproblem
  | Time :     0.000 s
  Finished solving standard eigenproblem
  | Time :     0.001 s
  Finished back-transformation of eigenvectors
  | Time :     0.000 s

  Obtaining occupation numbers and chemical potential using ELSI.
  | Chemical potential (Fermi level):    -4.80407142 eV
  What follows are estimated values for band gap, HOMO, LUMO, etc.
  | They are estimated on a discrete k-point grid and not necessarily exact.
  | For converged numbers, create a DOS and/or band structure plot on a denser k-grid.

  Highest occupied state (VBM) at     -5.37847852 eV (relative to internal zero)
  | Occupation number:      2.00000000
  | K-point:       1 at    0.000000    0.000000    0.000000 (in units of recip. lattice)

  Lowest unoccupied state (CBM) at    -4.56490447 eV (relative to internal zero)
  | Occupation number:      0.00000000
  | K-point:       1 at    0.000000    0.000000    0.000000 (in units of recip. lattice)

  ESTIMATED overall HOMO-LUMO gap:      0.81357404 eV between HOMO at k-point 1 and LUMO at k-point 1
  | This appears to be a direct band gap.
  The gap value is above 0.2 eV. Unless you are using a very sparse k-point grid,
  this system is most likely an insulator or a semiconductor.

  Checking to see if s.c.f. parameters should be adjusted.
  The system likely has a gap. Increased the default Pulay mixing parameter (charge_mix_param). Value:   0.200000 .

  Total energy components:
  | Sum of eigenvalues            :       -2469.46667561 Ha      -67197.60722002 eV
  | XC energy correction          :        -156.85374933 Ha       -4268.20768319 eV
  | XC potential correction       :         207.79395323 Ha        5654.36115802 eV
  | Free-atom electrostatic energy:       -1807.17416133 Ha      -49175.71096244 eV
  | Hartree energy correction     :          -0.09523019 Ha          -2.59134539 eV
  | Entropy correction            :          -0.00000000 Ha          -0.00000000 eV
  | ---------------------------
  | Total energy                  :       -4225.79586324 Ha     -114989.75605302 eV
  | Total energy, T -> 0          :       -4225.79586324 Ha     -114989.75605302 eV  <-- do not rely on this value for anything but (periodic) metals
  | Electronic free energy        :       -4225.79586324 Ha     -114989.75605302 eV

  Derived energy quantities:
  | Kinetic energy                :        4299.17099147 Ha      116986.39488009 eV
  | Electrostatic energy          :       -8368.11310538 Ha     -227707.94324992 eV
  | Energy correction for multipole
  | error in Hartree potential    :           0.00135534 Ha           0.03688055 eV
  | Sum of eigenvalues per atom                           :      -33598.80361001 eV
  | Total energy (T->0) per atom                          :      -57494.87802651 eV  <-- do not rely on this value for anything but (periodic) metals
  | Electronic free energy per atom                       :      -57494.87802651 eV

  Self-consistency convergence accuracy:
  | Change of charge density      :  0.1055E+00
  | Change of sum of eigenvalues  :  0.2038E+01 eV
  | Change of total energy        :  0.2343E-01 eV

  End self-consistency iteration #     2       :  max(cpu_time)    wall_clock(cpu1)
  | Time for this iteration                    :        0.597 s           0.597 s
  | Charge density update                      :        0.205 s           0.205 s
  | Density mixing & preconditioning           :        0.065 s           0.065 s
  | Hartree multipole update                   :        0.001 s           0.001 s
  | Hartree multipole summation                :        0.093 s           0.093 s
  | Integration                                :        0.229 s           0.229 s
  | Solution of K.-S. eqns.                    :        0.004 s           0.004 s
  | Total energy evaluation                    :        0.000 s           0.000 s

  Partial memory accounting:
  | Current value for overall tracked memory usage:
  |   Minimum:        1.296 MB (on task 0)
  |   Maximum:        1.332 MB (on task 1)
  |   Average:        1.323 MB
  | Peak value for overall tracked memory usage:
  |   Minimum:        7.948 MB (on task 4 after allocating wave)
  |   Maximum:        8.674 MB (on task 7 after allocating wave)
  |   Average:        8.286 MB
  | Largest tracked array allocation so far:
  |   Minimum:        2.176 MB (hamiltonian_shell on task 4)
  |   Maximum:        2.567 MB (hamiltonian_shell on task 7)
  |   Average:        2.353 MB
  Note:  These values currently only include a subset of arrays which are explicitly tracked.
  The "true" memory usage will be greater.
------------------------------------------------------------

------------------------------------------------------------
          Begin self-consistency iteration #    3

  Date     :  20190817, Time     :  153326.953
------------------------------------------------------------
  Evaluating new KS density using the density matrix
  Evaluating density matrix
  Time summed over all CPUs for getting density from density matrix: real work        1.708 s, elapsed        1.771 s
  Integration grid: deviation in total charge (<rho> - N_e) =   5.115908E-13
  Pulay mixing of updated and previous charge densities.
  Renormalizing the density to the exact electron count on the 3D integration grid.
  | Formal number of electrons (from input files) :      64.0000000000
  | Integrated number of electrons on 3D grid     :      63.9963235470
  | Charge integration error                      :      -0.0036764530
  | Normalization factor for density and gradient :       1.0000574479

  Evaluating partitioned Hartree potential by multipole expansion.
  | Original multipole sum: apparent total charge =   0.403895E-13
  | Sum of charges compensated after spline to logarithmic grids =  -0.694861E-06
  | Analytical far-field extrapolation by fixed multipoles:
  | Hartree multipole sum: apparent total charge =   0.403895E-13
  Summing up the Hartree potential.
  Time summed over all CPUs for potential: real work        0.847 s, elapsed        0.895 s
  | RMS charge density error from multipole expansion :   0.794059E-02
  | Average real-space part of the electrostatic potential :      0.17842867 eV

  Integrating Hamiltonian matrix: batch-based integration.
  Time summed over all CPUs for integration: real work        1.459 s, elapsed        1.520 s

  Updating Kohn-Sham eigenvalues and eigenvectors using ELSI and the (modified) LAPACK eigensolver.
  Starting LAPACK eigensolver
  Finished Cholesky decomposition
  | Time :     0.000 s
  Finished transformation to standard eigenproblem
  | Time :     0.000 s
  Finished solving standard eigenproblem
  | Time :     0.000 s
  Finished back-transformation of eigenvectors
  | Time :     0.000 s

  Obtaining occupation numbers and chemical potential using ELSI.
  | Chemical potential (Fermi level):    -4.52170472 eV
  What follows are estimated values for band gap, HOMO, LUMO, etc.
  | They are estimated on a discrete k-point grid and not necessarily exact.
  | For converged numbers, create a DOS and/or band structure plot on a denser k-grid.

  Highest occupied state (VBM) at     -4.89278874 eV (relative to internal zero)
  | Occupation number:      2.00000000
  | K-point:       1 at    0.000000    0.000000    0.000000 (in units of recip. lattice)

  Lowest unoccupied state (CBM) at    -4.28009260 eV (relative to internal zero)
  | Occupation number:      0.00000000
  | K-point:      10 at    0.333333    0.333333    0.333333 (in units of recip. lattice)

  ESTIMATED overall HOMO-LUMO gap:      0.61269614 eV between HOMO at k-point 1 and LUMO at k-point 10
  | This appears to be an indirect band gap.
  | Smallest direct gap :      0.63808885 eV for k_point 1 at    0.333333    0.333333    0.333333 (in units of recip. lattice)
  The gap value is above 0.2 eV. Unless you are using a very sparse k-point grid,
  this system is most likely an insulator or a semiconductor.

  Total energy components:
  | Sum of eigenvalues            :       -2467.59875986 Ha      -67146.77864621 eV
  | XC energy correction          :        -156.97001015 Ha       -4271.37130115 eV
  | XC potential correction       :         207.36400111 Ha        5642.66156570 eV
  | Free-atom electrostatic energy:       -1807.17416133 Ha      -49175.71096244 eV
  | Hartree energy correction     :          -1.89334012 Ha         -51.52040612 eV
  | Entropy correction            :          -0.00000000 Ha          -0.00000000 eV
  | ---------------------------
  | Total energy                  :       -4226.27227035 Ha     -115002.71975023 eV
  | Total energy, T -> 0          :       -4226.27227035 Ha     -115002.71975023 eV  <-- do not rely on this value for anything but (periodic) metals
  | Electronic free energy        :       -4226.27227035 Ha     -115002.71975023 eV

  Derived energy quantities:
  | Kinetic energy                :        4300.31617002 Ha      117017.55677388 eV
  | Electrostatic energy          :       -8369.61843022 Ha     -227748.90522296 eV
  | Energy correction for multipole
  | error in Hartree potential    :           0.01368899 Ha           0.37249649 eV
  | Sum of eigenvalues per atom                           :      -33573.38932311 eV
  | Total energy (T->0) per atom                          :      -57501.35987511 eV  <-- do not rely on this value for anything but (periodic) metals
  | Electronic free energy per atom                       :      -57501.35987511 eV

  Self-consistency convergence accuracy:
  | Change of charge density      :  0.1022E+00
  | Change of sum of eigenvalues  :  0.5083E+02 eV
  | Change of total energy        : -0.1296E+02 eV

  End self-consistency iteration #     3       :  max(cpu_time)    wall_clock(cpu1)
  | Time for this iteration                    :        0.606 s           0.606 s
  | Charge density update                      :        0.223 s           0.222 s
  | Density mixing & preconditioning           :        0.069 s           0.070 s
  | Hartree multipole update                   :        0.001 s           0.001 s
  | Hartree multipole summation                :        0.116 s           0.116 s
  | Integration                                :        0.193 s           0.193 s
  | Solution of K.-S. eqns.                    :        0.004 s           0.003 s
  | Total energy evaluation                    :        0.000 s           0.000 s

  Partial memory accounting:
  | Current value for overall tracked memory usage:
  |   Minimum:        1.296 MB (on task 0)
  |   Maximum:        1.332 MB (on task 1)
  |   Average:        1.323 MB
  | Peak value for overall tracked memory usage:
  |   Minimum:        7.948 MB (on task 4 after allocating wave)
  |   Maximum:        8.674 MB (on task 7 after allocating wave)
  |   Average:        8.286 MB
  | Largest tracked array allocation so far:
  |   Minimum:        2.176 MB (hamiltonian_shell on task 4)
  |   Maximum:        2.567 MB (hamiltonian_shell on task 7)
  |   Average:        2.353 MB
  Note:  These values currently only include a subset of arrays which are explicitly tracked.
  The "true" memory usage will be greater.
------------------------------------------------------------

------------------------------------------------------------
          Begin self-consistency iteration #    4

  Date     :  20190817, Time     :  153327.559
------------------------------------------------------------
  Evaluating new KS density using the density matrix
  Evaluating density matrix
  Time summed over all CPUs for getting density from density matrix: real work        1.777 s, elapsed        1.999 s
  Integration grid: deviation in total charge (<rho> - N_e) =   5.968559E-13
  Pulay mixing of updated and previous charge densities.
  Renormalizing the density to the exact electron count on the 3D integration grid.
  | Formal number of electrons (from input files) :      64.0000000000
  | Integrated number of electrons on 3D grid     :      63.9993107570
  | Charge integration error                      :      -0.0006892430
  | Normalization factor for density and gradient :       1.0000107695

  Evaluating partitioned Hartree potential by multipole expansion.
  | Original multipole sum: apparent total charge =   0.292467E-13
  | Sum of charges compensated after spline to logarithmic grids =  -0.111335E-05
  | Analytical far-field extrapolation by fixed multipoles:
  | Hartree multipole sum: apparent total charge =   0.294189E-13
  Summing up the Hartree potential.
  Time summed over all CPUs for potential: real work        0.825 s, elapsed        0.834 s
  | RMS charge density error from multipole expansion :   0.988764E-02
  | Average real-space part of the electrostatic potential :      0.17512407 eV

  Integrating Hamiltonian matrix: batch-based integration.
  Time summed over all CPUs for integration: real work        1.511 s, elapsed        1.542 s

  Updating Kohn-Sham eigenvalues and eigenvectors using ELSI and the (modified) LAPACK eigensolver.
  Starting LAPACK eigensolver
  Finished Cholesky decomposition
  | Time :     0.000 s
  Finished transformation to standard eigenproblem
  | Time :     0.000 s
  Finished solving standard eigenproblem
  | Time :     0.000 s
  Finished back-transformation of eigenvectors
  | Time :     0.000 s

  Obtaining occupation numbers and chemical potential using ELSI.
  | Chemical potential (Fermi level):    -4.50366612 eV
  What follows are estimated values for band gap, HOMO, LUMO, etc.
  | They are estimated on a discrete k-point grid and not necessarily exact.
  | For converged numbers, create a DOS and/or band structure plot on a denser k-grid.

  Highest occupied state (VBM) at     -4.87984670 eV (relative to internal zero)
  | Occupation number:      2.00000000
  | K-point:       1 at    0.000000    0.000000    0.000000 (in units of recip. lattice)

  Lowest unoccupied state (CBM) at    -4.26056683 eV (relative to internal zero)
  | Occupation number:      0.00000000
  | K-point:      10 at    0.333333    0.333333    0.333333 (in units of recip. lattice)

  ESTIMATED overall HOMO-LUMO gap:      0.61927987 eV between HOMO at k-point 1 and LUMO at k-point 10
  | This appears to be an indirect band gap.
  | Smallest direct gap :      0.62762616 eV for k_point 1 at    0.333333    0.333333    0.333333 (in units of recip. lattice)
  The gap value is above 0.2 eV. Unless you are using a very sparse k-point grid,
  this system is most likely an insulator or a semiconductor.

  Total energy components:
  | Sum of eigenvalues            :       -2470.95532740 Ha      -67238.11549629 eV
  | XC energy correction          :        -158.84418314 Ha       -4322.37014307 eV
  | XC potential correction       :         209.95632249 Ha        5713.20221960 eV
  | Free-atom electrostatic energy:       -1807.17416133 Ha      -49175.71096244 eV
  | Hartree energy correction     :          -1.45571594 Ha         -39.61204603 eV
  | Entropy correction            :          -0.00000000 Ha          -0.00000000 eV
  | ---------------------------
  | Total energy                  :       -4228.47306532 Ha     -115062.60642824 eV
  | Total energy, T -> 0          :       -4228.47306532 Ha     -115062.60642824 eV  <-- do not rely on this value for anything but (periodic) metals
  | Electronic free energy        :       -4228.47306532 Ha     -115062.60642824 eV

  Derived energy quantities:
  | Kinetic energy                :        4299.55287855 Ha      116996.78655633 eV
  | Electrostatic energy          :       -8369.18176073 Ha     -227737.02284149 eV
  | Energy correction for multipole
  | error in Hartree potential    :           0.01704634 Ha           0.46385446 eV
  | Sum of eigenvalues per atom                           :      -33619.05774814 eV
  | Total energy (T->0) per atom                          :      -57531.30321412 eV  <-- do not rely on this value for anything but (periodic) metals
  | Electronic free energy per atom                       :      -57531.30321412 eV

  Self-consistency convergence accuracy:
  | Change of charge density      :  0.2696E-01
  | Change of sum of eigenvalues  : -0.9134E+02 eV
  | Change of total energy        : -0.5989E+02 eV

  End self-consistency iteration #     4       :  max(cpu_time)    wall_clock(cpu1)
  | Time for this iteration                    :        0.624 s           0.625 s
  | Charge density update                      :        0.251 s           0.252 s
  | Density mixing & preconditioning           :        0.065 s           0.064 s
  | Hartree multipole update                   :        0.001 s           0.001 s
  | Hartree multipole summation                :        0.107 s           0.107 s
  | Integration                                :        0.196 s           0.197 s
  | Solution of K.-S. eqns.                    :        0.004 s           0.003 s
  | Total energy evaluation                    :        0.000 s           0.000 s

  Partial memory accounting:
  | Current value for overall tracked memory usage:
  |   Minimum:        1.296 MB (on task 0)
  |   Maximum:        1.332 MB (on task 1)
  |   Average:        1.323 MB
  | Peak value for overall tracked memory usage:
  |   Minimum:        7.948 MB (on task 4 after allocating wave)
  |   Maximum:        8.674 MB (on task 7 after allocating wave)
  |   Average:        8.286 MB
  | Largest tracked array allocation so far:
  |   Minimum:        2.176 MB (hamiltonian_shell on task 4)
  |   Maximum:        2.567 MB (hamiltonian_shell on task 7)
  |   Average:        2.353 MB
  Note:  These values currently only include a subset of arrays which are explicitly tracked.
  The "true" memory usage will be greater.
------------------------------------------------------------

------------------------------------------------------------
          Begin self-consistency iteration #    5

  Date     :  20190817, Time     :  153328.184
------------------------------------------------------------
  Evaluating new KS density using the density matrix
  Evaluating density matrix
  Time summed over all CPUs for getting density from density matrix: real work        1.657 s, elapsed        1.705 s
  Integration grid: deviation in total charge (<rho> - N_e) =   4.973799E-13
  Pulay mixing of updated and previous charge densities.
  Renormalizing the density to the exact electron count on the 3D integration grid.
  | Formal number of electrons (from input files) :      64.0000000000
  | Integrated number of electrons on 3D grid     :      64.0000767021
  | Charge integration error                      :       0.0000767021
  | Normalization factor for density and gradient :       0.9999988015

  Evaluating partitioned Hartree potential by multipole expansion.
  | Original multipole sum: apparent total charge =   0.217444E-13
  | Sum of charges compensated after spline to logarithmic grids =  -0.125186E-05
  | Analytical far-field extrapolation by fixed multipoles:
  | Hartree multipole sum: apparent total charge =   0.210803E-13
  Summing up the Hartree potential.
  Time summed over all CPUs for potential: real work        0.823 s, elapsed        0.831 s
  | RMS charge density error from multipole expansion :   0.102310E-01
  | Average real-space part of the electrostatic potential :      0.16870788 eV

  Integrating Hamiltonian matrix: batch-based integration.
  Time summed over all CPUs for integration: real work        1.509 s, elapsed        1.542 s

  Updating Kohn-Sham eigenvalues and eigenvectors using ELSI and the (modified) LAPACK eigensolver.
  Starting LAPACK eigensolver
  Finished Cholesky decomposition
  | Time :     0.000 s
  Finished transformation to standard eigenproblem
  | Time :     0.000 s
  Finished solving standard eigenproblem
  | Time :     0.001 s
  Finished back-transformation of eigenvectors
  | Time :     0.000 s

  Obtaining occupation numbers and chemical potential using ELSI.
  | Chemical potential (Fermi level):    -4.50042023 eV
  What follows are estimated values for band gap, HOMO, LUMO, etc.
  | They are estimated on a discrete k-point grid and not necessarily exact.
  | For converged numbers, create a DOS and/or band structure plot on a denser k-grid.

  Highest occupied state (VBM) at     -4.87367185 eV (relative to internal zero)
  | Occupation number:      2.00000000
  | K-point:       1 at    0.000000    0.000000    0.000000 (in units of recip. lattice)

  Lowest unoccupied state (CBM) at    -4.25628526 eV (relative to internal zero)
  | Occupation number:      0.00000000
  | K-point:      10 at    0.333333    0.333333    0.333333 (in units of recip. lattice)

  ESTIMATED overall HOMO-LUMO gap:      0.61738659 eV between HOMO at k-point 1 and LUMO at k-point 10
  | This appears to be an indirect band gap.
  | Smallest direct gap :      0.62181744 eV for k_point 1 at    0.333333    0.333333    0.333333 (in units of recip. lattice)
  The gap value is above 0.2 eV. Unless you are using a very sparse k-point grid,
  this system is most likely an insulator or a semiconductor.

  Total energy components:
  | Sum of eigenvalues            :       -2472.20944289 Ha      -67272.24171494 eV
  | XC energy correction          :        -160.08994008 Ha       -4356.26891417 eV
  | XC potential correction       :         211.97793037 Ha        5768.21296873 eV
  | Free-atom electrostatic energy:       -1807.17416133 Ha      -49175.71096244 eV
  | Hartree energy correction     :          -1.30202020 Ha         -35.42977236 eV
  | Entropy correction            :          -0.00000000 Ha          -0.00000000 eV
  | ---------------------------
  | Total energy                  :       -4228.79763414 Ha     -115071.43839519 eV
  | Total energy, T -> 0          :       -4228.79763414 Ha     -115071.43839519 eV  <-- do not rely on this value for anything but (periodic) metals
  | Electronic free energy        :       -4228.79763414 Ha     -115071.43839519 eV

  Derived energy quantities:
  | Kinetic energy                :        4300.38307053 Ha      117019.37722954 eV
  | Electrostatic energy          :       -8369.09076459 Ha     -227734.54671055 eV
  | Energy correction for multipole
[...]
  | Density mixing & preconditioning           :        0.061 s           0.061 s
  | Hartree multipole update                   :        0.001 s           0.001 s
  | Hartree multipole summation                :        0.111 s           0.111 s
  | Integration                                :        0.175 s           0.175 s
  | Solution of K.-S. eqns.                    :        0.003 s           0.003 s
  | Total energy evaluation                    :        0.000 s           0.000 s

  Partial memory accounting:
  | Current value for overall tracked memory usage:
  |   Minimum:        1.296 MB (on task 0)
  |   Maximum:        1.332 MB (on task 1)
  |   Average:        1.323 MB
  | Peak value for overall tracked memory usage:
  |   Minimum:        8.240 MB (on task 0 after allocating wave)
  |   Maximum:        8.710 MB (on task 3 after allocating wave)
  |   Average:        8.525 MB
  | Largest tracked array allocation so far:
  |   Minimum:        2.342 MB (density_matrix_con on task 0)
  |   Maximum:        2.567 MB (density_matrix_con on task 3)
  |   Average:        2.475 MB
  Note:  These values currently only include a subset of arrays which are explicitly tracked.
  The "true" memory usage will be greater.
------------------------------------------------------------

------------------------------------------------------------
          Begin self-consistency iteration #    4

  Date     :  20190817, Time     :  153414.377
------------------------------------------------------------
  Evaluating new KS density using the density matrix
  Evaluating density matrix
  Time summed over all CPUs for getting density from density matrix: real work        1.583 s, elapsed        1.664 s
  Integration grid: deviation in total charge (<rho> - N_e) =   4.973799E-13
  Pulay mixing of updated and previous charge densities.
  Renormalizing the density to the exact electron count on the 3D integration grid.
  | Formal number of electrons (from input files) :      64.0000000000
  | Integrated number of electrons on 3D grid     :      64.0000000728
  | Charge integration error                      :       0.0000000728
  | Normalization factor for density and gradient :       0.9999999989

  Evaluating partitioned Hartree potential by multipole expansion.
  | Original multipole sum: apparent total charge =   0.318295E-13
  | Sum of charges compensated after spline to logarithmic grids =  -0.461298E-06
  | Analytical far-field extrapolation by fixed multipoles:
  | Hartree multipole sum: apparent total charge =   0.319279E-13
  Summing up the Hartree potential.
  Time summed over all CPUs for potential: real work        0.852 s, elapsed        0.878 s
  | RMS charge density error from multipole expansion :   0.107896E-01
  | Average real-space part of the electrostatic potential :      0.22378766 eV

  Integrating Hamiltonian matrix: batch-based integration.
  Time summed over all CPUs for integration: real work        1.353 s, elapsed        1.410 s

  Updating Kohn-Sham eigenvalues and eigenvectors using ELSI and the (modified) LAPACK eigensolver.
  Starting LAPACK eigensolver
  Finished Cholesky decomposition
  | Time :     0.000 s
  Finished transformation to standard eigenproblem
  | Time :     0.000 s
  Finished solving standard eigenproblem
  | Time :     0.000 s
  Finished back-transformation of eigenvectors
  | Time :     0.000 s

  Obtaining occupation numbers and chemical potential using ELSI.
  | Chemical potential (Fermi level):    -4.16131404 eV
  What follows are estimated values for band gap, HOMO, LUMO, etc.
  | They are estimated on a discrete k-point grid and not necessarily exact.
  | For converged numbers, create a DOS and/or band structure plot on a denser k-grid.

  Highest occupied state (VBM) at     -4.58700206 eV (relative to internal zero)
  | Occupation number:      2.00000000
  | K-point:       1 at    0.000000    0.000000    0.000000 (in units of recip. lattice)

  Lowest unoccupied state (CBM) at    -3.92195996 eV (relative to internal zero)
  | Occupation number:      0.00000000
  | K-point:       1 at    0.000000    0.000000    0.000000 (in units of recip. lattice)

  ESTIMATED overall HOMO-LUMO gap:      0.66504211 eV between HOMO at k-point 1 and LUMO at k-point 1
  | This appears to be a direct band gap.
  The gap value is above 0.2 eV. Unless you are using a very sparse k-point grid,
  this system is most likely an insulator or a semiconductor.

  Total energy components:
  | Sum of eigenvalues            :       -2473.49617391 Ha      -67307.25544763 eV
  | XC energy correction          :        -160.36517392 Ha       -4363.75840797 eV
  | XC potential correction       :         212.13555431 Ha        5772.50213455 eV
  | Free-atom electrostatic energy:       -1807.17416133 Ha      -49175.71096244 eV
  | Hartree energy correction     :          -0.56498130 Ha         -15.37392350 eV
  | Entropy correction            :          -0.00000000 Ha          -0.00000000 eV
  | ---------------------------
  | Total energy                  :       -4229.46493616 Ha     -115089.59660700 eV
  | Total energy, T -> 0          :       -4229.46493616 Ha     -115089.59660700 eV  <-- do not rely on this value for anything but (periodic) metals
  | Electronic free energy        :       -4229.46493616 Ha     -115089.59660700 eV

  Derived energy quantities:
  | Kinetic energy                :        4299.51094794 Ha      116995.64556646 eV
  | Electrostatic energy          :       -8368.61071018 Ha     -227721.48376549 eV
  | Energy correction for multipole
  | error in Hartree potential    :           0.02025138 Ha           0.55106819 eV
  | Sum of eigenvalues per atom                           :      -33653.62772382 eV
  | Total energy (T->0) per atom                          :      -57544.79830350 eV  <-- do not rely on this value for anything but (periodic) metals
  | Electronic free energy per atom                       :      -57544.79830350 eV

  Self-consistency convergence accuracy:
  | Change of charge density      :  0.3722E-05
  | Change of sum of eigenvalues  : -0.2036E-03 eV
  | Change of total energy        : -0.3135E-06 eV

  Preliminary charge convergence reached. Turning off preconditioner.

  Writing Kohn-Sham eigenvalues.
  K-point:       1 at    0.000000    0.000000    0.000000 (in units of recip. lattice)

  State    Occupation    Eigenvalue [Ha]    Eigenvalue [eV]
      1       2.00000        -437.337784       -11900.56659
      2       2.00000        -381.205238       -10373.12231
      3       2.00000         -54.862354        -1492.88061
      4       2.00000         -48.034289        -1307.07951
      5       2.00000         -48.034289        -1307.07950
      6       2.00000         -48.034103        -1307.07446
      7       2.00000         -46.630588        -1268.88285
      8       2.00000         -40.532142        -1102.93571
      9       2.00000         -40.531680        -1102.92313
     10       2.00000         -40.531675        -1102.92301
     11       2.00000          -7.033030         -191.37847
     12       2.00000          -5.531933         -150.53155
     13       2.00000          -4.922092         -133.93695
     14       2.00000          -4.922085         -133.93675
     15       2.00000          -4.920952         -133.90593
     16       2.00000          -3.694816         -100.54107
     17       2.00000          -3.694118         -100.52208
     18       2.00000          -3.694114         -100.52195
     19       2.00000          -1.472329          -40.06411
     20       2.00000          -1.472327          -40.06404
     21       2.00000          -1.470995          -40.02782
     22       2.00000          -1.470989          -40.02764
     23       2.00000          -1.470904          -40.02535
     24       2.00000          -0.740662          -20.15443
     25       2.00000          -0.740651          -20.15413
     26       2.00000          -0.740266          -20.14365
     27       2.00000          -0.737084          -20.05708
     28       2.00000          -0.737084          -20.05708
     29       2.00000          -0.674186          -18.34552
     30       2.00000          -0.195760           -5.32689
     31       2.00000          -0.195537           -5.32082
     32       2.00000          -0.168569           -4.58700
     33       0.00000          -0.144129           -3.92196
     34       0.00000          -0.051696           -1.40672
     35       0.00000          -0.040418           -1.09983
     36       0.00000          -0.040174           -1.09320
     37       0.00000           0.150016            4.08213
     38       0.00000           0.210521            5.72856
     39       0.00000           0.210556            5.72952
     40       0.00000           0.382865           10.41828
     41       0.00000           0.431755           11.74865
     42       0.00000           0.432169           11.75993
     43       0.00000           0.886816           24.13149

  What follows are estimated values for band gap, HOMO, LUMO, etc.
  | They are estimated on a discrete k-point grid and not necessarily exact.
  | For converged numbers, create a DOS and/or band structure plot on a denser k-grid.

  Highest occupied state (VBM) at     -4.58700206 eV (relative to internal zero)
  | Occupation number:      2.00000000
  | K-point:       1 at    0.000000    0.000000    0.000000 (in units of recip. lattice)

  Lowest unoccupied state (CBM) at    -3.92195996 eV (relative to internal zero)
  | Occupation number:      0.00000000
  | K-point:       1 at    0.000000    0.000000    0.000000 (in units of recip. lattice)

  ESTIMATED overall HOMO-LUMO gap:      0.66504211 eV between HOMO at k-point 1 and LUMO at k-point 1
  | This appears to be a direct band gap.
  The gap value is above 0.2 eV. Unless you are using a very sparse k-point grid,
  this system is most likely an insulator or a semiconductor.

  Self-consistency cycle converged.

  End self-consistency iteration #     4       :  max(cpu_time)    wall_clock(cpu1)
  | Time for this iteration                    :        0.565 s           0.565 s
  | Charge density update                      :        0.209 s           0.209 s
  | Density mixing                             :        0.059 s           0.060 s
  | Hartree multipole update                   :        0.001 s           0.001 s
  | Hartree multipole summation                :        0.113 s           0.112 s
  | Integration                                :        0.178 s           0.178 s
  | Solution of K.-S. eqns.                    :        0.004 s           0.004 s
  | Total energy evaluation                    :        0.000 s           0.000 s

  Partial memory accounting:
  | Current value for overall tracked memory usage:
  |   Minimum:        1.296 MB (on task 0)
  |   Maximum:        1.332 MB (on task 1)
  |   Average:        1.323 MB
  | Peak value for overall tracked memory usage:
  |   Minimum:        8.240 MB (on task 0 after allocating wave)
  |   Maximum:        8.710 MB (on task 3 after allocating wave)
  |   Average:        8.525 MB
  | Largest tracked array allocation so far:
  |   Minimum:        2.342 MB (density_matrix_con on task 0)
  |   Maximum:        2.567 MB (density_matrix_con on task 3)
  |   Average:        2.475 MB
  Note:  These values currently only include a subset of arrays which are explicitly tracked.
  The "true" memory usage will be greater.
------------------------------------------------------------

  Energy and forces in a compact form:
  | Total energy uncorrected      :         -0.115089596606998E+06 eV
  | Total energy corrected        :         -0.115089596606998E+06 eV  <-- do not rely on this value for anything but (periodic) metals
  | Electronic free energy        :         -0.115089596606998E+06 eV

  ------------------------------------ 
  Start decomposition of the XC Energy 
  ------------------------------------ 
  X and C from original XC functional choice 
  Hartree-Fock Energy :          0.000000000 Ha              0.000000000 eV
  X Energy            :       -157.233295367 Ha          -4278.535656441 eV
  C Energy            :         -3.131878554 Ha            -85.222751533 eV
  Total XC Energy     :       -160.365173921 Ha          -4363.758407974 eV
  ------------------------------------ 
  LDA X and C from self-consistent density 
  X Energy LDA        :       -148.196625786 Ha          -4032.635365866 eV
  C Energy LDA        :         -5.752797918 Ha           -156.541596092 eV
  ------------------------------------ 
  End decomposition of the XC Energy 
  ------------------------------------ 

------------------------------------------------------------

------------------------------------------------------------

  |------------------------------------------------------
  | Final ELSI Output
  |------------------------------------------------------
  |
  | Physical Properties
  |   Number of electrons       :        0.64000000E+02
  |   Number of states          :                    43
  |
  | Matrix Properties
  |   Matrix format             :           BLACS_DENSE
  |   Number of basis functions :                    54
  |
  | Computational Details
  |   Parallel mode             :           SINGLE_PROC
  |   Solver requested          :                LAPACK
  |   Number of ELSI calls      :                    79
  |
  |------------------------------------------------------
  | ELSI Project (c)  elsi-interchange.org
  |------------------------------------------------------

------------------------------------------------------------------------------
  Final output of selected total energy values:

  The following output summarizes some interesting total energy values
  at the end of a run (AFTER all relaxation, molecular dynamics, etc.).

  | Total energy of the DFT / Hartree-Fock s.c.f. calculation      :        -115089.596606998 eV
  | Final zero-broadening corrected energy (caution - metals only) :        -115089.596606998 eV
  | For reference only, the value of 1 Hartree used in FHI-aims is :             27.211384500 eV
  | For reference only, the overall average (free atom contribution
  | + realspace contribution) of the electrostatic potential after
  | s.c.f. convergence is                                          :            -15.045819970 eV

  Before relying on these values, please be sure to understand exactly which
  total energy value is referred to by a given number. Different objects may
  all carry the same name 'total energy'. Definitions:

  Total energy of the DFT / Hartree-Fock s.c.f. calculation:
  | Note that this energy does not include ANY quantities calculated after the
  | s.c.f. cycle, in particular not ANY RPA, MP2, etc. many-body perturbation terms.

  Final zero-broadening corrected energy:
  | For metallic systems only, a broadening of the occupation numbers at the Fermi
  | level can be extrapolated back to zero broadening by an electron-gas inspired
  | formula. For all systems that are not real metals, this value can be
  | meaningless and should be avoided.

------------------------------------------------------------------------------
  Methods described in the following list of references were used in this FHI-aims run.
  If you publish the results, please make sure to cite these reference if they apply.
  FHI-aims is an academic code, and for our developers (often, Ph.D. students
  and postdocs), scientific credit in the community is essential.
  Thank you for helping us!

  For any use of FHI-aims, please cite:

    Volker Blum, Ralf Gehrke, Felix Hanke, Paula Havu, Ville Havu,
    Xinguo Ren, Karsten Reuter, and Matthias Scheffler
    'Ab initio molecular simulations with numeric atom-centered orbitals'
    Computer Physics Communications 180, 2175-2196 (2009)
    http://dx.doi.org/10.1016/j.cpc.2009.06.022


  The provided symmetry information was generated with SPGlib:

    Atsushi Togo, Yusuke Seto, Dimitar Pashov
    SPGlib 1.7.3 obtained from http://spglib.sourceforge.net
    Copyright (C) 2008 Atsushi Togo


  The ELSI infrastructure was used in your run to solve the Kohn-Sham electronic structure.
  Please check out http://elsi-interchange.org to learn more.
  If scalability is important for your project, please acknowledge ELSI by citing:

    V. W-z. Yu, F. Corsetti, A. Garcia, W. P. Huhn, M. Jacquelin, W. Jia,
    B. Lange, L. Lin, J. Lu, W. Mi, A. Seifitokaldani, A. Vazquez-Mayagoitia,
    C. Yang, H. Yang, and V. Blum
    'ELSI: A unified software interface for Kohn-Sham electronic structure solvers'
    Computer Physics Communications 222, 267-285 (2018).
    http://dx.doi.org/10.1016/j.cpc.2017.09.007


  For the real-space grid partitioning and parallelization used in this calculation, please cite:

    Ville Havu, Volker Blum, Paula Havu, and Matthias Scheffler,
    'Efficient O(N) integration for all-electron electronic structure calculation'
    'using numerically tabulated basis functions'
    Journal of Computational Physics 228, 8367-8379 (2009).
    http://dx.doi.org/10.1016/j.jcp.2009.08.008

  Of course, there are many other important community references, e.g., those cited in the
  above references. Our list is limited to references that describe implementations in the
  FHI-aims code. The reason is purely practical (length of this list) - please credit others as well.

------------------------------------------------------------
          Leaving FHI-aims.
          Date     :  20190817, Time     :  153414.951

          Computational steps:
          | Number of self-consistency cycles          :           78
          | Number of SCF (re)initializations          :           15

          Detailed time accounting                     :  max(cpu_time)    wall_clock(cpu1)
          | Total time                                 :       49.963 s          49.989 s
          | Preparation time                           :        0.374 s           0.374 s
          | Boundary condition initalization           :        0.823 s           0.807 s
          | Grid partitioning                          :        0.332 s           0.332 s
          | Preloading free-atom quantities on grid    :        0.585 s           0.583 s
          | Free-atom superposition energy             :        0.108 s           0.108 s
          | Total time for integrations                :       15.505 s          15.509 s
          | Total time for solution of K.-S. equations :        0.281 s           0.284 s
          | Total time for density update              :       16.906 s          16.838 s
          | Total time for mixing & preconditioning    :        3.991 s           3.995 s
          | Total time for Hartree multipole update    :        0.082 s           0.081 s
          | Total time for Hartree multipole sum       :        8.560 s           8.567 s
          | Total time for total energy evaluation     :        0.012 s           0.010 s
          | Total time for scaled ZORA corrections     :        0.000 s           0.000 s

          Partial memory accounting:
          | Residual value for overall tracked memory usage across tasks:     0.000000 MB (should be 0.000000 MB)
          | Peak values for overall tracked memory usage:
          |   Minimum:        8.240 MB (on task 0 after allocating wave)
          |   Maximum:        8.710 MB (on task 3 after allocating wave)
          |   Average:        8.525 MB
          | Largest tracked array allocation:
          |   Minimum:        2.342 MB (density_matrix_con on task 0)
          |   Maximum:        2.567 MB (density_matrix_con on task 3)
          |   Average:        2.475 MB
          Note:  These values currently only include a subset of arrays which are explicitly tracked.
          The "true" memory usage will be greater.

          Have a nice day.
------------------------------------------------------------
