  MPI-parallelism will be employed.
------------------------------------------------------------
          Invoking FHI-aims ...
          Version 180101-
          Git rev. (modified): fa29f3a Merge branch master of fhiaims.rzberlin.mp[...]
          Compiled on 2018/01/19 at 14:47:46 on host theobook132.

          When using FHI-aims, please cite the following reference:

          Volker Blum, Ralf Gehrke, Felix Hanke, Paula Havu,
          Ville Havu, Xinguo Ren, Karsten Reuter, and Matthias Scheffler,
          'Ab Initio Molecular Simulations with Numeric Atom-Centered Orbitals',
          Computer Physics Communications 180, 2175-2196 (2009)

          For any questions about FHI-aims, please visit the aimsclub website
          with its forums and wiki. Contributions to both the forums and the
          wiki are warmly encouraged - they are for you, and everyone is welcome there.

------------------------------------------------------------



  Date     :  20180215, Time     :  214504.734
  Time zero on CPU 1             :   0.480000000000000E-01  s.
  Internal wall clock time zero  :           287963104.734  s.

  FHI-aims created a unique identifier for this run for later identification
  aims_uuid : 90881197-9797-4F49-A6FE-BD4EF8E5CED1

  Using        8 parallel tasks.
  Task        0 on host theobook132 reporting.
  Task        1 on host theobook132 reporting.
  Task        2 on host theobook132 reporting.
  Task        3 on host theobook132 reporting.
  Task        4 on host theobook132 reporting.
  Task        5 on host theobook132 reporting.
  Task        6 on host theobook132 reporting.
  Task        7 on host theobook132 reporting.

  Performing system and environment tests:
  *** Environment variable OMP_NUM_THREADS is not set
  *** For performance reasons you might want to set it to 1
  | Stacksize not measured: no C compiler
  | Checking for scalapack...
  | No scalapack compiled in.

  Obtaining array dimensions for all initial allocations:
  
  -----------------------------------------------------------------------
  Parsing control.in (first pass over file, find array dimensions only).
  The contents of control.in will be repeated verbatim below
  unless switched off by setting 'verbatim_writeout .false.' .
  in the first line of control.in .
  -----------------------------------------------------------------------
  
  ################################################################################
  #
  #		Control.in generated by mkcontrol
  #
  ################################################################################
  xc			pbe
  vdw_correction_hirshfeld
  relativistic		none
  sc_accuracy_rho		1E-5
  sc_accuracy_eev		1E-3
  sc_accuracy_etot	1E-6
  sc_iter_limit		1000	
  
  compute_forces .true.
  final_forces_cleaned .true.
  
  ################################################################################
  #
  #  FHI-aims code project
  #  VB, Fritz-Haber Institut, 2009
  #
  #  Suggested "light" defaults for H atom (to be pasted into control.in file)
  #  Be sure to double-check any results obtained with these settings for post-processing,
  #  e.g., with the "tight" defaults and larger basis sets.
  #
  ################################################################################
    species        H
  #     global species definitions
      nucleus             1
      mass                1.00794
  #
      l_hartree           4
  #
      cut_pot             3.5  1.5  1.0
      basis_dep_cutoff    1e-4
  #
      radial_base         24 5.0
      radial_multiplier   1
      angular_grids       specified
        division   0.2421   50
        division   0.3822  110
        division   0.4799  194
        division   0.5341  302
  #      division   0.5626  434
  #      division   0.5922  590
  #      division   0.6542  770
  #      division   0.6868 1202
  #      outer_grid  770
        outer_grid  302
  ################################################################################
  #
  #  Definition of "minimal" basis
  #
  ################################################################################
  #     valence basis states
      valence      1  s   1.
  #     ion occupancy
      ion_occ      1  s   0.5
  ################################################################################
  #
  #  Suggested additional basis functions. For production calculations,
  #  uncomment them one after another (the most important basis functions are
  #  listed first).
  #
  #  Basis constructed for dimers: 0.5 A, 0.7 A, 1.0 A, 1.5 A, 2.5 A
  #
  ################################################################################
  #  "First tier" - improvements: -1014.90 meV to -62.69 meV
       hydro 2 s 2.1
       hydro 2 p 3.5
  #  "Second tier" - improvements: -12.89 meV to -1.83 meV
  #     hydro 1 s 0.85
  #     hydro 2 p 3.7
  #     hydro 2 s 1.2
  #     hydro 3 d 7
  #  "Third tier" - improvements: -0.25 meV to -0.12 meV
  #     hydro 4 f 11.2
  #     hydro 3 p 4.8
  #     hydro 4 d 9
  #     hydro 3 s 3.2
  
  ################################################################################
  #
  #  FHI-aims code project
  #  VB, Fritz-Haber Institut, 2009
  #
  #  Suggested "light" defaults for C atom (to be pasted into control.in file)
  #  Be sure to double-check any results obtained with these settings forpost-processing,
  #  e.g., with the "tight" defaults and larger basis sets.
  #
  ################################################################################
    species        C
  #     global species definitions
      nucleus             6
      mass                12.0107
  #
      l_hartree           4
  #
      cut_pot             3.5  1.5  1.0
      basis_dep_cutoff    1e-4
  #
      radial_base         34 5.0
      radial_multiplier   1
      angular_grids specified
        division   0.3326   50
        division   0.5710  110
        division   0.7727  194
        division   0.8772  302
  #      division   0.9334  434
  #      division   0.9625  590
  #      division   0.9924  770
  #      division   1.0230  974
  #      division   1.4589 1202
  #     outer_grid  974
       outer_grid 302
  ################################################################################
  #
  #  Definition of "minimal" basis
  #
  ################################################################################
  #     valence basis states
      valence      2  s   2.
      valence      2  p   2.
  #     ion occupancy
      ion_occ      2  s   1.
      ion_occ      2  p   1.
  ################################################################################
  #
  #  Suggested additional basis functions. For production calculations,
  #  uncomment them one after another (the most important basis functions are
  #  listed first).
  #
  #  Constructed for dimers: 1.0 A, 1.25 A, 1.5 A, 2.0 A, 3.0 A
  #
  ################################################################################
  #  "First tier" - improvements: -1214.57 meV to -155.61 meV
       hydro 2 p 1.7
       hydro 3 d 6
       hydro 2 s 4.9
  #  "Second tier" - improvements: -67.75 meV to -5.23 meV
  #     hydro 4 f 9.8
  #     hydro 3 p 5.2
  #     hydro 3 s 4.3
  #     hydro 5 g 14.4
  #     hydro 3 d 6.2
  #  "Third tier" - improvements: -2.43 meV to -0.60 meV
  #     hydro 2 p 5.6
  #     hydro 2 s 1.4
  #     hydro 3 d 4.9
  #     hydro 4 f 11.2
  #  "Fourth tier" - improvements: -0.39 meV to -0.18 meV
  #     hydro 2 p 2.1
  #     hydro 5 g 16.4
  #     hydro 4 d 13.2
  #     hydro 3 s 13.6
  #     hydro 4 f 17.6
  #  Further basis functions - improvements: -0.08 meV and below
  #     hydro 3 s 2
  #     hydro 3 p 6
  #     hydro 4 d 20
  
  -----------------------------------------------------------------------
  Completed first pass over input file control.in .
  -----------------------------------------------------------------------
  
  
  -----------------------------------------------------------------------
  Parsing geometry.in (first pass over file, find array dimensions only).
  The contents of geometry.in will be repeated verbatim below
  unless switched off by setting 'verbatim_writeout .false.' .
  in the first line of geometry.in .
  -----------------------------------------------------------------------
  
  #=======================================#
  # iterations/iteration0037/aims-chain-node-0.75049/geometry.in
  #=======================================#
  atom -0.9677912062801682 -1.2620129613621969 -0.4036173118224170 C
  atom -0.4095201487362887 -0.5324084391873528 0.7824451128930157 C
  atom 0.4095201464631012 0.5324084411470352 0.7824451127584977 C
  atom 0.9677912072117262 1.2620129605649080 -0.4036173121655857 C
  atom -0.5988677107826884 -0.8725061933664402 -1.3611574595416236 H
  atom -2.0683710555600801 -1.2038457746395970 -0.4185886579398290 H
  atom -0.7136969047567573 -2.3330735084305334 -0.3570933933375123 H
  atom -0.7150502897943415 -0.9259864714936056 1.7580117107200943 H
  atom 0.7150502853389362 0.9259864753527457 1.7580117104998243 H
  atom 0.5988677092961222 0.8725061944811828 -1.3611574597378460 H
  atom 0.7136969113906185 2.3330735089452510 -0.3570933934717471 H
  atom 2.0683710562098168 1.2038457679885948 -0.4185886588548955 H
  
  -----------------------------------------------------------------------
  Completed first pass over input file geometry.in .
  -----------------------------------------------------------------------
  

  Basic array size parameters:
  | Number of species                 :        2
  | Number of atoms                   :       12
  | Max. basis fn. angular momentum   :        2
  | Max. atomic/ionic basis occupied n:        2
  | Max. number of basis fn. types    :        2
  | Max. radial fns per species/type  :        3
  | Max. logarithmic grid size        :     1277
  | Max. radial integration grid size :       34
  | Max. angular integration grid size:      302
  | Max. angular grid division number :        8
  | Radial grid for Hartree potential :     1277
  | Number of spin channels           :        1

------------------------------------------------------------
          Reading file control.in.
------------------------------------------------------------
  XC: Using PBE gradient-corrected functionals.
  Non-relativistic treatment of kinetic energy.
  Convergence accuracy of self-consistent charge density:  0.1000E-04
  Convergence accuracy of sum of eigenvalues:  0.1000E-02
  Convergence accuracy of total energy:  0.1000E-05
  Maximum number of s.-c. iterations  :  1000
  Forces will be computed.
  Cleaning forces before final output.
 
  Reading configuration options for species H                   .
  | Found nuclear charge :   1.0000
  | Found atomic mass :    1.00794000000000      amu
  | Found l_max for Hartree potential  :   4
  | Found cutoff potl. onset [A], width [A], scale factor :    3.50000    1.50000    1.00000
  | Threshold for basis-dependent cutoff potential is   0.100000E-03
  | Found data for basic radial integration grid :    24 points, outermost radius =    5.000 A
  | Found multiplier for basic radial grid :   1
  | Found angular grid specification: user-specified.
  | Specified grid contains     5 separate shells.
  | Check grid settings after all constraints further below.
  | Found free-atom valence shell :  1 s   1.000
  | No ionic wave fns used. Skipping ion_occ.
  | Found hydrogenic basis function :  2 s   2.100
  | Found hydrogenic basis function :  2 p   3.500
  Species H                   : Missing cutoff potential type.
  Defaulting to exp(1/x)/(1-x)^2 type cutoff potential.
  Species H : No 'logarithmic' tag. Using default grid for free atom:
  | Default logarithmic grid data [bohr] : 0.1000E-03 0.1000E+03 0.1012E+01
  Species H : On-site basis accuracy parameter (for Gram-Schmidt orthonormalisation) not specified.
  Using default value basis_acc =  0.1000000E-03.
  Species H                   : Using default innermost maximum threshold i_radial=  2 for radial functions.
  Species H                   : Default cutoff onset for free atom density etc. : 0.35000000E+01 AA.
  Species H                   : Basic radial grid will be enhanced according to radial_multiplier =   1, to contain    24 grid points.
 
  Reading configuration options for species C                   .
  | Found nuclear charge :   6.0000
  | Found atomic mass :    12.0107000000000      amu
  | Found l_max for Hartree potential  :   4
  | Found cutoff potl. onset [A], width [A], scale factor :    3.50000    1.50000    1.00000
  | Threshold for basis-dependent cutoff potential is   0.100000E-03
  | Found data for basic radial integration grid :    34 points, outermost radius =    5.000 A
  | Found multiplier for basic radial grid :   1
  | Found angular grid specification: user-specified.
  | Specified grid contains     5 separate shells.
  | Check grid settings after all constraints further below.
  | Found free-atom valence shell :  2 s   2.000
  | Found free-atom valence shell :  2 p   2.000
  | No ionic wave fns used. Skipping ion_occ.
  | No ionic wave fns used. Skipping ion_occ.
  | Found hydrogenic basis function :  2 p   1.700
  | Found hydrogenic basis function :  3 d   6.000
  | Found hydrogenic basis function :  2 s   4.900
  Species C                   : Missing cutoff potential type.
  Defaulting to exp(1/x)/(1-x)^2 type cutoff potential.
  Species C : No 'logarithmic' tag. Using default grid for free atom:
  | Default logarithmic grid data [bohr] : 0.1000E-03 0.1000E+03 0.1012E+01
  Species C : On-site basis accuracy parameter (for Gram-Schmidt orthonormalisation) not specified.
  Using default value basis_acc =  0.1000000E-03.
  Species C                   : Using default innermost maximum threshold i_radial=  2 for radial functions.
  Species C                   : Default cutoff onset for free atom density etc. : 0.35000000E+01 AA.
  Species C                   : Basic radial grid will be enhanced according to radial_multiplier =   1, to contain    34 grid points.
 
  Finished reading input file 'control.in'. Consistency checks are next.
 
  MPI_IN_PLACE appears to work with this MPI implementation.
  | Keeping use_mpi_in_place .true. (see manual).
  Target number of points in a grid batch is not set. Defaulting to  100
  Method for grid partitioning is not set. Defaulting to parallel hash+maxmin partitioning.
  Batch size limit is not set. Defaulting to    200
  By default, will store active basis functions for each batch.
  If in need of memory, prune_basis_once .false. can be used to disable this option.
  communication_type for Hartree potential was not specified.
  Defaulting to calc_hartree .
  Defaulting to Pulay charge density mixer.
  Pulay mixer: Number of relevant iterations not set.
  Defaulting to    8 iterations.
  Pulay mixer: Number of initial linear mixing iterations not set.
  Defaulting to    0 iterations.
  Work space size for distributed Hartree potential not set.
  Defaulting to   0.200000E+03 MB.
  Mixing parameter for charge density mixing has not been set.
  Using default: charge_mix_param =     0.0500.
  The mixing parameter will be adjusted in iteration number     2 of the first full s.c.f. cycle only.
  Algorithm-dependent basis array size parameters:
  | n_max_pulay                         :        8
  Presetting        40 iterations before the initial mixing cycle
  is restarted anyway using the sc_init_iter criterion / keyword.
  Presetting a factor      1.000 between actual scf density residual
  and density convergence criterion sc_accuracy_rho below which sc_init_iter
  takes no effect.
  Geometry relaxation not requested: no relaxation will be performed.
  Force calculation: scf convergence accuracy of forces not set.
  Defaulting to 'sc_accuracy_forces not_checked'.
  Handling of forces: Unphysical translation and rotation will be removed from forces.
  No accuracy limit for integral partition fn. given. Defaulting to  0.1000E-14.
  No threshold value for u(r) in integrations given. Defaulting to  0.1000E-05.
  No occupation type (smearing scheme) given. Defaulting to Gaussian broadening, width =  0.1000E-01 eV.
  The width will be adjusted in iteration number     2 of the first full s.c.f. cycle only.
  S.C.F. convergence parameters will be adjusted in iteration number     2 of the first full s.c.f. cycle only.
  No accuracy for occupation numbers given. Defaulting to  0.1000E-12.
  No threshold value for occupation numbers given. Defaulting to  0.0000E+00.
  No accuracy for fermi level given. Defaulting to  0.1000E-19.
  Maximum # of iterations to find E_F not set. Defaulting to  200.
  Preferred method for the eigenvalue solver ('KS_method') not specified in 'control.in'.
  Calling BLACS routine to test compilation state
  The best choice would be 'elsi', but your version of FHI-aims is compiled without ScaLAPACK support.
  Defaulting to 'lapack_fast' instead (serial solution, time will not improve with more CPUs).
  Will not use alltoall communication since running on < 1024 CPUs.
  Threshold for basis singularities not set.
  Default threshold for basis singularities:  0.1000E-04
  partition_type (choice of integration weights) for integrals was not specified.
  | Using a version of the partition function of Stratmann and coworkers ('stratmann_smoother').
  | At each grid point, the set of atoms used to build the partition table is smoothly restricted to
  | only those atoms whose free-atom density would be non-zero at that grid point.
  Partitioning for Hartree potential was not defined. Using partition_type for integrals.
  | Adjusted default value of keyword multip_moments_threshold to:       0.10000000E-11
  | This value may affect high angular momentum components of the Hartree potential in periodic systems.
  Spin handling was not defined in control.in. Defaulting to unpolarized case.
  No q(lm)/r^(l+1) cutoff set for long-range Hartree potential.
  | Using default value of  0.100000E-09 .
  | Verify using the multipole_threshold keyword.
  Defaulting to new monopole extrapolation.
  Density update method: automatic selection selected.
------------------------------------------------------------


------------------------------------------------------------
          Reading geometry description geometry.in.
------------------------------------------------------------
  Input structure read successfully.
  The structure contains       12 atoms,  and a total of         32.000 electrons.

  Input geometry:
  | No unit cell requested.
  | Atomic structure:
  |       Atom                x [A]            y [A]            z [A]
  |    1: Species C            -0.96779121       -1.26201296       -0.40361731
  |    2: Species C            -0.40952015       -0.53240844        0.78244511
  |    3: Species C             0.40952015        0.53240844        0.78244511
  |    4: Species C             0.96779121        1.26201296       -0.40361731
  |    5: Species H            -0.59886771       -0.87250619       -1.36115746
  |    6: Species H            -2.06837106       -1.20384577       -0.41858866
  |    7: Species H            -0.71369690       -2.33307351       -0.35709339
  |    8: Species H            -0.71505029       -0.92598647        1.75801171
  |    9: Species H             0.71505029        0.92598648        1.75801171
  |   10: Species H             0.59886771        0.87250619       -1.36115746
  |   11: Species H             0.71369691        2.33307351       -0.35709339
  |   12: Species H             2.06837106        1.20384577       -0.41858866
  |

  | The smallest distance between any two atoms is         1.09543714 AA.
  |
  | The first atom of this pair is atom number                      3 .
  | The second atom of this pair is atom number                     9 .

  Number of empty states per atom not set in control.in - providing a guess from actual geometry.
  | Total number of empty states used during s.c.f. cycle:       24
  If you use a very high smearing, use empty_states (per atom!) in control.in to increase this value.

  Structure-dependent array size parameters: 
  | Maximum number of distinct radial functions  :        9
  | Maximum number of basis functions            :       96
  | Number of Kohn-Sham states (occupied + empty):       40
------------------------------------------------------------

------------------------------------------------------------
          Preparing all fixed parts of the calculation.
------------------------------------------------------------
  Determining machine precision:
    2.225073858507201E-308
  Setting up grids for atomic and cluster calculations.

  Creating wave function, potential, and density for free atoms.

  Species: H

  List of occupied orbitals and eigenvalues:
    n    l              occ      energy [Ha]    energy [eV]
    1    0           1.0000        -0.237589        -6.4651


  Species: C

  List of occupied orbitals and eigenvalues:
    n    l              occ      energy [Ha]    energy [eV]
    1    0           2.0000       -10.038835      -273.1706
    2    0           2.0000        -0.502696       -13.6791
    2    1           2.0000        -0.191971        -5.2238

  Creating fixed part of basis set: Ionic, confined, hydrogenic.
 
  H                    hydrogenic:
 
  List of hydrogenic basis orbitals: 
    n    l      effective z      eigenvalue [eV]  inner max. [A]     outer max. [A]     outer radius [A]   
    2    0         2.100000       -14.9728           0.193243           1.317208           4.583499
    2    1         3.500000       -41.6669           0.602369           0.602369           3.723403
 
 
  C                    hydrogenic:
 
  List of hydrogenic basis orbitals: 
    n    l      effective z      eigenvalue [eV]  inner max. [A]     outer max. [A]     outer radius [A]   
    2    1         1.700000        -9.7616           1.230570           1.230570           4.607917
    3    2         6.000000       -54.4224           0.792453           0.792453           3.883070
    2    0         4.900000       -81.6679           0.082559           0.562749           3.078220
 

  Adding cutoff potential to free-atom effective potential.
  Creating atomic-like basis functions for current effective potential.

  Species H                   :

  List of atomic basis orbitals and eigenvalues:
    n    l      energy [Ha]    energy [eV]    outer radius [A]
    1    0        -0.237589        -6.4651       4.527807


  Species C                   :

  List of atomic basis orbitals and eigenvalues:
    n    l      energy [Ha]    energy [eV]    outer radius [A]
    1    0       -10.038835      -273.1706       1.934409
    2    0        -0.502696       -13.6791       4.496620
    2    1        -0.191971        -5.2238       4.551928

  Assembling full basis from fixed parts.
  | Species H :   atomic orbital   1 s accepted.
  | Species H :    hydro orbital   2 s accepted.
  | Species H :    hydro orbital   2 p accepted.
  | Species C :   atomic orbital   1 s accepted.
  | Species C :    hydro orbital   2 s accepted.
  | Species C :   atomic orbital   2 s accepted.
  | Species C :   atomic orbital   2 p accepted.
  | Species C :    hydro orbital   2 p accepted.
  | Species C :    hydro orbital   3 d accepted.
 
  Basis size parameters after reduction:
  | Total number of radial functions:        9
  | Total number of basis functions :       96
 
  Per-task memory consumption for arrays in subroutine allocate_ext:
  |           2.209696MB.
  Testing on-site integration grid accuracy.
  |  Species  Function  <phi|h_atom|phi> (log., in eV)  <phi|h_atom|phi> (rad., in eV)
           1        1                 -6.4663192853                 -6.4651273558
           1        2                 13.7111246313                 13.7170609718
           1        3                 25.2673269279                 25.2674696378
           2        4               -273.1705927641               -273.1705631568
           2        5                -10.7109323383                -10.7107120029
           2        6                 17.4381822266                 17.4352413244
           2        7                 -5.2255326521                 -5.2270484734
           2        8                  8.6835629259                  8.6603288385
           2        9                 27.4952418996                 27.4953360207

  Preparing densities etc. for the partition functions (integrals / Hartree potential).

  Preparations completed.
  max(cpu_time)          :      0.128 s.
  Wall clock time (cpu1) :      0.128 s.
------------------------------------------------------------

------------------------------------------------------------
          Begin self-consistency loop: Initialization.

          Date     :  20180215, Time     :  214504.882
------------------------------------------------------------

  Initializing index lists of integration centers etc. from given atomic structure:
  | Number of centers in hartree potential         :        12
  | Number of centers in hartree multipole         :        12
  | Number of centers in electron density summation:        12
  | Number of centers in basis integrals           :        12
  | Number of centers in integrals                 :        12
  | Number of centers in hamiltonian               :        12
  Partitioning the integration grid into batches with parallel hashing+maxmin method.
  | Number of batches:      862
  | Maximal batch size:     143
  | Minimal batch size:      52
  | Average batch size:      70.701
  | Standard deviation of batch sizes:      22.248

  Integration load balanced across     8 MPI tasks.
  Work distribution over tasks is as follows:
  Task     0 has       7578 integration points.
  Task     1 has       7581 integration points.
  Task     2 has       7696 integration points.
  Task     3 has       7584 integration points.
  Task     4 has       7578 integration points.
  Task     5 has       7718 integration points.
  Task     6 has       7584 integration points.
  Task     7 has       7625 integration points.
  Initializing partition tables, free-atom densities, potentials, etc. across the integration grid (initialize_grid_storage).
  | initialize_grid_storage: Actual outermost partition radius vs. multipole_radius_free
  | (-- VB: in principle, multipole_radius_free should be larger, hence this output)
  | Species        1: Confinement radius =              4.999999999999999 AA, multipole_radius_free =              5.054417573612229 AA.
  | Species        1: outer_partition_radius set to              5.054417573612229 AA .
  | Species        2: Confinement radius =              4.999999999999999 AA, multipole_radius_free =              5.019602836301480 AA.
  | Species        2: outer_partition_radius set to              5.019602836301480 AA .
  | Original list of interatomic distances with          12 x         12 entries is created.
  | Net number of integration points:    60944
  | of which are non-zero points    :    52338
  Renormalizing the initial density to the exact electron count on the 3D integration grid.
  | Initial density: Formal number of electrons (from input files) :      32.0000000000
  | Integrated number of electrons on 3D grid     :      31.9997854191
  | Charge integration error                      :      -0.0002145809
  | Normalization factor for density and gradient :       1.0000067057
  Obtaining max. number of non-zero basis functions in each batch (get_n_compute_maxes).
  | Maximal number of non-zero basis functions:       96 in task     0
  | Maximal number of non-zero basis functions:       96 in task     1
  | Maximal number of non-zero basis functions:       96 in task     2
  | Maximal number of non-zero basis functions:       96 in task     3
  | Maximal number of non-zero basis functions:       96 in task     4
  | Maximal number of non-zero basis functions:       96 in task     5
  | Maximal number of non-zero basis functions:       96 in task     6
  | Maximal number of non-zero basis functions:       96 in task     7
  Selecting the method for density update.
  Loop over occupied states selected for charge density update.
  Allocating        0.031 MB for KS_eigenvector
  Integrating Hamiltonian matrix: batch-based integration.
  Time summed over all CPUs for integration: real work        1.365 s, elapsed        1.383 s
  Integrating overlap matrix.
  Time summed over all CPUs for integration: real work        0.503 s, elapsed        0.514 s

  Updating Kohn-Sham eigenvalues, eigenvectors, occupation numbers, and Fermi level.
  Solving generalized eigenproblem
  Updating Kohn-Sham eigenvalues and eigenfunctions.
  Transforming overlap matrix and checking for singularities.
  Overlap matrix is nonsingular:
  | Lowest eigenvalue:  0.300898E-02
  Solving real generalised eigenvalue problem by standard LAPACK (fast)

  Obtaining occupation numbers and chemical potential using ELSI.
  | Chemical potential (Fermi level):    -8.54652373eV
  Writing Kohn-Sham eigenvalues.

  State    Occupation    Eigenvalue [Ha]    Eigenvalue [eV]
      1       2.00000         -10.166752         -276.65140
      2       2.00000         -10.166752         -276.65140
      3       2.00000         -10.151231         -276.22905
      4       2.00000         -10.150594         -276.21170
      5       2.00000          -0.927362          -25.23480
      6       2.00000          -0.850850          -23.15281
      7       2.00000          -0.795378          -21.64334
      8       2.00000          -0.656404          -17.86165
      9       2.00000          -0.611680          -16.64467
     10       2.00000          -0.574106          -15.62222
     11       2.00000          -0.546976          -14.88398
     12       2.00000          -0.533587          -14.51963
     13       2.00000          -0.526074          -14.31521
     14       2.00000          -0.503351          -13.69689
     15       2.00000          -0.478769          -13.02798
     16       2.00000          -0.385660          -10.49434
     17       0.00000          -0.177059           -4.81802
     18       0.00000          -0.047733           -1.29888
     19       0.00000          -0.032596           -0.88698
     20       0.00000          -0.002677           -0.07283
     21       0.00000           0.003833            0.10431
     22       0.00000           0.015555            0.42328
     23       0.00000           0.026943            0.73315
     24       0.00000           0.029568            0.80458
     25       0.00000           0.034697            0.94416
     26       0.00000           0.057822            1.57342
     27       0.00000           0.132465            3.60456
     28       0.00000           0.165061            4.49154
     29       0.00000           0.188984            5.14252
     30       0.00000           0.204853            5.57433
     31       0.00000           0.238622            6.49325
     32       0.00000           0.278907            7.58943
     33       0.00000           0.279695            7.61088
     34       0.00000           0.299323            8.14499
     35       0.00000           0.303398            8.25588
     36       0.00000           0.315519            8.58570
     37       0.00000           0.404547           11.00828
     38       0.00000           0.445631           12.12623
     39       0.00000           0.508935           13.84883
     40       0.00000           0.520893           14.17423

  Highest occupied state (VBM) at    -10.49433626 eV
  | Occupation number:      2.00000000

  Lowest unoccupied state (CBM) at    -4.81801810 eV
  | Occupation number:      0.00000000

  Overall HOMO-LUMO gap:      5.67631816 eV.
  Calculating total energy contributions from superposition of free atom densities.

  Total energy components:
  | Sum of eigenvalues            :         -96.05105199 Ha       -2613.68210729 eV
  | XC energy correction          :         -23.66210111 Ha        -643.87853128 eV
  | XC potential correction       :          30.39633292 Ha         827.12630242 eV
  | Free-atom electrostatic energy:         -68.00939059 Ha       -1850.62967698 eV
  | Hartree energy correction     :           0.00000000 Ha           0.00000000 eV
  | vdW energy correction         :           0.00000000 Ha           0.00000000 eV
  | Entropy correction            :           0.00000000 Ha           0.00000000 eV
  | ---------------------------
  | Total energy                  :        -157.32621077 Ha       -4281.06401312 eV
  | Total energy, T -> 0          :        -157.32621077 Ha       -4281.06401312 eV  <-- do not rely on this value for anything but (periodic) metals
  | Electronic free energy        :        -157.32621077 Ha       -4281.06401312 eV

  Derived energy quantities:
  | Kinetic energy                :         154.19746734 Ha        4195.92657270 eV
  | Electrostatic energy          :        -287.86157700 Ha       -7833.11205455 eV
  | Energy correction for multipole
  | error in Hartree potential    :           0.00000000 Ha           0.00000000 eV
  | Sum of eigenvalues per atom                           :        -217.80684227 eV
  | Total energy (T->0) per atom                          :        -356.75533443 eV  <-- do not rely on this value for anything but (periodic) metals
  | Electronic free energy per atom                       :        -356.75533443 eV
  Initialize hartree_potential_storage
  Max. number of atoms included in rho_multipole:           12

  End scf initialization - timings             :  max(cpu_time)    wall_clock(cpu1)
  | Time for scf. initialization               :        0.444 s           0.445 s
  | Boundary condition initialization          :        0.000 s           0.000 s
  | Integration                                :        0.248 s           0.247 s
  | Solution of K.-S. eqns.                    :        0.012 s           0.011 s
  | Grid partitioning                          :        0.080 s           0.077 s
  | Preloading free-atom quantities on grid    :        0.004 s           0.003 s
  | Free-atom superposition energy             :        0.024 s           0.022 s
  | Total energy evaluation                    :        0.000 s           0.001 s

  Partial memory accounting:
  | Current value for overall tracked memory usage on task 0  :           0.179 MB
  | Peak value for overall tracked memory usage on task 0     :           0.511 MB after allocating wave
  | Largest tracked array allocation on task 0 so far         :           0.110 MB  when allocating H_times_psi
  Note:  These values currently only include a subset of arrays which are explicitly tracked.
  The "true" memory usage will be greater.
------------------------------------------------------------

------------------------------------------------------------
          Begin self-consistency iteration #    1

  Date     :  20180215, Time     :  214505.328
------------------------------------------------------------
  Evaluating new KS density.
  Integration grid: deviation in total charge (<rho> - N_e) =  -3.552714E-15
  Pulay mixing of updated and previous charge densities.

  Evaluating partitioned Hartree potential by multipole expansion.
  | Analytical far-field extrapolation by fixed multipoles:
  | Hartree multipole sum: apparent total charge =  -0.245187E-03
  Summing up the Hartree potential.
  Time summed over all CPUs for potential: real work        1.282 s, elapsed        1.300 s
  | RMS charge density error from multipole expansion :   0.134946E-02

  Integrating Hamiltonian matrix: batch-based integration.
  Time summed over all CPUs for integration: real work        1.336 s, elapsed        1.369 s

  Updating Kohn-Sham eigenvalues, eigenvectors, occupation numbers, and Fermi level.
  Solving generalized eigenproblem
  Updating Kohn-Sham eigenvalues and eigenfunctions.
  Solving real generalised eigenvalue problem by standard LAPACK (fast)

  Obtaining occupation numbers and chemical potential using ELSI.
  | Chemical potential (Fermi level):    -8.14240238eV
  Writing Kohn-Sham eigenvalues.

  State    Occupation    Eigenvalue [Ha]    Eigenvalue [eV]
      1       2.00000         -10.131876         -275.70238
      2       2.00000         -10.131876         -275.70238
      3       2.00000         -10.121722         -275.42607
      4       2.00000         -10.121084         -275.40871
      5       2.00000          -0.907025          -24.68141
      6       2.00000          -0.831861          -22.63610
      7       2.00000          -0.776072          -21.11800
      8       2.00000          -0.639379          -17.39838
      9       2.00000          -0.594678          -16.18200
     10       2.00000          -0.554013          -15.07546
     11       2.00000          -0.530434          -14.43385
     12       2.00000          -0.517170          -14.07292
     13       2.00000          -0.508568          -13.83883
     14       2.00000          -0.486705          -13.24391
     15       2.00000          -0.461599          -12.56076
     16       2.00000          -0.368511          -10.02768
     17       0.00000          -0.160507           -4.36763
     18       0.00000          -0.038770           -1.05499
     19       0.00000          -0.023258           -0.63289
     20       0.00000           0.005958            0.16213
     21       0.00000           0.020333            0.55329
     22       0.00000           0.025487            0.69354
     23       0.00000           0.038295            1.04207
     24       0.00000           0.039623            1.07819
     25       0.00000           0.045073            1.22649
     26       0.00000           0.069071            1.87953
     27       0.00000           0.145528            3.96002
     28       0.00000           0.174814            4.75693
     29       0.00000           0.201123            5.47284
     30       0.00000           0.215273            5.85787
     31       0.00000           0.252152            6.86140
     32       0.00000           0.289635            7.88138
     33       0.00000           0.290510            7.90519
     34       0.00000           0.309647            8.42591
     35       0.00000           0.320433            8.71944
     36       0.00000           0.325295            8.85173
     37       0.00000           0.416157           11.32422
     38       0.00000           0.458272           12.47021
     39       0.00000           0.519769           14.14365
     40       0.00000           0.534048           14.53217

  Highest occupied state (VBM) at    -10.02768175 eV
  | Occupation number:      2.00000000

  Lowest unoccupied state (CBM) at    -4.36763047 eV
  | Occupation number:      0.00000000

  Overall HOMO-LUMO gap:      5.66005128 eV.

  Total energy components:
  | Sum of eigenvalues            :         -95.36514703 Ha       -2595.01768368 eV
  | XC energy correction          :         -23.72238696 Ha        -645.51899285 eV
  | XC potential correction       :          30.47445884 Ha         829.25221695 eV
  | Free-atom electrostatic energy:         -68.00939059 Ha       -1850.62967698 eV
  | Hartree energy correction     :          -0.65459114 Ha         -17.81233115 eV
  | vdW energy correction         :           0.00000000 Ha           0.00000000 eV
  | Entropy correction            :           0.00000000 Ha           0.00000000 eV
  | ---------------------------
  | Total energy                  :        -157.27705688 Ha       -4279.72646771 eV
  | Total energy, T -> 0          :        -157.27705688 Ha       -4279.72646771 eV  <-- do not rely on this value for anything but (periodic) metals
  | Electronic free energy        :        -157.27705688 Ha       -4279.72646771 eV

  Derived energy quantities:
  | Kinetic energy                :         154.52547712 Ha        4204.85217302 eV
  | Electrostatic energy          :        -288.08014704 Ha       -7839.05964788 eV
  | Energy correction for multipole
  | error in Hartree potential    :           0.00233354 Ha           0.06349877 eV
  | Sum of eigenvalues per atom                           :        -216.25147364 eV
  | Total energy (T->0) per atom                          :        -356.64387231 eV  <-- do not rely on this value for anything but (periodic) metals
  | Electronic free energy per atom                       :        -356.64387231 eV

  Self-consistency convergence accuracy:
  | Change of charge density      :  0.4877E+00
  | Change of sum of eigenvalues  :  0.1866E+02 eV
  | Change of total energy        :  0.1338E+01 eV

  End self-consistency iteration #     1       :  max(cpu_time)    wall_clock(cpu1)
  | Time for this iteration                    :        0.540 s           0.537 s
  | Charge density update                      :        0.176 s           0.173 s
  | Density mixing                             :        0.004 s           0.002 s
  | Hartree multipole update                   :        0.012 s           0.010 s
  | Hartree multipole summation                :        0.168 s           0.169 s
  | Integration                                :        0.180 s           0.178 s
  | Solution of K.-S. eqns.                    :        0.004 s           0.002 s
  | Total energy evaluation                    :        0.004 s           0.001 s

  Partial memory accounting:
  | Current value for overall tracked memory usage on task 0  :           0.179 MB
  | Peak value for overall tracked memory usage on task 0     :           0.619 MB after allocating gradient_basis_wave
  | Largest tracked array allocation on task 0 so far         :           0.329 MB  when allocating gradient_basis_wave
  Note:  These values currently only include a subset of arrays which are explicitly tracked.
  The "true" memory usage will be greater.
------------------------------------------------------------

------------------------------------------------------------
          Begin self-consistency iteration #    2

  Date     :  20180215, Time     :  214505.866
------------------------------------------------------------
  Evaluating new KS density.
  Integration grid: deviation in total charge (<rho> - N_e) =   7.105427E-15
  Pulay mixing of updated and previous charge densities.

  Evaluating partitioned Hartree potential by multipole expansion.
  | Analytical far-field extrapolation by fixed multipoles:
  | Hartree multipole sum: apparent total charge =  -0.511864E-03
  Summing up the Hartree potential.
  Time summed over all CPUs for potential: real work        1.272 s, elapsed        1.308 s
  | RMS charge density error from multipole expansion :   0.132182E-01

  Integrating Hamiltonian matrix: batch-based integration.
  Time summed over all CPUs for integration: real work        1.368 s, elapsed        1.535 s

  Updating Kohn-Sham eigenvalues, eigenvectors, occupation numbers, and Fermi level.
  Solving generalized eigenproblem
  Updating Kohn-Sham eigenvalues and eigenfunctions.
  Solving real generalised eigenvalue problem by standard LAPACK (fast)

  Obtaining occupation numbers and chemical potential using ELSI.
  | Chemical potential (Fermi level):    -4.61274521eV
  Highest occupied state (VBM) at     -6.20905793 eV
  | Occupation number:      2.00000000

  Lowest unoccupied state (CBM) at    -0.70799879 eV
  | Occupation number:      0.00000000

  Overall HOMO-LUMO gap:      5.50105915 eV.

  Checking to see if s.c.f. parameters should be adjusted.
  The system likely has a gap. Increased the default Pulay mixing parameter (charge_mix_param). Value:   0.200000 .
  Kept the default occupation width. Value:   0.010000 eV.

  Total energy components:
  | Sum of eigenvalues            :         -89.67587896 Ha       -2440.20482288 eV
  | XC energy correction          :         -24.27501435 Ha        -660.55674928 eV
  | XC potential correction       :          31.19025164 Ha         848.72993016 eV
  | Free-atom electrostatic energy:         -68.00939059 Ha       -1850.62967698 eV
  | Hartree energy correction     :          -6.30622399 Ha        -171.60108572 eV
  | vdW energy correction         :           0.00000000 Ha           0.00000000 eV
  | Entropy correction            :           0.00000000 Ha           0.00000000 eV
  | ---------------------------
  | Total energy                  :        -157.07625625 Ha       -4274.26240470 eV
  | Total energy, T -> 0          :        -157.07625625 Ha       -4274.26240470 eV  <-- do not rely on this value for anything but (periodic) metals
  | Electronic free energy        :        -157.07625625 Ha       -4274.26240470 eV

  Derived energy quantities:
  | Kinetic energy                :         156.92877327 Ha        4270.24918846 eV
  | Electrostatic energy          :        -289.73001517 Ha       -7883.95484388 eV
  | Energy correction for multipole
  | error in Hartree potential    :           0.02203299 Ha           0.59954817 eV
  | Sum of eigenvalues per atom                           :        -203.35040191 eV
  | Total energy (T->0) per atom                          :        -356.18853373 eV  <-- do not rely on this value for anything but (periodic) metals
  | Electronic free energy per atom                       :        -356.18853373 eV

  Self-consistency convergence accuracy:
  | Change of charge density      :  0.4487E+00
  | Change of sum of eigenvalues  :  0.1548E+03 eV
  | Change of total energy        :  0.5464E+01 eV

  End self-consistency iteration #     2       :  max(cpu_time)    wall_clock(cpu1)
  | Time for this iteration                    :        0.556 s           0.554 s
  | Charge density update                      :        0.168 s           0.167 s
  | Density mixing                             :        0.004 s           0.003 s
  | Hartree multipole update                   :        0.012 s           0.011 s
  | Hartree multipole summation                :        0.172 s           0.171 s
  | Integration                                :        0.200 s           0.199 s
  | Solution of K.-S. eqns.                    :        0.004 s           0.002 s
  | Total energy evaluation                    :        0.000 s           0.000 s

  Partial memory accounting:
  | Current value for overall tracked memory usage on task 0  :           0.180 MB
  | Peak value for overall tracked memory usage on task 0     :           0.619 MB after allocating gradient_basis_wave
  | Largest tracked array allocation on task 0 so far         :           0.329 MB  when allocating gradient_basis_wave
  Note:  These values currently only include a subset of arrays which are explicitly tracked.
  The "true" memory usage will be greater.
------------------------------------------------------------

------------------------------------------------------------
          Begin self-consistency iteration #    3

  Date     :  20180215, Time     :  214506.420
------------------------------------------------------------
  Evaluating new KS density.
  Integration grid: deviation in total charge (<rho> - N_e) =   1.421085E-14
  Pulay mixing of updated and previous charge densities.

  Evaluating partitioned Hartree potential by multipole expansion.
  | Analytical far-field extrapolation by fixed multipoles:
  | Hartree multipole sum: apparent total charge =  -0.500784E-03
  Summing up the Hartree potential.
  Time summed over all CPUs for potential: real work        1.317 s, elapsed        1.467 s
  | RMS charge density error from multipole expansion :   0.164671E-01

  Integrating Hamiltonian matrix: batch-based integration.
  Time summed over all CPUs for integration: real work        1.478 s, elapsed        1.856 s

  Updating Kohn-Sham eigenvalues, eigenvectors, occupation numbers, and Fermi level.
  Solving generalized eigenproblem
  Updating Kohn-Sham eigenvalues and eigenfunctions.
  Solving real generalised eigenvalue problem by standard LAPACK (fast)

  Obtaining occupation numbers and chemical potential using ELSI.
  | Chemical potential (Fermi level):    -5.06636578eV
  Highest occupied state (VBM) at     -6.84602112 eV
  | Occupation number:      2.00000000

  Lowest unoccupied state (CBM) at    -1.32505027 eV
  | Occupation number:      0.00000000

  Overall HOMO-LUMO gap:      5.52097085 eV.

  Total energy components:
  | Sum of eigenvalues            :         -90.60940119 Ha       -2465.60725503 eV
  | XC energy correction          :         -24.23485383 Ha        -659.46392596 eV
  | XC potential correction       :          31.13458945 Ha         847.21528490 eV
  | Free-atom electrostatic energy:         -68.00939059 Ha       -1850.62967698 eV
  | Hartree energy correction     :          -5.35120286 Ha        -145.61363847 eV
  | vdW energy correction         :           0.00000000 Ha           0.00000000 eV
  | Entropy correction            :           0.00000000 Ha           0.00000000 eV
  | ---------------------------
  | Total energy                  :        -157.07025901 Ha       -4274.09921153 eV
  | Total energy, T -> 0          :        -157.07025901 Ha       -4274.09921153 eV  <-- do not rely on this value for anything but (periodic) metals
  | Electronic free energy        :        -157.07025901 Ha       -4274.09921153 eV

  Derived energy quantities:
  | Kinetic energy                :         156.28695053 Ha        4252.78430330 eV
  | Electrostatic energy          :        -289.12235571 Ha       -7867.41958887 eV
  | Energy correction for multipole
  | error in Hartree potential    :           0.02664428 Ha           0.72502767 eV
  | Sum of eigenvalues per atom                           :        -205.46727125 eV
  | Total energy (T->0) per atom                          :        -356.17493429 eV  <-- do not rely on this value for anything but (periodic) metals
  | Electronic free energy per atom                       :        -356.17493429 eV

  Self-consistency convergence accuracy:
  | Change of charge density      :  0.2106E+00
  | Change of sum of eigenvalues  : -0.2540E+02 eV
  | Change of total energy        :  0.1632E+00 eV

  End self-consistency iteration #     3       :  max(cpu_time)    wall_clock(cpu1)
  | Time for this iteration                    :        0.624 s           0.623 s
  | Charge density update                      :        0.172 s           0.170 s
  | Density mixing                             :        0.008 s           0.005 s
  | Hartree multipole update                   :        0.012 s           0.010 s
  | Hartree multipole summation                :        0.192 s           0.191 s
  | Integration                                :        0.244 s           0.242 s
  | Solution of K.-S. eqns.                    :        0.004 s           0.004 s
  | Total energy evaluation                    :        0.004 s           0.001 s

  Partial memory accounting:
  | Current value for overall tracked memory usage on task 0  :           0.180 MB
  | Peak value for overall tracked memory usage on task 0     :           0.619 MB after allocating gradient_basis_wave
  | Largest tracked array allocation on task 0 so far         :           0.329 MB  when allocating gradient_basis_wave
  Note:  These values currently only include a subset of arrays which are explicitly tracked.
  The "true" memory usage will be greater.
------------------------------------------------------------

------------------------------------------------------------
          Begin self-consistency iteration #    4

  Date     :  20180215, Time     :  214507.044
------------------------------------------------------------
  Evaluating new KS density.
  Integration grid: deviation in total charge (<rho> - N_e) =   2.842171E-14
  Pulay mixing of updated and previous charge densities.

  Evaluating partitioned Hartree potential by multipole expansion.
  | Analytical far-field extrapolation by fixed multipoles:
  | Hartree multipole sum: apparent total charge =  -0.574765E-03
  Summing up the Hartree potential.
  Time summed over all CPUs for potential: real work        1.340 s, elapsed        1.573 s
  | RMS charge density error from multipole expansion :   0.221791E-01

  Integrating Hamiltonian matrix: batch-based integration.
  Time summed over all CPUs for integration: real work        1.348 s, elapsed        1.398 s

  Updating Kohn-Sham eigenvalues, eigenvectors, occupation numbers, and Fermi level.
  Solving generalized eigenproblem
  Updating Kohn-Sham eigenvalues and eigenfunctions.
  Solving real generalised eigenvalue problem by standard LAPACK (fast)

  Obtaining occupation numbers and chemical potential using ELSI.
  | Chemical potential (Fermi level):    -4.40059002eV
  Highest occupied state (VBM) at     -6.20350616 eV
  | Occupation number:      2.00000000

  Lowest unoccupied state (CBM) at    -0.71392939 eV
  | Occupation number:      0.00000000

  Overall HOMO-LUMO gap:      5.48957677 eV.

  Total energy components:
  | Sum of eigenvalues            :         -89.70852381 Ha       -2441.09313420 eV
  | XC energy correction          :         -24.37194186 Ha        -663.19428106 eV
  | XC potential correction       :          31.30983699 Ha         851.98401309 eV
  | Free-atom electrostatic energy:         -68.00939059 Ha       -1850.62967698 eV
  | Hartree energy correction     :          -6.27993325 Ha        -170.88567833 eV
  | vdW energy correction         :           0.00000000 Ha           0.00000000 eV
  | Entropy correction            :           0.00000000 Ha           0.00000000 eV
  | ---------------------------
  | Total energy                  :        -157.05995252 Ha       -4273.81875748 eV
  | Total energy, T -> 0          :        -157.05995252 Ha       -4273.81875748 eV  <-- do not rely on this value for anything but (periodic) metals
  | Electronic free energy        :        -157.05995252 Ha       -4273.81875748 eV

  Derived energy quantities:
  | Kinetic energy                :         156.35836104 Ha        4254.72748197 eV
  | Electrostatic energy          :        -289.04637169 Ha       -7865.35195839 eV
  | Energy correction for multipole
  | error in Hartree potential    :           0.03431926 Ha           0.93387452 eV
  | Sum of eigenvalues per atom                           :        -203.42442785 eV
  | Total energy (T->0) per atom                          :        -356.15156312 eV  <-- do not rely on this value for anything but (periodic) metals
  | Electronic free energy per atom                       :        -356.15156312 eV

  Self-consistency convergence accuracy:
  | Change of charge density      :  0.1265E+00
  | Change of sum of eigenvalues  :  0.2451E+02 eV
  | Change of total energy        :  0.2805E+00 eV

  End self-consistency iteration #     4       :  max(cpu_time)    wall_clock(cpu1)
  | Time for this iteration                    :        0.652 s           0.649 s
  | Charge density update                      :        0.232 s           0.232 s
  | Density mixing                             :        0.008 s           0.013 s
  | Hartree multipole update                   :        0.016 s           0.014 s
  | Hartree multipole summation                :        0.208 s           0.205 s
  | Integration                                :        0.184 s           0.182 s
  | Solution of K.-S. eqns.                    :        0.004 s           0.002 s
  | Total energy evaluation                    :        0.000 s           0.001 s

  Partial memory accounting:
  | Current value for overall tracked memory usage on task 0  :           0.180 MB
  | Peak value for overall tracked memory usage on task 0     :           0.619 MB after allocating gradient_basis_wave
  | Largest tracked array allocation on task 0 so far         :           0.329 MB  when allocating gradient_basis_wave
  Note:  These values currently only include a subset of arrays which are explicitly tracked.
  The "true" memory usage will be greater.
------------------------------------------------------------

------------------------------------------------------------
          Begin self-consistency iteration #    5

  Date     :  20180215, Time     :  214507.694
------------------------------------------------------------
  Evaluating new KS density.
  Integration grid: deviation in total charge (<rho> - N_e) =  -7.105427E-15
  Pulay mixing of updated and previous charge densities.

  Evaluating partitioned Hartree potential by multipole expansion.
  | Analytical far-field extrapolation by fixed multipoles:
  | Hartree multipole sum: apparent total charge =  -0.605136E-03
  Summing up the Hartree potential.
  Time summed over all CPUs for potential: real work        1.270 s, elapsed        1.302 s
  | RMS charge density error from multipole expansion :   0.229074E-01

  Integrating Hamiltonian matrix: batch-based integration.
  Time summed over all CPUs for integration: real work        1.348 s, elapsed        1.371 s

  Updating Kohn-Sham eigenvalues, eigenvectors, occupation numbers, and Fermi level.
  Solving generalized eigenproblem
  Updating Kohn-Sham eigenvalues and eigenfunctions.
  Solving real generalised eigenvalue problem by standard LAPACK (fast)

  Obtaining occupation numbers and chemical potential using ELSI.
  | Chemical potential (Fermi level):    -4.18868501eV
  Highest occupied state (VBM) at     -5.93828232 eV
  | Occupation number:      2.00000000

  Lowest unoccupied state (CBM) at    -0.45020279 eV
  | Occupation number:      0.00000000

  Overall HOMO-LUMO gap:      5.48807953 eV.

  Total energy components:
  | Sum of eigenvalues            :         -89.43311226 Ha       -2433.59880471 eV
  | XC energy correction          :         -24.39539412 Ha        -663.83244945 eV
  | XC potential correction       :          31.34026707 Ha         852.81205752 eV
  | Free-atom electrostatic energy:         -68.00939059 Ha       -1850.62967698 eV
  | Hartree energy correction     :          -6.56097752 Ha        -178.53328196 eV
  | vdW energy correction         :           0.00000000 Ha           0.00000000 eV
  | Entropy correction            :           0.00000000 Ha           0.00000000 eV
  | ---------------------------
  | Total energy                  :        -157.05860742 Ha       -4273.78215558 eV
  | Total energy, T -> 0          :        -157.05860742 Ha       -4273.78215558 eV  <-- do not rely on this value for anything but (periodic) metals
  | Electronic free energy        :        -157.05860742 Ha       -4273.78215558 eV

  Derived energy quantities:
  | Kinetic energy                :         156.32864599 Ha        4253.91889430 eV
  | Electrostatic energy          :        -288.99185929 Ha       -7863.86860042 eV
  | Energy correction for multipole
  | error in Hartree potential    :           0.03390821 Ha           0.92268943 eV
  | Sum of eigenvalues per atom                           :        -202.79990039 eV
  | Total energy (T->0) per atom                          :        -356.14851296 eV  <-- do not rely on this value for anything but (periodic) metals
  | Electronic free energy per atom                       :        -356.14851296 eV

  Self-consistency convergence accuracy:
  | Change of charge density      :  0.3388E-01
  | Change of sum of eigenvalues  :  0.7494E+01 eV
  | Change of total energy        :  0.3660E-01 eV

  End self-consistency iteration #     5       :  max(cpu_time)    wall_clock(cpu1)
  | Time for this iteration                    :        0.540 s           0.539 s
  | Charge density update                      :        0.172 s           0.170 s
  | Density mixing                             :        0.008 s           0.007 s
  | Hartree multipole update                   :        0.012 s           0.010 s
  | Hartree multipole summation                :        0.172 s           0.170 s
  | Integration                                :        0.180 s           0.178 s
  | Solution of K.-S. eqns.                    :        0.004 s           0.002 s
  | Total energy evaluation                    :        0.004 s           0.000 s

  Partial memory accounting:
  | Current value for overall tracked memory usage on task 0  :           0.180 MB
  | Peak value for overall tracked memory usage on task 0     :           0.619 MB after allocating gradient_basis_wave
  | Largest tracked array allocation on task 0 so far         :           0.329 MB  when allocating gradient_basis_wave
  Note:  These values currently only include a subset of arrays which are explicitly tracked.
  The "true" memory usage will be greater.
------------------------------------------------------------

------------------------------------------------------------
          Begin self-consistency iteration #    6

  Date     :  20180215, Time     :  214508.234
------------------------------------------------------------
  Evaluating new KS density.
  Integration grid: deviation in total charge (<rho> - N_e) =   7.105427E-15
  Pulay mixing of updated and previous charge densities.

  Evaluating partitioned Hartree potential by multipole expansion.
  | Analytical far-field extrapolation by fixed multipoles:
  | Hartree multipole sum: apparent total charge =  -0.623543E-03
  Summing up the Hartree potential.
  Time summed over all CPUs for potential: real work        1.274 s, elapsed        1.305 s
  | RMS charge density error from multipole expansion :   0.231843E-01

  Integrating Hamiltonian matrix: batch-based integration.
  Time summed over all CPUs for integration: real work        1.351 s, elapsed        1.413 s

  Updating Kohn-Sham eigenvalues, eigenvectors, occupation numbers, and Fermi level.
  Solving generalized eigenproblem
  Updating Kohn-Sham eigenvalues and eigenfunctions.
  Solving real generalised eigenvalue problem by standard LAPACK (fast)

  Obtaining occupation numbers and chemical potential using ELSI.
  | Chemical potential (Fermi level):    -4.10949239eV
  Highest occupied state (VBM) at     -5.86375156 eV
  | Occupation number:      2.00000000

  Lowest unoccupied state (CBM) at    -0.37607583 eV
  | Occupation number:      0.00000000

  Overall HOMO-LUMO gap:      5.48767574 eV.

  Total energy components:
  | Sum of eigenvalues            :         -89.34609775 Ha       -2431.23101933 eV
  | XC energy correction          :         -24.40465424 Ha        -664.08443021 eV
  | XC potential correction       :          31.35227521 Ha         853.13881560 eV
  | Free-atom electrostatic energy:         -68.00939059 Ha       -1850.62967698 eV
  | Hartree energy correction     :          -6.65052665 Ha        -180.97003781 eV
  | vdW energy correction         :           0.00000000 Ha           0.00000000 eV
  | Entropy correction            :           0.00000000 Ha           0.00000000 eV
  | ---------------------------
  | Total energy                  :        -157.05839402 Ha       -4273.77634873 eV
  | Total energy, T -> 0          :        -157.05839402 Ha       -4273.77634873 eV  <-- do not rely on this value for anything but (periodic) metals
  | Electronic free energy        :        -157.05839402 Ha       -4273.77634873 eV

  Derived energy quantities:
  | Kinetic energy                :         156.28402942 Ha        4252.70481588 eV
  | Electrostatic energy          :        -288.93776920 Ha       -7862.39673440 eV
  | Energy correction for multipole
  | error in Hartree potential    :           0.03316660 Ha           0.90250914 eV
  | Sum of eigenvalues per atom                           :        -202.60258494 eV
  | Total energy (T->0) per atom                          :        -356.14802906 eV  <-- do not rely on this value for anything but (periodic) metals
  | Electronic free energy per atom                       :        -356.14802906 eV

  Self-consistency convergence accuracy:
  | Change of charge density      :  0.1522E-01
  | Change of sum of eigenvalues  :  0.2368E+01 eV
  | Change of total energy        :  0.5807E-02 eV

  End self-consistency iteration #     6       :  max(cpu_time)    wall_clock(cpu1)
  | Time for this iteration                    :        0.544 s           0.545 s
  | Charge density update                      :        0.172 s           0.168 s
  | Density mixing                             :        0.012 s           0.009 s
  | Hartree multipole update                   :        0.012 s           0.011 s
  | Hartree multipole summation                :        0.172 s           0.170 s
  | Integration                                :        0.184 s           0.183 s
  | Solution of K.-S. eqns.                    :        0.004 s           0.002 s
  | Total energy evaluation                    :        0.000 s           0.001 s

  Partial memory accounting:
  | Current value for overall tracked memory usage on task 0  :           0.180 MB
  | Peak value for overall tracked memory usage on task 0     :           0.619 MB after allocating gradient_basis_wave
  | Largest tracked array allocation on task 0 so far         :           0.329 MB  when allocating gradient_basis_wave
  Note:  These values currently only include a subset of arrays which are explicitly tracked.
  The "true" memory usage will be greater.
------------------------------------------------------------

------------------------------------------------------------
          Begin self-consistency iteration #    7

  Date     :  20180215, Time     :  214508.780
------------------------------------------------------------
  Evaluating new KS density.
  Integration grid: deviation in total charge (<rho> - N_e) =   1.421085E-14
  Pulay mixing of updated and previous charge densities.

  Evaluating partitioned Hartree potential by multipole expansion.
  | Analytical far-field extrapolation by fixed multipoles:
  | Hartree multipole sum: apparent total charge =  -0.627172E-03
  Summing up the Hartree potential.
  Time summed over all CPUs for potential: real work        1.349 s, elapsed        1.712 s
  | RMS charge density error from multipole expansion :   0.231677E-01

  Integrating Hamiltonian matrix: batch-based integration.
  Time summed over all CPUs for integration: real work        1.344 s, elapsed        1.390 s

  Updating Kohn-Sham eigenvalues, eigenvectors, occupation numbers, and Fermi level.
  Solving generalized eigenproblem
  Updating Kohn-Sham eigenvalues and eigenfunctions.
  Solving real generalised eigenvalue problem by standard LAPACK (fast)

  Obtaining occupation numbers and chemical potential using ELSI.
  | Chemical potential (Fermi level):    -4.08943036eV
  Highest occupied state (VBM) at     -5.83916173 eV
  | Occupation number:      2.00000000

  Lowest unoccupied state (CBM) at    -0.35176384 eV
  | Occupation number:      0.00000000

  Overall HOMO-LUMO gap:      5.48739789 eV.

  Total energy components:
  | Sum of eigenvalues            :         -89.32026308 Ha       -2430.52802238 eV
  | XC energy correction          :         -24.40625183 Ha        -664.12790263 eV
  | XC potential correction       :          31.35440376 Ha         853.19673660 eV
  | Free-atom electrostatic energy:         -68.00939059 Ha       -1850.62967698 eV
  | Hartree energy correction     :          -6.67685116 Ha        -181.68636414 eV
  | vdW energy correction         :           0.00000000 Ha           0.00000000 eV
  | Entropy correction            :           0.00000000 Ha           0.00000000 eV
  | ---------------------------
  | Total energy                  :        -157.05835289 Ha       -4273.77522953 eV
  | Total energy, T -> 0          :        -157.05835289 Ha       -4273.77522953 eV  <-- do not rely on this value for anything but (periodic) metals
  | Electronic free energy        :        -157.05835289 Ha       -4273.77522953 eV

  Derived energy quantities:
  | Kinetic energy                :         156.28301589 Ha        4252.67723630 eV
  | Electrostatic energy          :        -288.93511696 Ha       -7862.32456320 eV
  | Energy correction for multipole
  | error in Hartree potential    :           0.03292399 Ha           0.89590746 eV
  | Sum of eigenvalues per atom                           :        -202.54400187 eV
  | Total energy (T->0) per atom                          :        -356.14793579 eV  <-- do not rely on this value for anything but (periodic) metals
  | Electronic free energy per atom                       :        -356.14793579 eV

  Self-consistency convergence accuracy:
  | Change of charge density      :  0.6835E-02
  | Change of sum of eigenvalues  :  0.7030E+00 eV
  | Change of total energy        :  0.1119E-02 eV

  End self-consistency iteration #     7       :  max(cpu_time)    wall_clock(cpu1)
  | Time for this iteration                    :        0.600 s           0.599 s
  | Charge density update                      :        0.172 s           0.171 s
  | Density mixing                             :        0.012 s           0.011 s
  | Hartree multipole update                   :        0.012 s           0.010 s
  | Hartree multipole summation                :        0.224 s           0.223 s
  | Integration                                :        0.184 s           0.181 s
  | Solution of K.-S. eqns.                    :        0.004 s           0.002 s
  | Total energy evaluation                    :        0.000 s           0.001 s

  Partial memory accounting:
  | Current value for overall tracked memory usage on task 0  :           0.180 MB
  | Peak value for overall tracked memory usage on task 0     :           0.619 MB after allocating gradient_basis_wave
  | Largest tracked array allocation on task 0 so far         :           0.329 MB  when allocating gradient_basis_wave
  Note:  These values currently only include a subset of arrays which are explicitly tracked.
  The "true" memory usage will be greater.
------------------------------------------------------------

------------------------------------------------------------
          Begin self-consistency iteration #    8

  Date     :  20180215, Time     :  214509.380
------------------------------------------------------------
  Evaluating new KS density.
  Integration grid: deviation in total charge (<rho> - N_e) =  -1.421085E-14
  Pulay mixing of updated and previous charge densities.

  Evaluating partitioned Hartree potential by multipole expansion.
  | Analytical far-field extrapolation by fixed multipoles:
  | Hartree multipole sum: apparent total charge =  -0.637205E-03
  Summing up the Hartree potential.
  Time summed over all CPUs for potential: real work        1.272 s, elapsed        1.292 s
  | RMS charge density error from multipole expansion :   0.232202E-01

  Integrating Hamiltonian matrix: batch-based integration.
  Time summed over all CPUs for integration: real work        1.333 s, elapsed        1.361 s

  Updating Kohn-Sham eigenvalues, eigenvectors, occupation numbers, and Fermi level.
  Solving generalized eigenproblem
  Updating Kohn-Sham eigenvalues and eigenfunctions.
  Solving real generalised eigenvalue problem by standard LAPACK (fast)

  Obtaining occupation numbers and chemical potential using ELSI.
  | Chemical potential (Fermi level):    -4.03436124eV
  Highest occupied state (VBM) at     -5.77206134 eV
  | Occupation number:      2.00000000

  Lowest unoccupied state (CBM) at    -0.28667726 eV
  | Occupation number:      0.00000000

  Overall HOMO-LUMO gap:      5.48538408 eV.

  Total energy components:
  | Sum of eigenvalues            :         -89.25029070 Ha       -2428.62397706 eV
  | XC energy correction          :         -24.41266781 Ha        -664.30249056 eV
  | XC potential correction       :          31.36280341 Ha         853.42530257 eV
  | Free-atom electrostatic energy:         -68.00939059 Ha       -1850.62967698 eV
  | Hartree energy correction     :          -6.74875531 Ha        -183.64297554 eV
  | vdW energy correction         :           0.00000000 Ha           0.00000000 eV
  | Entropy correction            :           0.00000000 Ha           0.00000000 eV
  | ---------------------------
  | Total energy                  :        -157.05830100 Ha       -4273.77381756 eV
  | Total energy, T -> 0          :        -157.05830100 Ha       -4273.77381756 eV  <-- do not rely on this value for anything but (periodic) metals
  | Electronic free energy        :        -157.05830100 Ha       -4273.77381756 eV

  Derived energy quantities:
  | Kinetic energy                :         156.28305829 Ha        4252.67839006 eV
  | Electrostatic energy          :        -288.92869148 Ha       -7862.14971707 eV
  | Energy correction for multipole
  | error in Hartree potential    :           0.03248693 Ha           0.88401422 eV
  | Sum of eigenvalues per atom                           :        -202.38533142 eV
  | Total energy (T->0) per atom                          :        -356.14781813 eV  <-- do not rely on this value for anything but (periodic) metals
  | Electronic free energy per atom                       :        -356.14781813 eV

  Self-consistency convergence accuracy:
  | Change of charge density      :  0.5384E-02
  | Change of sum of eigenvalues  :  0.1904E+01 eV
  | Change of total energy        :  0.1412E-02 eV

  End self-consistency iteration #     8       :  max(cpu_time)    wall_clock(cpu1)
  | Time for this iteration                    :        0.544 s           0.541 s
  | Charge density update                      :        0.172 s           0.169 s
  | Density mixing                             :        0.012 s           0.013 s
  | Hartree multipole update                   :        0.012 s           0.010 s
  | Hartree multipole summation                :        0.168 s           0.168 s
  | Integration                                :        0.180 s           0.177 s
  | Solution of K.-S. eqns.                    :        0.004 s           0.002 s
  | Total energy evaluation                    :        0.000 s           0.001 s

  Partial memory accounting:
  | Current value for overall tracked memory usage on task 0  :           0.180 MB
  | Peak value for overall tracked memory usage on task 0     :           0.619 MB after allocating gradient_basis_wave
  | Largest tracked array allocation on task 0 so far         :           0.329 MB  when allocating gradient_basis_wave
  Note:  These values currently only include a subset of arrays which are explicitly tracked.
  The "true" memory usage will be greater.
------------------------------------------------------------

------------------------------------------------------------
          Begin self-consistency iteration #    9

  Date     :  20180215, Time     :  214509.923
------------------------------------------------------------
  Evaluating new KS density.
  Integration grid: deviation in total charge (<rho> - N_e) =   7.105427E-15
  Pulay mixing of updated and previous charge densities.

  Evaluating partitioned Hartree potential by multipole expansion.
  | Analytical far-field extrapolation by fixed multipoles:
  | Hartree multipole sum: apparent total charge =  -0.639447E-03
  Summing up the Hartree potential.
  Time summed over all CPUs for potential: real work        1.327 s, elapsed        1.421 s
  | RMS charge density error from multipole expansion :   0.232326E-01

  Integrating Hamiltonian matrix: batch-based integration.
  Time summed over all CPUs for integration: real work        1.350 s, elapsed        1.391 s

  Updating Kohn-Sham eigenvalues, eigenvectors, occupation numbers, and Fermi level.
  Solving generalized eigenproblem
  Updating Kohn-Sham eigenvalues and eigenfunctions.
  Solving real generalised eigenvalue problem by standard LAPACK (fast)

  Obtaining occupation numbers and chemical potential using ELSI.
  | Chemical potential (Fermi level):    -4.02181203eV
  Highest occupied state (VBM) at     -5.75783361 eV
  | Occupation number:      2.00000000

  Lowest unoccupied state (CBM) at    -0.27312283 eV
  | Occupation number:      0.00000000

  Overall HOMO-LUMO gap:      5.48471078 eV.

  Total energy components:
  | Sum of eigenvalues            :         -89.23356722 Ha       -2428.16890781 eV
  | XC energy correction          :         -24.41441799 Ha        -664.35011516 eV
  | XC potential correction       :          31.36508443 Ha         853.48737228 eV
  | Free-atom electrostatic energy:         -68.00939059 Ha       -1850.62967698 eV
  | Hartree energy correction     :          -6.76600814 Ha        -184.11244916 eV
  | vdW energy correction         :           0.00000000 Ha           0.00000000 eV
  | Entropy correction            :           0.00000000 Ha           0.00000000 eV
  | ---------------------------
  | Total energy                  :        -157.05829951 Ha       -4273.77377683 eV
  | Total energy, T -> 0          :        -157.05829951 Ha       -4273.77377683 eV  <-- do not rely on this value for anything but (periodic) metals
  | Electronic free energy        :        -157.05829951 Ha       -4273.77377683 eV

  Derived energy quantities:
  | Kinetic energy                :         156.28592368 Ha        4252.75636115 eV
  | Electrostatic energy          :        -288.92980520 Ha       -7862.18002282 eV
  | Energy correction for multipole
  | error in Hartree potential    :           0.03241759 Ha           0.88212757 eV
  | Sum of eigenvalues per atom                           :        -202.34740898 eV
  | Total energy (T->0) per atom                          :        -356.14781474 eV  <-- do not rely on this value for anything but (periodic) metals
  | Electronic free energy per atom                       :        -356.14781474 eV

  Self-consistency convergence accuracy:
  | Change of charge density      :  0.1070E-02
  | Change of sum of eigenvalues  :  0.4551E+00 eV
  | Change of total energy        :  0.4073E-04 eV

  End self-consistency iteration #     9       :  max(cpu_time)    wall_clock(cpu1)
  | Time for this iteration                    :        0.580 s           0.580 s
  | Charge density update                      :        0.180 s           0.178 s
  | Density mixing                             :        0.016 s           0.019 s
  | Hartree multipole update                   :        0.016 s           0.013 s
  | Hartree multipole summation                :        0.184 s           0.186 s
  | Integration                                :        0.180 s           0.181 s
  | Solution of K.-S. eqns.                    :        0.004 s           0.002 s
  | Total energy evaluation                    :        0.004 s           0.001 s

  Partial memory accounting:
  | Current value for overall tracked memory usage on task 0  :           0.180 MB
  | Peak value for overall tracked memory usage on task 0     :           0.619 MB after allocating gradient_basis_wave
  | Largest tracked array allocation on task 0 so far         :           0.329 MB  when allocating gradient_basis_wave
  Note:  These values currently only include a subset of arrays which are explicitly tracked.
  The "true" memory usage will be greater.
------------------------------------------------------------

------------------------------------------------------------
          Begin self-consistency iteration #   10

  Date     :  20180215, Time     :  214510.504
------------------------------------------------------------
  Evaluating new KS density.
  Integration grid: deviation in total charge (<rho> - N_e) =   7.105427E-15
  Pulay mixing of updated and previous charge densities.

  Evaluating partitioned Hartree potential by multipole expansion.
  | Analytical far-field extrapolation by fixed multipoles:
  | Hartree multipole sum: apparent total charge =  -0.639389E-03
  Summing up the Hartree potential.
  Time summed over all CPUs for potential: real work        1.273 s, elapsed        1.296 s
  | RMS charge density error from multipole expansion :   0.232341E-01

  Integrating Hamiltonian matrix: batch-based integration.
  Time summed over all CPUs for integration: real work        1.421 s, elapsed        1.632 s

[...]
  |   Hirshfeld dipole moment :      0.08866655
  |   Hirshfeld second moments:      0.10745197       0.00370882      -0.00251975
  |                                  0.00370882       0.08753800      -0.00180108
  |                                 -0.00251975      -0.00180108       0.10987968
  ----------------------------------------------------------------------
  | Atom     8: H
  |   Hirshfeld charge        :      0.03730863
  |   Free atom volume        :      9.95071624
  |   Hirshfeld volume        :      6.40752084
  |   Hirshfeld dipole vector :     -0.02753102      -0.03549324       0.07931187
  |   Hirshfeld dipole moment :      0.09114878
  |   Hirshfeld second moments:      0.09730904       0.00134436       0.00545114
  |                                  0.00134436       0.09795941       0.00689731
  |                                  0.00545114       0.00689731       0.09329996
  ----------------------------------------------------------------------
  | Atom     9: H
  |   Hirshfeld charge        :      0.03730863
  |   Free atom volume        :      9.95071624
  |   Hirshfeld volume        :      6.40752084
  |   Hirshfeld dipole vector :      0.02753102       0.03549325       0.07931187
  |   Hirshfeld dipole moment :      0.09114878
  |   Hirshfeld second moments:      0.09730904       0.00134436      -0.00545114
  |                                  0.00134436       0.09795941      -0.00689731
  |                                 -0.00545114      -0.00689731       0.09329996
  ----------------------------------------------------------------------
  | Atom    10: H
  |   Hirshfeld charge        :      0.04038132
  |   Free atom volume        :      9.95071624
  |   Hirshfeld volume        :      6.39341838
  |   Hirshfeld dipole vector :     -0.02461870      -0.02432321      -0.07786652
  |   Hirshfeld dipole moment :      0.08521088
  |   Hirshfeld second moments:      0.10162512      -0.01059299      -0.00525277
  |                                 -0.01059299       0.09630250      -0.00542709
  |                                 -0.00525277      -0.00542709       0.08999011
  ----------------------------------------------------------------------
  | Atom    11: H
  |   Hirshfeld charge        :      0.04324769
  |   Free atom volume        :      9.95071624
  |   Hirshfeld volume        :      6.12659563
  |   Hirshfeld dipole vector :     -0.01877227       0.08660896       0.00287155
  |   Hirshfeld dipole moment :      0.08866655
  |   Hirshfeld second moments:      0.10745197       0.00370882       0.00251975
  |                                  0.00370882       0.08753800       0.00180108
  |                                  0.00251975       0.00180108       0.10987968
  ----------------------------------------------------------------------
  | Atom    12: H
  |   Hirshfeld charge        :      0.04323835
  |   Free atom volume        :      9.95071624
  |   Hirshfeld volume        :      6.13541539
  |   Hirshfeld dipole vector :      0.08834451      -0.00289737      -0.00222691
  |   Hirshfeld dipole moment :      0.08842005
  |   Hirshfeld second moments:      0.08690265       0.00001916       0.00239069
  |                                  0.00001916       0.10777066       0.00291642
  |                                  0.00239069       0.00291642       0.10957617
  ----------------------------------------------------------------------


  Total energy components:
  | Sum of eigenvalues            :         -89.23347780 Ha       -2428.16647482 eV
  | XC energy correction          :         -24.41454216 Ha        -664.35349412 eV
  | XC potential correction       :          31.36524146 Ha         853.49164518 eV
  | Free-atom electrostatic energy:         -68.00939059 Ha       -1850.62967698 eV
  | Hartree energy correction     :          -6.76613115 Ha        -184.11579636 eV
  | vdW energy correction         :          -0.00229412 Ha          -0.06242631 eV
  | Entropy correction            :           0.00000000 Ha           0.00000000 eV
  | ---------------------------
  | Total energy                  :        -157.06059438 Ha       -4273.83622341 eV
  | Total energy, T -> 0          :        -157.06059438 Ha       -4273.83622341 eV  <-- do not rely on this value for anything but (periodic) metals
  | Electronic free energy        :        -157.06059438 Ha       -4273.83622341 eV

  Derived energy quantities:
  | Kinetic energy                :         156.28651677 Ha        4252.77249993 eV
  | Electrostatic energy          :        -288.93027486 Ha       -7862.19280291 eV
  | Energy correction for multipole
  | error in Hartree potential    :           0.03242681 Ha           0.88237835 eV
  | Sum of eigenvalues per atom                           :        -202.34720623 eV
  | Total energy (T->0) per atom                          :        -356.15301862 eV  <-- do not rely on this value for anything but (periodic) metals
  | Electronic free energy per atom                       :        -356.15301862 eV

  atomic forces [eV/Ang]:
  -----------------------
  atom #    1
   Hellmann-Feynman              :  0.220630E+00  0.301700E+00  0.381181E+00
   Ionic forces                  :  0.000000E+00  0.000000E+00  0.000000E+00
   Multipole                     : -0.356560E+00 -0.479046E+00 -0.630678E+00
   Pulay + GGA                   :  0.143358E+00  0.188916E+00  0.246310E+00
   Van der Waals                 : -0.838103E-02 -0.113213E-01  0.316553E-02
   ----------------------------------------------------------------
   Total forces(   1)            : -0.953431E-03  0.248537E-03 -0.217550E-04
  atom #    2
   Hellmann-Feynman              :  0.109627E+01  0.140409E+01  0.123291E+00
   Ionic forces                  :  0.000000E+00  0.000000E+00  0.000000E+00
   Multipole                     : -0.473901E-02  0.109283E-01  0.375020E+00
   Pulay + GGA                   : -0.109253E+01 -0.141580E+01 -0.503795E+00
   Van der Waals                 :  0.562516E-03  0.577762E-03  0.519830E-02
   ----------------------------------------------------------------
   Total forces(   2)            : -0.436514E-03 -0.206680E-03 -0.285040E-03
  atom #    3
   Hellmann-Feynman              : -0.109627E+01 -0.140409E+01  0.123291E+00
   Ionic forces                  :  0.000000E+00  0.000000E+00  0.000000E+00
   Multipole                     :  0.473900E-02 -0.109283E-01  0.375020E+00
   Pulay + GGA                   :  0.109253E+01  0.141580E+01 -0.503795E+00
   Van der Waals                 : -0.562516E-03 -0.577762E-03  0.519830E-02
   ----------------------------------------------------------------
   Total forces(   3)            :  0.436515E-03  0.206680E-03 -0.285040E-03
  atom #    4
   Hellmann-Feynman              : -0.220630E+00 -0.301700E+00  0.381181E+00
   Ionic forces                  :  0.000000E+00  0.000000E+00  0.000000E+00
   Multipole                     :  0.356560E+00  0.479046E+00 -0.630678E+00
   Pulay + GGA                   : -0.143358E+00 -0.188916E+00  0.246310E+00
   Van der Waals                 :  0.838103E-02  0.113213E-01  0.316553E-02
   ----------------------------------------------------------------
   Total forces(   4)            :  0.953431E-03 -0.248537E-03 -0.217550E-04
  atom #    5
   Hellmann-Feynman              :  0.491650E-01  0.842886E-01  0.404755E-01
   Ionic forces                  :  0.000000E+00  0.000000E+00  0.000000E+00
   Multipole                     :  0.994986E-03 -0.145276E-01 -0.133670E+00
   Pulay + GGA                   : -0.488920E-01 -0.593236E-01  0.975120E-01
   Van der Waals                 : -0.565016E-02 -0.800564E-02 -0.479238E-02
   ----------------------------------------------------------------
   Total forces(   5)            : -0.438219E-02  0.243171E-02 -0.474621E-03
  atom #    6
   Hellmann-Feynman              : -0.129777E-01  0.265888E-02  0.416680E-01
   Ionic forces                  :  0.000000E+00  0.000000E+00  0.000000E+00
   Multipole                     : -0.976709E-01 -0.177345E-01 -0.390781E-01
   Pulay + GGA                   :  0.107301E+00  0.871992E-02  0.346754E-02
   Van der Waals                 :  0.226886E-02  0.381615E-02 -0.317862E-02
   ----------------------------------------------------------------
   Total forces(   6)            : -0.107862E-02 -0.253950E-02  0.287882E-02
  atom #    7
   Hellmann-Feynman              :  0.114471E-01 -0.862157E-02  0.442332E-01
   Ionic forces                  :  0.000000E+00  0.000000E+00  0.000000E+00
   Multipole                     : -0.425454E-03 -0.100340E+00 -0.390322E-01
   Pulay + GGA                   : -0.122588E-01  0.106957E+00 -0.400044E-02
   Van der Waals                 :  0.294539E-02  0.277062E-02 -0.330484E-02
   ----------------------------------------------------------------
   Total forces(   7)            :  0.170814E-02  0.766087E-03 -0.210424E-02
  atom #    8
   Hellmann-Feynman              : -0.294655E-01 -0.355608E-01 -0.584337E-01
   Ionic forces                  :  0.000000E+00  0.000000E+00  0.000000E+00
   Multipole                     : -0.967265E-02 -0.145001E-01  0.149694E+00
   Pulay + GGA                   :  0.360120E-01  0.462246E-01 -0.944481E-01
   Van der Waals                 :  0.303400E-02  0.398449E-02  0.291200E-02
   ----------------------------------------------------------------
   Total forces(   8)            : -0.921217E-04  0.148186E-03 -0.276179E-03
  atom #    9
   Hellmann-Feynman              :  0.294655E-01  0.355608E-01 -0.584337E-01
   Ionic forces                  :  0.000000E+00  0.000000E+00  0.000000E+00
   Multipole                     :  0.967265E-02  0.145001E-01  0.149694E+00
   Pulay + GGA                   : -0.360120E-01 -0.462246E-01 -0.944481E-01
   Van der Waals                 : -0.303400E-02 -0.398449E-02  0.291200E-02
   ----------------------------------------------------------------
   Total forces(   9)            :  0.921219E-04 -0.148186E-03 -0.276179E-03
  atom #   10
   Hellmann-Feynman              : -0.491650E-01 -0.842886E-01  0.404755E-01
   Ionic forces                  :  0.000000E+00  0.000000E+00  0.000000E+00
   Multipole                     : -0.994986E-03  0.145276E-01 -0.133670E+00
   Pulay + GGA                   :  0.488920E-01  0.593236E-01  0.975120E-01
   Van der Waals                 :  0.565016E-02  0.800564E-02 -0.479238E-02
   ----------------------------------------------------------------
   Total forces(  10)            :  0.438219E-02 -0.243171E-02 -0.474621E-03
  atom #   11
   Hellmann-Feynman              : -0.114471E-01  0.862157E-02  0.442332E-01
   Ionic forces                  :  0.000000E+00  0.000000E+00  0.000000E+00
   Multipole                     :  0.425454E-03  0.100340E+00 -0.390322E-01
   Pulay + GGA                   :  0.122588E-01 -0.106957E+00 -0.400044E-02
   Van der Waals                 : -0.294539E-02 -0.277062E-02 -0.330484E-02
   ----------------------------------------------------------------
   Total forces(  11)            : -0.170814E-02 -0.766087E-03 -0.210424E-02
  atom #   12
   Hellmann-Feynman              :  0.129777E-01 -0.265888E-02  0.416680E-01
   Ionic forces                  :  0.000000E+00  0.000000E+00  0.000000E+00
   Multipole                     :  0.976709E-01  0.177345E-01 -0.390781E-01
   Pulay + GGA                   : -0.107301E+00 -0.871992E-02  0.346754E-02
   Van der Waals                 : -0.226886E-02 -0.381615E-02 -0.317862E-02
   ----------------------------------------------------------------
   Total forces(  12)            :  0.107861E-02  0.253950E-02  0.287882E-02

  Timings for VdW correction (Tkatchenko-Scheffler 2009 or later):
  | CPU time:        0.040 s, Wall clock time:        0.042 s.
  Removing unitary transformations (pure translations, rotations) from forces on atoms.
  Atomic forces before filtering:
  | Net force on center of mass :  -0.383181E-10  0.729902E-10 -0.566023E-03 eV/A
  | Net torque on center of mass:  -0.430716E-10  0.122006E-09  0.660127E-03 eV
  Atomic forces after filtering:
  | Net force on center of mass :   0.174225E-18  0.000000E+00  0.348449E-18 eV/A
  | Net torque on center of mass:  -0.737566E-18  0.737566E-18  0.147513E-17 eV

  Energy and forces in a compact form:
  | Total energy uncorrected      :         -0.427383622340675E+04 eV
  | Total energy corrected        :         -0.427383622340675E+04 eV  <-- do not rely on this value for anything but (periodic) metals
  | Electronic free energy        :         -0.427383622340675E+04 eV
  Total atomic forces (unitary forces cleaned) [eV/Ang]:
  |   1         -0.977720605017704E-03          0.267163373443341E-03          0.254136502927420E-04
  |   2         -0.446761498290015E-03         -0.198798335188197E-03         -0.237871548155946E-03
  |   3          0.446761602498980E-03          0.198798308870857E-03         -0.237871547719278E-03
  |   4          0.977720580625222E-03         -0.267163362915645E-03          0.254136644628843E-04
  |   5         -0.439897991151586E-02          0.244323549781763E-02         -0.427452106772935E-03
  |   6         -0.110178507543693E-02         -0.249969416835377E-02          0.292598803478993E-02
  |   7          0.166324070238014E-02          0.779823068213023E-03         -0.205706805726109E-02
  |   8         -0.109943887784632E-03          0.161948185309008E-03         -0.229010000187032E-03
  |   9          0.109944042294399E-03         -0.161948243082648E-03         -0.229010003397583E-03
  |  10          0.439898017463308E-02         -0.244323558134186E-02         -0.427452070979860E-03
  |  11         -0.166324102833850E-02         -0.779823293517579E-03         -0.205706816958969E-02
  |  12          0.110178490395182E-02          0.249969455074584E-02          0.292598815451786E-02

  ------------------------------------ 
  Start decomposition of the XC Energy 
  ------------------------------------ 
  X and C from original XC functional choice 
  Hartree-Fock Energy :          0.000000000 Ha              0.000000000 eV
  X Energy            :        -23.397857533 Ha           -636.688097796 eV
  C Energy            :         -1.016684628 Ha            -27.665396324 eV
  Total XC Energy     :        -24.414542160 Ha           -664.353494121 eV
  ------------------------------------ 
  LDA X and C from self-consistent density 
  X Energy LDA        :        -21.151721290 Ha           -575.567620871 eV
  C Energy LDA        :         -1.974712006 Ha            -53.734647662 eV
  ------------------------------------ 
  End decomposition of the XC Energy 
  ------------------------------------ 

------------------------------------------------------------

------------------------------------------------------------------------------
  Final output of selected total energy values:

  The following output summarizes some interesting total energy values
  at the end of a run (AFTER all relaxation, molecular dynamics, etc.).

  | Total energy of the DFT / Hartree-Fock s.c.f. calculation      :          -4273.836223407 eV
  | Final zero-broadening corrected energy (caution - metals only) :          -4273.836223407 eV
  | For reference only, the value of 1 Hartree used in FHI-aims is :             27.211384500 eV

  Before relying on these values, please be sure to understand exactly which
  total energy value is referred to by a given number. Different objects may
  all carry the same name 'total energy'. Definitions:

  Total energy of the DFT / Hartree-Fock s.c.f. calculation:
  | Note that this energy does not include ANY quantities calculated after the
  | s.c.f. cycle, in particular not ANY RPA, MP2, etc. many-body perturbation terms.

  Final zero-broadening corrected energy:
  | For metallic systems only, a broadening of the occupation numbers at the Fermi
  | level can be extrapolated back to zero broadening by an electron-gas inspired
  | formula. For all systems that are not real metals, this value can be
  | meaningless and should be avoided.

------------------------------------------------------------------------------
  Methods described in the following list of references were used in this FHI-aims run.
  If you publish the results, please make sure to cite these reference if they apply.
  FHI-aims is an academic code, and for our developers (often, Ph.D. students
  and postdocs), scientific credit in the community is essential.
  Thank you for helping us!

  For any use of FHI-aims, please cite:

    Volker Blum, Ralf Gehrke, Felix Hanke, Paula Havu, Ville Havu,
    Xinguo Ren, Karsten Reuter, and Matthias Scheffler
    'Ab initio molecular simulations with numeric atom-centered orbitals'
    Computer Physics Communications 180, 2175-2196 (2009)
    http://dx.doi.org/10.1016/j.cpc.2009.06.022


  For the real-space grid partitioning and parallelization used in this calculation, please cite:

    Ville Havu, Volker Blum, Paula Havu, and Matthias Scheffler,
    'Efficient O(N) integration for all-electron electronic structure calculation'
    'using numerically tabulated basis functions'
    Journal of Computational Physics 228, 8367-8379 (2009).
    http://dx.doi.org/10.1016/j.jcp.2009.08.008

  Of course, there are many other important community references, e.g., those cited in the
  above references. Our list is limited to references that describe implementations in the
  FHI-aims code. The reason is purely practical (length of this list) - please credit others as well.

------------------------------------------------------------
          Leaving FHI-aims.
          Date     :  20180215, Time     :  214514.881

          Computational steps:
          | Number of self-consistency cycles          :           15
          | Number of SCF (re)initializations          :            1

          Detailed time accounting                     :  max(cpu_time)    wall_clock(cpu1)
          | Total time                                 :       10.108 s          10.147 s
          | Preparation time                           :        0.128 s           0.128 s
          | Boundary condition initalization           :        0.000 s           0.000 s
          | Grid partitioning                          :        0.080 s           0.077 s
          | Preloading free-atom quantities on grid    :        0.004 s           0.003 s
          | Free-atom superposition energy             :        0.024 s           0.022 s
          | Total time for integrations                :        3.132 s           3.108 s
          | Total time for solution of K.-S. equations :        0.072 s           0.051 s
          | Total time for density & force components  :        3.100 s           3.069 s
          | Total time for mixing                      :        0.176 s           0.171 s
          | Total time for Hartree multipole update    :        0.192 s           0.169 s
          | Total time for Hartree multipole sum       :        3.160 s           3.147 s
          | Total time for total energy evaluation     :        0.024 s           0.015 s
          | Total time for vdW correction              :        0.040 s           0.042 s

          Partial memory accounting:
          | Residual value for overall tracked memory usage across tasks :           0.000 MB (should be 0.000 MB)
          | Peak values for overall tracked memory usage (after allocating hessian_basis_wave):
          |   Minimum:        1.388 MB (on task 1)
          |   Maximum:        1.388 MB (on task 1)
          |   Average:        1.388 MB
          | Largest tracked array allocation (hessian_basis_wave):
          |   Minimum:        0.659 MB (on task 1)
          |   Maximum:        0.659 MB (on task 1)
          |   Average:        0.659 MB
          Note:  These values currently only include a subset of arrays which are explicitly tracked.
          The "true" memory usage will be greater.

          Have a nice day.
------------------------------------------------------------
